Protein in water
98266
    1DT5    H5T    1   4.285   4.830   7.667  1.3467  0.7524  3.9836
    1DT5    O5'    2   4.191   4.839   7.687  0.1464 -0.3813 -0.1066
    1DT5    C5'    3   4.169   4.809   7.827  0.1630 -0.3093  0.2267
    1DT5   H5'1    4   4.209   4.711   7.852  2.4948  0.1327 -1.4262
    1DT5   H5'2    5   4.063   4.792   7.849 -0.0267  1.3921  0.7742
    1DT5    C4'    6   4.219   4.915   7.929 -0.0750 -0.0279 -0.3760
    1DT5    H4'    7   4.214   4.873   8.029  0.1899  0.4464 -0.1597
    1DT5    O4'    8   4.362   4.913   7.901 -0.4088 -0.1496  0.1040
    1DT5    C1'    9   4.397   5.050   7.884 -0.2303 -0.0475 -0.2994
    1DT5    H1'   10   4.396   5.099   7.982 -0.9140 -1.3961  0.3887
    1DT5     N1   11   4.531   5.065   7.824  0.8167  0.7596 -0.5020
    1DT5     C6   12   4.552   5.047   7.689  1.3055 -0.7200 -0.2410
    1DT5     H6   13   4.479   5.022   7.614 -0.8937  0.2878  1.4699
    1DT5     C5   14   4.680   5.057   7.642 -0.1908  0.0102 -0.6056
    1DT5     C7   15   4.705   5.025   7.501  0.0171  0.2552  0.0876
    1DT5    H71   16   4.661   5.098   7.433 -0.9772  1.6492  2.0935
    1DT5    H72   17   4.812   5.033   7.483  0.3072 -0.0377  1.5520
    1DT5    H73   18   4.691   4.921   7.473 -0.3154  0.6232 -1.1621
    1DT5     C4   19   4.795   5.075   7.733  0.2128 -0.1670  0.7085
    1DT5     O4   20   4.914   5.089   7.704  0.1638 -0.1461 -0.3408
    1DT5     N3   21   4.763   5.078   7.867  0.1929  0.3453 -0.0128
    1DT5     H3   22   4.842   5.068   7.929 -0.0062 -0.3227  0.1509
    1DT5     C2   23   4.636   5.065   7.918 -0.4082 -0.2807  0.3464
    1DT5     O2   24   4.625   5.040   8.039  0.4772 -0.3158 -0.5391
    1DT5    C3'   25   4.172   5.053   7.910 -0.3087 -1.1278 -0.0744
    1DT5    H3'   26   4.076   5.064   7.860  0.2168  0.4525 -0.8071
    1DT5    C2'   27   4.281   5.111   7.819 -0.0954 -0.0531  0.2810
    1DT5   H2'1   28   4.261   5.073   7.719 -0.3008 -2.8945  1.3247
    1DT5   H2'2   29   4.286   5.220   7.823 -2.9616  0.1209  3.1512
    1DT5    O3'   30   4.178   5.109   8.036 -0.3567 -0.2454 -0.2164
    2DT       P   31   4.123   5.256   8.062  0.4834 -0.1882 -0.4553
    2DT     O1P   32   4.067   5.257   8.201 -0.6998  0.2945 -0.1827
    2DT     O2P   33   4.041   5.311   7.945 -0.0273  0.1009 -0.1570
    2DT     O5'   34   4.268   5.329   8.058 -0.4845  0.5171  0.2982
    2DT     C5'   35   4.375   5.299   8.149 -0.7649 -0.7923  0.3557
    2DT    H5'1   36   4.408   5.195   8.142  1.1581 -0.2976  1.3745
    2DT    H5'2   37   4.343   5.327   8.249 -2.0029  4.0124 -1.1263
    2DT     C4'   38   4.504   5.374   8.129  0.1657  0.0753  0.0697
    2DT     H4'   39   4.570   5.349   8.212  1.0817  0.6467 -0.4648
    2DT     O4'   40   4.563   5.327   8.005  0.4760  0.2862 -0.2791
    2DT     C1'   41   4.608   5.446   7.946  0.3189 -0.2205  0.6660
    2DT     H1'   42   4.693   5.484   8.003  1.5154 -2.4448  0.4972
    2DT      N1   43   4.643   5.417   7.803  0.0337 -0.4088 -0.0492
    2DT      C6   44   4.554   5.400   7.701  0.1915  0.4677 -0.2781
    2DT      H6   45   4.448   5.390   7.720  0.0532 -0.6903 -1.4981
    2DT      C5   46   4.599   5.388   7.575 -0.4505  0.6878  0.0562
    2DT      C7   47   4.496   5.368   7.467 -0.3471 -0.2975 -0.0572
    2DT     H71   48   4.488   5.467   7.422  1.6846 -1.3912 -3.1752
    2DT     H72   49   4.534   5.298   7.393  0.4480  1.7693 -1.7156
    2DT     H73   50   4.399   5.336   7.505 -0.2710 -2.6121 -1.6438
    2DT      C4   51   4.741   5.395   7.541 -0.5665  0.2847  0.8031
    2DT      O4   52   4.798   5.372   7.428  0.4560 -0.4100 -0.3438
    2DT      N3   53   4.826   5.411   7.648  0.4656 -0.5342 -0.5650
    2DT      H3   54   4.926   5.400   7.637  0.7907  1.0711  0.4722
    2DT      C2   55   4.786   5.408   7.776  0.0189 -0.1613 -0.2631
    2DT      O2   56   4.871   5.406   7.863 -0.1868  0.4644 -0.0038
    2DT     C3'   57   4.476   5.523   8.124 -0.2156  0.1339 -0.4384
    2DT     H3'   58   4.376   5.561   8.147 -0.0303  0.8371 -0.7782
    2DT     C2'   59   4.493   5.545   7.970 -0.0845 -0.4155 -0.0782
    2DT    H2'1   60   4.407   5.505   7.918 -0.7120 -0.8427  1.2350
    2DT    H2'2   61   4.538   5.640   7.941  1.5960 -0.8283  1.0244
    2DT     O3'   62   4.573   5.593   8.210 -0.5414  0.0072 -0.6618
    3DT       P   63   4.598   5.756   8.214  0.1916  0.1563  0.0428
    3DT     O1P   64   4.655   5.791   8.346  0.3468  0.3875 -0.0613
    3DT     O2P   65   4.466   5.811   8.183  0.5331 -0.1802 -0.1329
    3DT     O5'   66   4.702   5.782   8.101  0.3975 -0.8161  0.2920
    3DT     C5'   67   4.821   5.712   8.100  0.2641 -0.3298 -0.4106
    3DT    H5'1   68   4.801   5.606   8.117 -0.0332 -0.2286 -0.1117
    3DT    H5'2   69   4.889   5.749   8.177 -0.7582 -1.1083  0.8989
    3DT     C4'   70   4.890   5.733   7.967  0.1951 -0.0374 -0.1460
    3DT     H4'   71   4.989   5.687   7.969 -0.2055 -0.8843  1.3398
    3DT     O4'   72   4.813   5.677   7.859 -0.2751  0.7760  0.0526
    3DT     C1'   73   4.829   5.762   7.751 -0.1110  0.7577  0.1036
    3DT     H1'   74   4.928   5.744   7.708 -0.7575 -0.2979 -1.0379
    3DT      N1   75   4.733   5.735   7.640  0.9631 -0.0748 -0.3906
    3DT      C6   76   4.598   5.757   7.651  0.2128 -0.3229 -0.2477
    3DT      H6   77   4.556   5.776   7.749  0.0860  1.1477 -0.5646
    3DT      C5   78   4.517   5.760   7.540  0.2363 -0.8961 -0.1587
    3DT      C7   79   4.366   5.777   7.559 -0.2103 -0.5422 -0.7018
    3DT     H71   80   4.349   5.776   7.667  0.5333  0.1454 -0.5635
    3DT     H72   81   4.329   5.870   7.516 -1.7589  0.3169  2.2505
    3DT     H73   82   4.314   5.694   7.511  0.2567 -1.0437 -0.3510
    3DT      C4   83   4.574   5.733   7.415 -0.1078  0.0568  1.0281
    3DT      O4   84   4.513   5.717   7.313  0.0788  0.0606 -0.5177
    3DT      N3   85   4.703   5.699   7.407  0.0441 -0.0574 -0.1296
    3DT      H3   86   4.745   5.653   7.327  1.3521 -2.4431  1.7900
    3DT      C2   87   4.786   5.704   7.517  0.1569  1.1399 -0.2190
    3DT      O2   88   4.895   5.654   7.498 -0.5001 -0.5743  0.0537
    3DT     C3'   89   4.898   5.884   7.933 -0.3376  0.8025  0.3069
    3DT     H3'   90   4.862   5.948   8.014 -1.4112  1.5790 -0.7566
    3DT     C2'   91   4.811   5.906   7.808  0.2890  0.4440 -0.0209
    3DT    H2'1   92   4.709   5.928   7.837  0.5786  2.7841 -0.6172
    3DT    H2'2   93   4.850   5.982   7.741  1.0068 -2.7943 -3.6519
    3DT     O3'   94   5.035   5.915   7.905  0.2940 -0.5857  0.0466
    4DT       P   95   5.101   6.042   7.982  0.1720 -0.3170  0.0034
    4DT     O1P   96   5.113   6.022   8.128  0.2787 -0.1960  0.1120
    4DT     O2P   97   5.017   6.154   7.928  0.1738  0.2088  0.0870
    4DT     O5'   98   5.246   6.051   7.928 -0.0110  0.0161 -0.1043
    4DT     C5'   99   5.328   5.936   7.938 -0.2993 -0.4012  0.0618
    4DT    H5'1  100   5.284   5.858   8.000 -0.0658  0.6497  1.5842
    4DT    H5'2  101   5.410   5.975   7.997 -1.2222  2.9414 -0.6767
    4DT     C4'  102   5.378   5.881   7.804  0.1088  0.1846  0.5307
    4DT     H4'  103   5.434   5.788   7.806 -0.1094  0.0527  0.5214
    4DT     O4'  104   5.265   5.856   7.712 -0.3518 -0.8822 -0.7633
    4DT     C1'  105   5.303   5.879   7.580  0.6508 -0.4916 -0.5483
    4DT     H1'  106   5.351   5.789   7.544  2.1413  0.9337 -2.3184
    4DT      N1  107   5.182   5.912   7.502  0.4860  0.6716  0.5101
    4DT      C6  108   5.102   6.016   7.542  0.1860 -0.1511 -0.0451
    4DT      H6  109   5.121   6.067   7.635 -0.9051  1.4966 -0.6650
    4DT      C5  110   4.996   6.054   7.464  0.3707  0.0207 -0.2556
    4DT      C7  111   4.906   6.167   7.511  0.2310 -0.2372  0.1864
    4DT     H71  112   4.946   6.213   7.602 -1.1777 -0.1211  0.7576
    4DT     H72  113   4.901   6.244   7.433 -0.0920 -1.9706 -1.5945
    4DT     H73  114   4.807   6.131   7.535  0.1725  0.2559  0.6875
    4DT      C4  115   4.967   5.987   7.340 -0.3915  0.4992  0.6964
    4DT      O4  116   4.874   6.001   7.261 -0.6855  0.9899 -0.8599
    4DT      N3  117   5.053   5.894   7.301 -0.0312 -0.1809 -0.5324
    4DT      H3  118   5.018   5.841   7.223  1.0191  1.4393 -2.1861
    4DT      C2  119   5.157   5.841   7.379  0.9973 -0.4031  0.7052
    4DT      O2  120   5.227   5.749   7.340 -0.3615  0.4842 -0.2159
    4DT     C3'  121   5.467   5.980   7.720 -0.1535  0.2705 -0.8166
    4DT     H3'  122   5.455   6.080   7.762 -0.3081 -0.2431  0.4004
    4DT     C2'  123   5.407   5.987   7.578  0.0974  0.6622 -0.1704
    4DT    H2'1  124   5.350   6.079   7.566 -2.6161 -0.7659  0.8184
    4DT    H2'2  125   5.487   5.977   7.505  1.6695  3.3940  0.9810
    4DT     O3'  126   5.604   5.952   7.719 -0.4597 -0.2431 -0.0056
    5DT       P  127   5.696   6.005   7.834  0.2944 -0.1097 -0.4900
    5DT     O1P  128   5.660   6.145   7.866  0.1595  0.0724  1.0820
    5DT     O2P  129   5.837   5.975   7.804 -0.8403  0.1520  0.3421
    5DT     O5'  130   5.645   5.913   7.954  0.0758  0.6842 -0.0315
    5DT     C5'  131   5.693   5.787   7.986  0.2248  0.0232 -0.1596
    5DT    H5'1  132   5.796   5.801   8.017  0.4270 -0.2333 -0.7114
    5DT    H5'2  133   5.685   5.736   7.890 -2.4944 -0.9519  0.4806
    5DT     C4'  134   5.606   5.714   8.090 -0.5538 -0.8535 -0.7310
    5DT     H4'  135   5.606   5.772   8.182 -1.9690 -2.0107  0.0403
    5DT     O4'  136   5.483   5.693   8.028  0.1787  0.0567  0.3373
    5DT     C1'  137   5.460   5.551   8.020  0.0636 -0.0299 -0.1093
    5DT     H1'  138   5.412   5.519   8.113 -3.0656  0.7014 -1.3256
    5DT      N1  139   5.368   5.514   7.909  0.6663  0.2411 -0.2484
    5DT      C6  140   5.416   5.488   7.781  0.7669 -0.0019 -0.0847
    5DT      H6  141   5.521   5.502   7.759  1.2185 -1.1755  1.0898
    5DT      C5  142   5.326   5.463   7.681 -0.1806 -0.1826  0.4451
    5DT      C7  143   5.386   5.428   7.548  0.5578 -0.1696 -0.3437
    5DT     H71  144   5.481   5.479   7.532 -0.5375  1.8391 -0.7917
    5DT     H72  145   5.380   5.321   7.530  0.1325 -0.0187 -1.1512
    5DT     H73  146   5.320   5.467   7.470 -0.8171  0.7243  1.2033
    5DT      C4  147   5.184   5.454   7.704  0.0851 -0.3702  0.3711
    5DT      O4  148   5.099   5.413   7.626 -0.1999 -0.1911  0.7965
    5DT      N3  149   5.143   5.503   7.828 -0.7269 -0.3704 -0.8081
    5DT      H3  150   5.046   5.514   7.856 -0.2687  0.5986  0.4491
    5DT      C2  151   5.228   5.528   7.933  0.0894  0.3820 -0.1572
    5DT      O2  152   5.176   5.570   8.041 -0.4001 -0.4990 -0.3534
    5DT     C3'  153   5.676   5.583   8.121  0.4760  0.2399 -0.3005
    5DT     H3'  154   5.779   5.582   8.087 -0.2754 -0.2139 -2.7597
    5DT     C2'  155   5.598   5.483   8.023 -0.9929 -0.2447  0.3444
    5DT    H2'1  156   5.654   5.488   7.930  0.1929 -0.0042  1.0511
    5DT    H2'2  157   5.597   5.380   8.059  1.1651  0.0186  1.3139
    5DT     O3'  158   5.662   5.557   8.260 -0.3135  0.6870 -0.5008
    6DT       P  159   5.670   5.419   8.323  0.3466 -0.4138 -0.2450
    6DT     O1P  160   5.713   5.441   8.464  0.2654 -0.2176  0.1203
    6DT     O2P  161   5.759   5.341   8.243 -0.2651  0.3865 -0.5769
    6DT     O5'  162   5.527   5.354   8.310  0.2546  0.0965 -0.4598
    6DT     C5'  163   5.416   5.415   8.368  0.3453 -0.2695 -1.0090
    6DT    H5'1  164   5.396   5.506   8.311 -2.0080 -0.2459 -0.2443
    6DT    H5'2  165   5.439   5.444   8.470 -0.0384 -0.0596 -0.9798
    6DT     C4'  166   5.283   5.336   8.366  0.1187  0.4511  0.0444
    6DT     H4'  167   5.211   5.394   8.423  1.4979  1.2823  0.9877
    6DT     O4'  168   5.228   5.311   8.236  0.6561  0.3936 -0.0399
    6DT     C1'  169   5.212   5.177   8.214  0.7082 -0.1041  0.4031
    6DT     H1'  170   5.110   5.144   8.234  0.3213 -0.5805 -2.0318
    6DT      N1  171   5.236   5.171   8.066 -0.1388 -0.2623 -0.4981
    6DT      C6  172   5.369   5.160   8.010 -0.1988 -0.3572  0.3411
    6DT      H6  173   5.455   5.154   8.076  1.0428 -0.3442 -1.2004
    6DT      C5  174   5.377   5.144   7.872  0.2124  0.5059 -0.5998
    6DT      C7  175   5.513   5.143   7.814 -0.2471 -1.0223  0.0701
    6DT     H71  176   5.531   5.039   7.787  1.3666 -0.4666 -1.1621
    6DT     H72  177   5.515   5.198   7.719  1.8542  1.1813  1.2728
    6DT     H73  178   5.585   5.183   7.886  0.3055 -2.6127  0.4304
    6DT      C4  179   5.260   5.136   7.784  0.1584  1.1184  0.1723
    6DT      O4  180   5.265   5.115   7.663 -0.2410 -0.3487  0.4834
    6DT      N3  181   5.141   5.139   7.852  0.4734  0.9728 -0.5870
    6DT      H3  182   5.058   5.142   7.796  1.3939  1.3053 -1.9800
    6DT      C2  183   5.123   5.153   7.987 -0.0426  0.1163 -0.6531
    6DT      O2  184   5.003   5.163   8.036  0.0519 -0.2174 -0.2921
    6DT     C3'  185   5.299   5.207   8.433 -0.6171  0.6059 -0.9800
    6DT     H3'  186   5.390   5.199   8.492 -1.0395 -0.1189 -0.4040
    6DT     C2'  187   5.316   5.116   8.304 -0.0313 -0.6688  0.6174
    6DT    H2'1  188   5.419   5.136   8.276 -0.6198  2.0292  0.1024
    6DT    H2'2  189   5.299   5.011   8.327  0.2955 -0.7708  0.3981
    6DT     O3'  190   5.179   5.177   8.504  0.0553  0.1014  0.0658
    7DT       P  191   5.136   5.036   8.567 -0.2435  0.1512  0.0047
    7DT     O1P  192   5.042   5.073   8.679 -0.7673 -0.1141 -0.1791
    7DT     O2P  193   5.256   4.955   8.593 -0.2765  0.0563 -1.0053
    7DT     O5'  194   5.048   4.966   8.447 -0.1990 -0.6423 -0.0102
    7DT     C5'  195   4.915   5.000   8.423  0.1270 -0.0173  0.7933
    7DT    H5'1  196   4.913   5.109   8.413  2.4768  0.1044  1.1549
    7DT    H5'2  197   4.845   4.985   8.505 -0.8851  2.2676  0.4143
    7DT     C4'  198   4.846   4.946   8.298  0.1619 -0.6942  0.3697
    7DT     H4'  199   4.753   5.002   8.288 -0.2000 -1.0639  1.4959
    7DT     O4'  200   4.941   4.958   8.194 -0.8559  0.4974  0.4561
    7DT     C1'  201   4.944   4.836   8.119 -0.6995 -0.0431 -0.4856
    7DT     H1'  202   4.873   4.834   8.036 -1.1604 -0.2434 -0.0944
    7DT      N1  203   5.082   4.822   8.059 -0.5071  1.1605  0.1677
    7DT      C6  204   5.196   4.821   8.141  0.2819  0.1241 -0.0242
    7DT      H6  205   5.186   4.833   8.248 -0.4668  3.1612 -0.3581
    7DT      C5  206   5.318   4.809   8.085 -0.2163  0.1080 -0.0283
    7DT      C7  207   5.439   4.801   8.174  0.2706  0.1616 -0.1008
    7DT     H71  208   5.417   4.798   8.281  2.6907 -1.1709  0.4470
    7DT     H72  209   5.499   4.719   8.132 -1.7553 -1.1250 -0.6281
    7DT     H73  210   5.507   4.886   8.167  1.1687 -0.4227  1.0841
    7DT      C4  211   5.332   4.805   7.941  0.7178  0.1369  0.1403
    7DT      O4  212   5.433   4.793   7.878  0.4265 -0.1641 -0.4365
    7DT      N3  213   5.218   4.808   7.869 -0.0048 -0.0568  0.2266
    7DT      H3  214   5.237   4.790   7.772 -0.3798  1.9674 -0.2651
    7DT      C2  215   5.092   4.818   7.916  0.1803 -0.6175  0.0698
    7DT      O2  216   5.004   4.842   7.843 -0.0318  0.0457  0.3112
    7DT     C3'  217   4.809   4.803   8.318 -0.6176  0.3847  0.1734
    7DT     H3'  218   4.842   4.775   8.418  0.4485  2.1895  0.3762
    7DT     C2'  219   4.908   4.730   8.223 -0.4876  0.5138 -0.1697
    7DT    H2'1  220   5.000   4.709   8.278  0.8142  1.4637 -1.9069
    7DT    H2'2  221   4.862   4.645   8.173 -0.6643  1.5124 -1.7623
    7DT     O3'  222   4.675   4.775   8.302 -0.2764 -0.0031 -0.3293
    8DT       P  223   4.615   4.630   8.274 -0.1254  0.0623 -0.1248
    8DT     O1P  224   4.478   4.636   8.326  0.1030 -0.6346  0.1560
    8DT     O2P  225   4.709   4.531   8.334 -0.3783  0.0994 -0.3403
    8DT     O5'  226   4.625   4.608   8.113  0.2137 -0.6773 -0.6432
    8DT     C5'  227   4.555   4.680   8.022 -0.2788  0.2516  0.7657
    8DT    H5'1  228   4.556   4.787   8.039 -2.2165  0.2473  1.0817
    8DT    H5'2  229   4.449   4.657   8.034  0.5025 -2.7390  3.2590
    8DT     C4'  230   4.600   4.658   7.877  0.4337  0.5390 -0.5579
    8DT     H4'  231   4.555   4.738   7.819 -1.3038  0.0142 -0.0164
    8DT     O4'  232   4.739   4.658   7.866  0.2154  0.3485 -1.0232
    8DT     C1'  233   4.787   4.543   7.799  0.3434  0.5757  0.4834
    8DT     H1'  234   4.783   4.556   7.691 -0.6725  3.6076  0.7674
    8DT      N1  235   4.926   4.509   7.843 -0.1146 -0.5302 -0.1760
    8DT      C6  236   4.956   4.483   7.974 -1.3567  0.9764  0.0565
    8DT      H6  237   4.878   4.470   8.047 -2.0004 -1.7101 -0.9916
    8DT      C5  238   5.084   4.460   8.020  0.3581 -0.5069  0.2997
    8DT      C7  239   5.110   4.444   8.163  0.2473  0.1666  0.2013
    8DT     H71  240   5.172   4.354   8.166  1.7031  1.0201 -1.8854
    8DT     H72  241   5.167   4.533   8.191 -1.4538  2.1922 -2.3149
    8DT     H73  242   5.018   4.429   8.220 -1.3515  0.0011 -2.2663
    8DT      C4  243   5.198   4.477   7.926 -0.4404  0.0080  0.5372
    8DT      O4  244   5.321   4.466   7.953  0.0239 -0.6364  0.2396
    8DT      N3  245   5.154   4.487   7.788 -0.1612  0.6551 -0.3529
    8DT      H3  246   5.219   4.493   7.711 -1.3127 -2.0785 -1.6806
    8DT      C2  247   5.025   4.514   7.746  0.3936 -0.5027 -0.3524
    8DT      O2  248   5.009   4.560   7.635  0.7149  0.0669  0.0488
    8DT     C3'  249   4.553   4.522   7.833  0.2672 -0.2110  0.1187
    8DT     H3'  250   4.483   4.468   7.897 -1.7151 -0.5270 -2.1593
    8DT     C2'  251   4.682   4.440   7.829 -1.2239 -0.1526  0.1648
    8DT    H2'1  252   4.698   4.389   7.925 -0.7705  2.1219  1.3616
    8DT    H2'2  253   4.675   4.367   7.748  0.4146  2.4698 -2.5149
    8DT     O3'  254   4.493   4.540   7.701  0.5629 -0.1731 -0.2167
    9DT       P  255   4.413   4.415   7.624 -0.4750  0.6178 -0.4179
    9DT     O1P  256   4.322   4.467   7.522  0.2411  0.2671  0.1322
    9DT     O2P  257   4.357   4.335   7.739 -0.0621  0.4310 -0.0529
    9DT     O5'  258   4.535   4.337   7.555  0.0330 -0.3412  0.3487
    9DT     C5'  259   4.622   4.400   7.462  0.2995 -0.4003 -0.0607
    9DT    H5'1  260   4.651   4.500   7.495  1.3837 -0.8016  0.2691
    9DT    H5'2  261   4.570   4.412   7.367 -0.7950  1.1534  0.6820
    9DT     C4'  262   4.743   4.313   7.439  0.6777 -0.3460  0.0798
    9DT     H4'  263   4.807   4.344   7.356  2.4886 -1.2932  1.0602
    9DT     O4'  264   4.824   4.316   7.548 -0.1977 -0.8446  0.5224
    9DT     C1'  265   4.890   4.189   7.547 -0.1155 -0.2486 -0.4133
    9DT     H1'  266   4.950   4.178   7.457 -1.0361 -0.1034 -1.0553
    9DT      N1  267   4.976   4.172   7.667 -0.4767  0.3945  0.0125
    9DT      C6  268   4.926   4.152   7.794  0.1126  0.2145 -0.5337
    9DT      H6  269   4.821   4.175   7.812 -0.7019 -1.6270 -2.5820
    9DT      C5  270   5.005   4.130   7.904 -0.4158  0.3923  0.0559
    9DT      C7  271   4.944   4.124   8.047  0.2598  0.4499 -1.1349
    9DT     H71  272   4.955   4.027   8.095 -3.8696 -1.0602 -2.8352
    9DT     H72  273   4.996   4.198   8.108 -1.1048  0.7908 -0.3575
    9DT     H73  274   4.840   4.154   8.044  0.2582  1.0656  1.8845
    9DT      C4  275   5.149   4.127   7.885 -0.1161 -0.2026  0.7202
    9DT      O4  276   5.240   4.133   7.972 -0.3238  0.1775  0.0202
    9DT      N3  277   5.196   4.140   7.754  0.0221  0.2486  0.4946
    9DT      H3  278   5.297   4.142   7.743  0.0164 -0.7334  0.2212
    9DT      C2  279   5.117   4.167   7.644  0.9053 -0.7432 -0.5462
    9DT      O2  280   5.172   4.176   7.535 -0.5007 -0.0668  0.3285
    9DT     C3'  281   4.705   4.164   7.413  0.3025 -1.0792 -0.2212
    9DT     H3'  282   4.599   4.139   7.411  0.5620 -2.2514  0.1958
    9DT     C2'  283   4.777   4.083   7.527  0.1890  0.1365  0.0029
    9DT    H2'1  284   4.701   4.074   7.605 -0.0966 -2.0291 -0.4607
    9DT    H2'2  285   4.813   3.981   7.509  2.7157  0.6082  1.8355
    9DT     O3'  286   4.767   4.129   7.288  0.0152  0.3533  0.4570
   10DT       P  287   4.764   3.985   7.224 -0.2415 -0.0369 -0.1337
   10DT     O1P  288   4.803   3.999   7.082  0.8366 -0.0297 -0.1115
   10DT     O2P  289   4.632   3.928   7.252 -0.8704  0.6108 -0.5900
   10DT     O5'  290   4.876   3.896   7.294  0.4160  0.0811 -0.2231
   10DT     C5'  291   5.011   3.930   7.281 -1.0316 -0.4189  1.1221
   10DT    H5'1  292   5.014   4.033   7.315 -0.3589 -0.1589  0.3001
   10DT    H5'2  293   5.043   3.925   7.177  0.0653  3.3002  1.1400
   10DT     C4'  294   5.121   3.854   7.356 -0.1773  0.0557 -0.0667
   10DT     H4'  295   5.218   3.894   7.325 -0.6037  1.2166  0.0404
   10DT     O4'  296   5.128   3.873   7.498  0.0923 -0.1422 -0.2514
   10DT     C1'  297   5.160   3.754   7.556  0.4241 -0.1874 -0.4277
   10DT     H1'  298   5.269   3.754   7.547  0.4290 -0.4382 -0.3729
   10DT      N1  299   5.105   3.757   7.698 -0.7990  0.0045 -0.0286
   10DT      C6  300   4.972   3.783   7.728 -0.1327  0.8861  0.8819
   10DT      H6  301   4.905   3.801   7.644  3.3797  2.0273 -1.9014
   10DT      C5  302   4.929   3.789   7.852 -0.4938  0.1277 -0.0803
   10DT      C7  303   4.777   3.809   7.880 -0.2319  0.0252  0.0370
   10DT     H71  304   4.743   3.713   7.918  4.1612 -0.8000  2.4757
   10DT     H72  305   4.753   3.884   7.955  2.3432  2.5248 -1.4324
   10DT     H73  306   4.726   3.831   7.786  0.5802  1.2870 -0.1310
   10DT      C4  307   5.026   3.769   7.963  0.0597 -0.6884  0.3910
   10DT      O4  308   4.995   3.764   8.081  0.1063  0.0275 -0.8111
   10DT      N3  309   5.155   3.745   7.931  0.1697  0.5627 -0.0530
   10DT      H3  310   5.219   3.714   8.002  0.6636  0.8225 -0.3782
   10DT      C2  311   5.207   3.734   7.798  0.5907 -0.5023  0.5561
   10DT      O2  312   5.321   3.706   7.779 -0.0259 -0.1037  0.2897
   10DT     C3'  313   5.131   3.703   7.335  0.1709  0.5547  0.2459
   10DT     H3'  314   5.061   3.671   7.257  0.5431 -2.1720  0.9215
   10DT     C2'  315   5.095   3.646   7.464  0.3715  1.0304  0.5424
   10DT    H2'1  316   4.987   3.643   7.479  0.1137  0.0609 -1.2492
   10DT    H2'2  317   5.129   3.543   7.475  0.0093  0.7879 -0.4788
   10DT     O3'  318   5.267   3.666   7.289  0.0711 -0.5175 -0.2426
   11DT       P  319   5.289   3.530   7.217  0.2193 -0.1574  0.4387
   11DT     O1P  320   5.395   3.540   7.118 -0.5172 -0.0055  0.0212
   11DT     O2P  321   5.160   3.470   7.177 -0.2173  0.4054 -0.3889
   11DT     O5'  322   5.346   3.437   7.328 -0.0622 -0.0042 -0.1484
   11DT     C5'  323   5.460   3.476   7.392 -0.1764 -0.4179 -0.0263
   11DT    H5'1  324   5.477   3.583   7.386 -0.9606 -0.3701 -3.2923
   11DT    H5'2  325   5.542   3.425   7.341  0.8052  1.0528  0.0218
   11DT     C4'  326   5.456   3.412   7.532 -0.9590  0.3403  0.3357
   11DT     H4'  327   5.551   3.438   7.577 -0.7343  0.8340 -0.4079
   11DT     O4'  328   5.342   3.457   7.610 -0.2737  0.7949  0.0246
   11DT     C1'  329   5.302   3.348   7.685 -0.1195 -0.5284  0.7767
   11DT     H1'  330   5.377   3.329   7.761  0.8428  0.7281  0.1707
   11DT      N1  331   5.163   3.359   7.739 -0.3354 -0.6813  0.2817
   11DT      C6  332   5.050   3.362   7.661  0.8516  0.0645  0.6209
   11DT      H6  333   5.048   3.352   7.554 -0.0200 -1.4491  0.7415
   11DT      C5  334   4.929   3.390   7.724 -0.5376  0.5294  0.8104
   11DT      C7  335   4.802   3.394   7.634  0.3456  0.3250 -0.2916
   11DT     H71  336   4.761   3.493   7.656 -0.9877  0.4669 -2.9862
   11DT     H72  337   4.842   3.383   7.533  1.2336 -0.1128  0.0971
   11DT     H73  338   4.736   3.312   7.662  2.1197 -0.6030  1.4274
   11DT      C4  339   4.916   3.403   7.865  0.9169  0.2363 -0.1479
   11DT      O4  340   4.811   3.418   7.930  0.5690  0.0864  0.3471
   11DT      N3  341   5.034   3.406   7.936 -0.0905  0.0068 -0.3524
   11DT      H3  342   5.037   3.415   8.037 -0.0358  2.2872 -0.4889
   11DT      C2  343   5.162   3.392   7.878  0.2336 -0.3920 -0.1458
   11DT      O2  344   5.260   3.409   7.950  0.0985  0.1630  0.2400
   11DT     C3'  345   5.443   3.260   7.528 -0.4500  0.0923  0.7021
   11DT     H3'  346   5.444   3.218   7.427  0.1978  1.7447 -0.0101
   11DT     C2'  347   5.311   3.227   7.588  1.3266 -0.7669  0.3705
   11DT    H2'1  348   5.226   3.235   7.520  1.4513  1.1006  0.3889
   11DT    H2'2  349   5.308   3.132   7.642  0.1631 -1.4902 -0.8988
   11DT     O3'  350   5.539   3.198   7.613 -0.4272 -0.0230  0.0590
   12DT       P  351   5.678   3.149   7.548 -0.1705 -0.2427 -0.2918
   12DT     O1P  352   5.732   3.251   7.453  0.5616  0.4011 -0.3628
   12DT     O2P  353   5.660   3.010   7.501 -0.4446  0.0205 -0.2221
   12DT     O5'  354   5.762   3.141   7.682  0.0179 -0.0110  0.5119
   12DT     C5'  355   5.808   3.261   7.746  0.0492  0.0401  0.3537
   12DT    H5'1  356   5.747   3.346   7.713 -0.8025 -1.5465 -2.5083
   12DT    H5'2  357   5.915   3.271   7.730 -0.0335 -0.4348 -0.5339
   12DT     C4'  358   5.761   3.255   7.895 -0.3382  0.0035  0.7390
   12DT     H4'  359   5.819   3.331   7.949  0.5596 -1.8388  2.5286
   12DT     O4'  360   5.616   3.279   7.912  0.0718  0.0209 -0.1008
   12DT     C1'  361   5.578   3.179   8.001 -0.3257  0.6319  0.2954
   12DT     H1'  362   5.601   3.225   8.097  1.3742  4.6788 -1.8348
   12DT      N1  363   5.432   3.149   8.006 -0.3675 -0.4810  0.4898
   12DT      C6  364   5.372   3.082   7.901  0.3742 -0.7294  0.5158
   12DT      H6  365   5.439   3.069   7.817 -0.7393 -0.5037 -0.4242
   12DT      C5  366   5.244   3.044   7.913  0.0516 -0.3103  0.1111
   12DT      C7  367   5.181   2.972   7.797  0.1897  0.1601  0.2076
   12DT     H71  368   5.257   2.912   7.746  0.9810  1.9382 -0.8007
   12DT     H72  369   5.114   2.896   7.836  0.8002  0.7383  2.5294
   12DT     H73  370   5.136   3.044   7.729  0.4719 -0.7402 -0.9808
   12DT      C4  371   5.157   3.079   8.021 -0.8240  0.2134 -0.1321
   12DT      O4  372   5.042   3.039   8.035  0.0491  0.8093  0.4570
   12DT      N3  373   5.231   3.134   8.127  0.6637  0.3842  0.3140
   12DT      H3  374   5.179   3.170   8.205 -1.3696 -0.1320 -0.7272
   12DT      C2  375   5.360   3.181   8.120  0.3727 -0.5760 -0.8315
   12DT      O2  376   5.397   3.242   8.224  0.2138 -0.0028 -0.3442
   12DT     C3'  377   5.796   3.122   7.964  0.2484  0.1348 -0.2969
   12DT     H3'  378   5.875   3.068   7.912  1.0271 -1.4775  2.3754
   12DT     C2'  379   5.655   3.052   7.975  0.2643 -0.0089  0.0388
   12DT    H2'1  380   5.624   3.009   7.880 -0.4843  0.0636  0.2398
   12DT    H2'2  381   5.648   2.985   8.060  0.0299  0.6890  0.5813
   12DT     O3'  382   5.849   3.153   8.095 -0.3528 -0.0944  0.3232
   13DT       P  383   5.898   3.040   8.196  0.2010 -0.0237 -0.2441
   13DT     O1P  384   5.987   3.097   8.299  0.4987 -0.0645 -0.0824
   13DT     O2P  385   5.939   2.915   8.132 -0.1684 -0.1973 -0.2694
   13DT     O5'  386   5.769   2.995   8.281  0.2965 -0.0759 -0.4968
   13DT     C5'  387   5.697   3.086   8.362  0.8461 -0.2254 -0.4070
   13DT    H5'1  388   5.670   3.171   8.299 -0.0280  0.9653  1.5124
   13DT    H5'2  389   5.769   3.114   8.439  2.5200  0.5587 -2.1678
   13DT     C4'  390   5.569   3.014   8.419 -0.4225  0.0705 -0.0188
   13DT     H4'  391   5.518   3.078   8.491  0.0679 -0.2416  0.6169
   13DT     O4'  392   5.476   2.981   8.315  0.0304 -1.1173  0.0909
   13DT     C1'  393   5.426   2.857   8.348 -0.2984 -0.0724  0.4540
   13DT     H1'  394   5.358   2.866   8.433 -1.1790 -0.5369 -0.1853
   13DT      N1  395   5.360   2.804   8.231 -0.3097 -0.2504  0.4000
   13DT      C6  396   5.434   2.751   8.122 -0.0185 -0.0849  0.8263
   13DT      H6  397   5.542   2.750   8.118  0.0029 -1.2287  1.1977
   13DT      C5  398   5.363   2.704   8.012  0.0455 -0.1182  0.7852
   13DT      C7  399   5.439   2.655   7.897 -1.0445 -0.4356  0.7995
   13DT     H71  400   5.410   2.711   7.808 -1.3596 -2.0703 -0.1530
   13DT     H72  401   5.546   2.664   7.912 -0.6651 -1.1943 -1.2550
   13DT     H73  402   5.426   2.551   7.869  1.0262 -1.1522  2.2384
   13DT      C4  403   5.219   2.698   8.009 -0.4723 -0.1894 -0.0531
   13DT      O4  404   5.155   2.655   7.911 -0.0531 -0.3876  1.1221
   13DT      N3  405   5.158   2.747   8.124  0.6048 -0.0462  0.3676
   13DT      H3  406   5.058   2.753   8.126  0.5205 -1.0863  0.0972
   13DT      C2  407   5.219   2.808   8.236  0.1633  0.3974  0.3308
   13DT      O2  408   5.156   2.852   8.331 -0.4457  0.0051 -0.1546
   13DT     C3'  409   5.601   2.882   8.503  0.2769 -0.3558 -1.2645
   13DT     H3'  410   5.709   2.868   8.504  0.0665 -2.2546 -1.4697
   13DT     C2'  411   5.543   2.781   8.407 -0.2813 -0.3840 -0.2323
   13DT    H2'1  412   5.625   2.745   8.344  1.5536  0.1452  1.7551
   13DT    H2'2  413   5.514   2.690   8.459  1.4513 -0.1864  1.1587
   13DT     O3'  414   5.539   2.877   8.638  0.0548  0.4351 -0.6152
   14DT       P  415   5.516   2.743   8.727  0.1714 -0.2303  0.3426
   14DT     O1P  416   5.474   2.787   8.863 -0.2295 -0.4162 -0.0418
   14DT     O2P  417   5.636   2.658   8.713 -0.1544  0.0023 -0.3279
   14DT     O5'  418   5.396   2.661   8.664  0.5814  0.1799 -0.6674
   14DT     C5'  419   5.258   2.707   8.669 -0.1459 -0.7685  0.2760
   14DT    H5'1  420   5.259   2.803   8.617  1.5429  0.2245  2.0006
   14DT    H5'2  421   5.226   2.729   8.771  0.7900  1.6637  0.1316
   14DT     C4'  422   5.163   2.604   8.608 -0.6412  0.2019  0.3011
   14DT     H4'  423   5.064   2.649   8.606 -0.2280  1.1362 -1.3283
   14DT     O4'  424   5.203   2.578   8.475  0.0408  0.8174  0.6171
   14DT     C1'  425   5.241   2.439   8.456 -0.3858  0.4086 -0.5773
   14DT     H1'  426   5.158   2.385   8.411  0.7184 -0.3696 -1.7584
   14DT      N1  427   5.367   2.414   8.380  0.0390  0.3685  0.1935
   14DT      C6  428   5.487   2.439   8.439 -0.3044  0.5770  0.3018
   14DT      H6  429   5.494   2.477   8.539  0.9602  1.2441 -0.0204
   14DT      C5  430   5.607   2.413   8.371  0.7716 -0.7714 -1.0619
   14DT      C7  431   5.743   2.451   8.442  0.4035 -0.6507  0.5034
   14DT     H71  432   5.734   2.464   8.550 -2.0477  0.1582  0.2713
   14DT     H72  433   5.813   2.369   8.425  1.3463  0.3236 -0.4445
   14DT     H73  434   5.776   2.542   8.393  1.9323 -1.3244  0.2475
   14DT      C4  435   5.598   2.349   8.239  0.1988  0.3666  0.5562
   14DT      O4  436   5.700   2.309   8.174 -0.0295  0.3328  0.4851
   14DT      N3  437   5.475   2.317   8.192 -0.3900 -0.6237  0.5774
   14DT      H3  438   5.473   2.273   8.101  0.8746 -1.0035  0.7196
   14DT      C2  439   5.357   2.364   8.247 -0.0287  0.3296 -0.5435
   14DT      O2  440   5.257   2.365   8.177  0.2067  0.0062 -0.4656
   14DT     C3'  441   5.146   2.462   8.666 -0.2433  0.6828 -0.0091
   14DT     H3'  442   5.159   2.453   8.774 -0.0115 -2.3401 -0.2008
   14DT     C2'  443   5.253   2.382   8.601  0.4782  0.2686  0.2938
   14DT    H2'1  444   5.346   2.397   8.655  1.6264 -0.5793 -1.3757
   14DT    H2'2  445   5.222   2.278   8.598 -0.8768  0.6297  0.9236
   14DT     O3'  446   5.014   2.420   8.646  0.0071  0.1785  0.1983
   15DT       P  447   4.945   2.286   8.701  0.0062 -0.3762 -0.2640
   15DT     O1P  448   4.800   2.314   8.701 -0.6956  0.0452  0.1484
   15DT     O2P  449   5.014   2.257   8.829 -0.3713 -0.5796 -0.0043
   15DT     O5'  450   4.992   2.173   8.601 -0.3346  0.0704 -0.2318
   15DT     C5'  451   4.933   2.167   8.473 -0.5959  0.2762 -0.2461
   15DT    H5'1  452   4.926   2.267   8.431  1.9278  0.4727 -0.3321
   15DT    H5'2  453   4.831   2.128   8.471 -0.4037 -0.1894 -1.9081
   15DT     C4'  454   5.008   2.069   8.384 -0.2253 -0.9606  0.2922
   15DT     H4'  455   4.964   2.063   8.285 -0.0892 -0.1572  0.1768
   15DT     O4'  456   5.142   2.110   8.368  0.2800 -0.1989 -0.3748
   15DT     C1'  457   5.209   1.988   8.354  0.0234  0.1754 -0.1608
   15DT     H1'  458   5.178   1.935   8.264  0.1535 -0.3678  0.1105
   15DT      N1  459   5.355   2.013   8.364 -0.0630  0.4249  0.0078
   15DT      C6  460   5.414   2.051   8.484 -0.3739 -0.0578  0.1773
   15DT      H6  461   5.353   2.086   8.566  2.4991  0.2266  2.3812
   15DT      C5  462   5.543   2.078   8.493 -0.4554 -0.0484  0.3295
   15DT      C7  463   5.608   2.128   8.617  0.0221  0.4360  0.6854
   15DT     H71  464   5.536   2.164   8.691  3.0677  3.4083  2.5138
   15DT     H72  465   5.670   2.049   8.660 -1.3674 -2.7746 -2.6865
   15DT     H73  466   5.673   2.209   8.585  2.1809 -1.2667  0.5136
   15DT      C4  467   5.629   2.048   8.379 -0.0458 -0.0102 -0.3932
   15DT      O4  468   5.750   2.047   8.373 -0.3477 -0.0739  0.2991
   15DT      N3  469   5.570   2.005   8.264 -0.6618  0.2378  0.3420
   15DT      H3  470   5.628   1.970   8.190 -0.1425  1.1332  0.3164
   15DT      C2  471   5.432   1.987   8.249  0.2174  0.0445  0.0543
   15DT      O2  472   5.375   1.957   8.145  0.1956  0.6422 -0.3511
   15DT     C3'  473   5.003   1.926   8.433 -0.2991  0.4639 -0.4156
   15DT     H3'  474   4.945   1.906   8.523  1.2875  1.7390  0.9644
   15DT     C2'  475   5.151   1.904   8.465  0.3950 -0.5184  0.6506
   15DT    H2'1  476   5.172   1.937   8.567  0.2362  0.6070  0.3237
   15DT    H2'2  477   5.180   1.800   8.448  1.0268 -0.5440  1.8002
   15DT     O3'  478   4.951   1.843   8.325 -0.2094  0.2729  0.2703
   16DT       P  479   4.934   1.689   8.355 -0.1066 -0.3318  0.2750
   16DT     O1P  480   4.825   1.637   8.265 -0.2911 -0.5578  0.2292
   16DT     O2P  481   4.921   1.656   8.502 -0.5553 -0.5437  0.5123
   16DT     O5'  482   5.072   1.632   8.307 -0.3633 -0.3784  0.8947
   16DT     C5'  483   5.114   1.643   8.169 -0.2253 -0.1263 -0.1780
   16DT    H5'1  484   5.132   1.748   8.145  1.6102 -0.4921 -0.5554
   16DT    H5'2  485   5.031   1.614   8.105 -2.0444  1.1152  1.5064
   16DT     C4'  486   5.241   1.566   8.133 -0.4920 -0.2172 -0.3165
   16DT     H4'  487   5.252   1.558   8.024  2.7442 -0.5159 -0.0751
   16DT     O4'  488   5.353   1.626   8.195  0.4884  0.1335  0.1566
   16DT     C1'  489   5.426   1.540   8.280  0.5447  0.7180 -0.3686
   16DT     H1'  490   5.493   1.482   8.217 -0.6005  0.3661 -1.2905
   16DT      N1  491   5.500   1.618   8.381  0.1085 -0.1115 -0.6508
   16DT      C6  492   5.440   1.664   8.492 -0.2064 -0.0318 -0.2031
   16DT      H6  493   5.333   1.658   8.505 -0.0328 -0.5286  1.1691
   16DT      C5  494   5.514   1.725   8.589  0.0180 -0.2849  0.3082
   16DT      C7  495   5.438   1.789   8.704  0.2859  0.1423  0.0189
   16DT     H71  496   5.426   1.895   8.680 -2.0495  0.0784  0.6259
   16DT     H72  497   5.340   1.742   8.713 -0.1324  1.2667  2.0600
   16DT     H73  498   5.497   1.779   8.796  0.8594 -0.0739 -0.3688
   16DT      C4  499   5.660   1.748   8.576  0.4904 -0.2619 -0.0238
   16DT      O4  500   5.743   1.799   8.656  0.1715  0.2480 -0.1515
   16DT      N3  501   5.702   1.714   8.448  0.7864 -0.0833 -0.1526
   16DT      H3  502   5.798   1.736   8.425  0.6700 -0.5903 -1.2088
   16DT      C2  503   5.632   1.651   8.351 -0.2036  0.5380 -0.4316
   16DT      O2  504   5.688   1.634   8.245  0.5699  0.5524  0.3463
   16DT     C3'  505   5.232   1.427   8.194 -0.0354  0.1293 -0.1236
   16DT     H3'  506   5.126   1.404   8.208  0.0719 -4.7460 -4.2173
   16DT     C2'  507   5.316   1.442   8.326  0.5024  1.2457 -0.0414
   16DT    H2'1  508   5.253   1.473   8.409 -0.4809 -0.9590  0.1094
   16DT    H2'2  509   5.352   1.344   8.356 -0.4636  1.3048  1.4357
   16DT     O3'  510   5.266   1.329   8.094  0.0791 -0.7407  0.2409
   17DT       P  511   5.260   1.170   8.121  0.1100 -0.4436  0.2342
   17DT     O1P  512   5.249   1.094   7.997 -0.0099  0.1285 -0.3628
   17DT     O2P  513   5.154   1.146   8.221  0.1349 -0.3048 -0.1053
   17DT     O5'  514   5.399   1.138   8.200 -0.0840  0.7630  0.1144
   17DT     C5'  515   5.525   1.131   8.131  0.5640 -0.2347 -0.2625
   17DT    H5'1  516   5.520   1.223   8.071  0.4450 -0.6296 -0.8714
   17DT    H5'2  517   5.540   1.040   8.073 -1.2988  0.0537 -1.2692
   17DT     C4'  518   5.640   1.153   8.222 -0.2387 -0.0684  0.3324
   17DT     H4'  519   5.724   1.191   8.163  0.1517  1.0833  1.5690
   17DT     O4'  520   5.608   1.248   8.328  0.0217  0.4314  0.8695
   17DT     C1'  521   5.687   1.209   8.439  0.1656 -0.0088  0.0637
   17DT     H1'  522   5.792   1.228   8.418 -0.3326  2.7557 -0.1793
   17DT      N1  523   5.632   1.285   8.556  0.7943  0.0436 -0.0424
   17DT      C6  524   5.504   1.268   8.603 -0.2006 -0.5498 -0.5525
   17DT      H6  525   5.438   1.204   8.547 -0.0697 -0.0478 -1.3003
   17DT      C5  526   5.455   1.345   8.708  0.5267  0.5020  0.6307
   17DT      C7  527   5.306   1.343   8.743  0.0763  0.9110  0.0551
   17DT     H71  528   5.261   1.269   8.677  3.1414  1.2597 -2.6592
   17DT     H72  529   5.284   1.337   8.850 -1.2396 -1.9654 -0.2908
   17DT     H73  530   5.277   1.441   8.706 -1.0071  0.0262 -1.5839
   17DT      C4  531   5.542   1.431   8.777 -0.2717 -0.8826 -0.5536
   17DT      O4  532   5.514   1.498   8.878 -0.0625  0.3441  0.2747
   17DT      N3  533   5.676   1.441   8.730  0.2581  0.2187  0.2662
   17DT      H3  534   5.742   1.497   8.782  0.3363  2.1515 -1.7613
   17DT      C2  535   5.715   1.385   8.610  0.3460  0.0082 -1.0077
   17DT      O2  536   5.829   1.413   8.569  0.3853 -0.3221  0.1935
   17DT     C3'  537   5.686   1.022   8.295  0.6790 -0.5848 -0.3138
   17DT     H3'  538   5.619   0.938   8.277 -1.2311  0.5951  0.9164
   17DT     C2'  539   5.655   1.062   8.441  0.0612 -0.0980 -0.2522
   17DT    H2'1  540   5.549   1.046   8.458 -0.2601 -0.0550 -2.0875
   17DT    H2'2  541   5.719   1.016   8.517  1.8199  1.5640 -0.6500
   17DT     O3'  542   5.821   0.998   8.277 -0.6650  0.0526  0.6535
   18DT       P  543   5.903   0.884   8.345  0.3658  0.2047  0.4493
   18DT     O1P  544   6.016   0.859   8.256  0.5144  0.2877  0.7098
   18DT     O2P  545   5.817   0.770   8.375  0.2721  0.0251 -0.4345
   18DT     O5'  546   5.958   0.936   8.478  0.0159 -0.3412 -0.4245
   18DT     C5'  547   6.033   1.050   8.495  0.3135 -0.2559 -0.2778
   18DT    H5'1  548   5.998   1.133   8.433 -0.8536 -0.9026 -0.5083
   18DT    H5'2  549   6.133   1.026   8.460  0.2982 -0.5491 -0.1211
   18DT     C4'  550   6.034   1.092   8.646 -0.4280  0.3076  0.4566
   18DT     H4'  551   6.108   1.168   8.669  0.0856  1.0049 -3.0064
   18DT     O4'  552   5.902   1.137   8.679  0.2234 -0.0718  0.3118
   18DT     C1'  553   5.878   1.090   8.814  0.3087  0.3818 -0.3017
   18DT     H1'  554   5.942   1.144   8.883  1.2619 -1.6392  0.4875
   18DT      N1  555   5.741   1.103   8.864 -0.0782  0.2333  0.0347
   18DT      C6  556   5.636   1.038   8.807 -0.2901 -0.7191  0.1130
   18DT      H6  557   5.659   0.970   8.726  1.3045  2.2919 -2.1818
   18DT      C5  558   5.510   1.059   8.850 -0.9484  0.5309 -0.1666
   18DT      C7  559   5.400   0.976   8.781  0.4133  1.1441  0.0507
   18DT     H71  560   5.368   0.896   8.849  0.0198  1.8094  0.6542
   18DT     H72  561   5.315   1.039   8.757 -1.9497 -1.9270 -0.2117
   18DT     H73  562   5.425   0.930   8.685 -0.0595  0.5620  0.1965
   18DT      C4  563   5.483   1.145   8.967 -0.0598 -1.0104  0.3435
   18DT      O4  564   5.375   1.172   9.018  0.0746  0.5361 -0.1638
   18DT      N3  565   5.595   1.214   9.016  0.1934 -0.7574 -0.3612
   18DT      H3  566   5.581   1.293   9.077 -1.3285 -0.3811 -1.1332
   18DT      C2  567   5.721   1.197   8.972 -0.1874  0.5161  0.2488
   18DT      O2  568   5.811   1.262   9.024 -0.6038 -0.6508 -0.6020
   18DT     C3'  569   6.067   0.969   8.741  0.1106 -0.1210 -0.5286
   18DT     H3'  570   6.105   0.882   8.688 -1.5790 -0.0842 -1.8965
   18DT     C2'  571   5.934   0.947   8.815  0.6849  0.0032 -0.2547
   18DT    H2'1  572   5.878   0.886   8.744  0.4984  1.5241 -1.4446
   18DT    H2'2  573   5.941   0.892   8.910  3.4258 -0.5192 -0.6795
   18DT     O3'  574   6.164   1.014   8.834  0.6038  0.3735 -0.0089
   19DT       P  575   6.265   0.921   8.917  0.4794  0.1300  0.0659
   19DT     O1P  576   6.400   0.969   8.899 -0.2047 -0.9327  0.1625
   19DT     O2P  577   6.225   0.785   8.884 -0.1073  0.0856 -0.2135
   19DT     O5'  578   6.215   0.952   9.067 -0.5925  0.1493 -0.2283
   19DT     C5'  579   6.210   1.081   9.128 -0.1544 -0.6181  0.0427
   19DT    H5'1  580   6.202   1.155   9.048  0.6238  1.8660  2.0900
   19DT    H5'2  581   6.308   1.091   9.175 -0.7495  1.8879  0.9044
   19DT     C4'  582   6.105   1.093   9.236  0.2233  0.1517 -0.2696
   19DT     H4'  583   6.103   1.192   9.280  1.8055 -0.4465  1.2554
   19DT     O4'  584   5.970   1.058   9.192  0.4392 -0.1863  0.1675
   19DT     C1'  585   5.893   1.017   9.311  0.0964 -0.1137 -0.0598
   19DT     H1'  586   5.886   1.106   9.374  0.1386  0.6996 -1.1797
   19DT      N1  587   5.766   0.967   9.262  0.0616  0.2369 -0.6367
   19DT      C6  588   5.761   0.866   9.166 -0.2674 -0.8708 -0.2919
   19DT      H6  589   5.856   0.837   9.124 -0.4760 -1.8726 -0.0987
   19DT      C5  590   5.645   0.815   9.116  0.5565  0.2203  0.2781
   19DT      C7  591   5.649   0.718   9.005 -0.0947 -0.5117  0.5426
   19DT     H71  592   5.749   0.700   8.967  0.5208  2.1905  0.6549
   19DT     H72  593   5.630   0.623   9.055 -0.4157 -0.7121  0.0548
   19DT     H73  594   5.572   0.742   8.931 -0.4205 -0.0122  1.0370
   19DT      C4  595   5.521   0.863   9.171  0.0443  0.2920 -0.0062
   19DT      O4  596   5.407   0.831   9.144  0.0917  0.3582  0.1332
   19DT      N3  597   5.538   0.958   9.270  0.5455 -0.3231  0.0142
   19DT      H3  598   5.455   1.001   9.310  1.2620  2.1364 -0.9644
   19DT      C2  599   5.650   1.023   9.313 -0.3674  0.4349 -0.0868
   19DT      O2  600   5.652   1.097   9.410 -0.0008 -0.7316 -0.4690
   19DT     C3'  601   6.127   0.984   9.346 -0.3686 -0.1059  0.1579
   19DT     H3'  602   6.186   0.905   9.299  1.4080  0.8639  0.6812
   19DT     C2'  603   5.995   0.914   9.366 -0.4511  0.0622  0.2089
   19DT    H2'1  604   5.986   0.824   9.304  1.7704 -0.7920  1.0475
   19DT    H2'2  605   5.981   0.887   9.471  1.0064 -1.7355 -0.0208
   19DT     O3'  606   6.195   1.033   9.455 -0.0845 -0.4530 -0.3570
   20DT3      P  607   6.283   0.939   9.547 -0.6013 -0.4044  0.1558
   20DT3    O1P  608   6.404   1.011   9.598 -0.3381  0.0356 -0.0359
   20DT3    O2P  609   6.298   0.802   9.489  0.5002  0.1182  0.2922
   20DT3    O5'  610   6.201   0.919   9.677 -0.6909  0.6007 -0.4099
   20DT3    C5'  611   6.163   1.029   9.761  0.0380  0.5152  0.1983
   20DT3   H5'1  612   6.130   1.114   9.701  1.9005  0.8107 -0.4935
   20DT3   H5'2  613   6.251   1.053   9.822 -1.9582 -0.5024  3.7259
   20DT3    C4'  614   6.035   0.992   9.842  0.6018 -0.9421 -0.1400
   20DT3    H4'  615   6.006   1.080   9.900  3.0811 -0.1491 -0.0122
   20DT3    O4'  616   5.926   0.967   9.754  0.1720  0.5047 -0.4588
   20DT3    C1'  617   5.852   0.865   9.810 -0.5506  0.1901  0.1227
   20DT3    H1'  618   5.783   0.906   9.884  1.1060  2.7228  0.3992
   20DT3     N1  619   5.767   0.792   9.704 -0.8303 -0.0634  0.1612
   20DT3     C6  620   5.829   0.705   9.618 -0.4735  0.1040  0.7653
   20DT3     H6  621   5.928   0.664   9.632 -1.2814 -1.8461  0.9995
   20DT3     C5  622   5.758   0.653   9.513  0.5622  0.1661 -0.6509
   20DT3     C7  623   5.814   0.558   9.421  0.6713  0.4746  0.5181
   20DT3    H71  624   5.919   0.573   9.396  1.0294 -1.2945  0.8206
   20DT3    H72  625   5.807   0.455   9.457 -1.3837  0.7583  1.0366
   20DT3    H73  626   5.759   0.564   9.327 -0.3800  1.7167  1.1786
   20DT3     C4  627   5.615   0.699   9.492 -0.4237  0.3345 -0.1160
   20DT3     O4  628   5.538   0.665   9.405  0.0124  0.1584  0.1156
   20DT3     N3  629   5.568   0.784   9.589  0.0424 -0.1668  0.8892
   20DT3     H3  630   5.470   0.807   9.600 -0.3571 -0.8280 -0.9837
   20DT3     C2  631   5.640   0.837   9.690  0.5101  0.1199 -0.0116
   20DT3     O2  632   5.587   0.925   9.757  0.5138  0.2131  0.4862
   20DT3    C3'  633   6.051   0.878   9.936 -0.3190  0.5448  0.2870
   20DT3    H3'  634   6.153   0.840   9.944 -0.6473 -0.2203  1.0397
   20DT3    C2'  635   5.950   0.773   9.887 -1.0153 -0.4875  0.0087
   20DT3   H2'1  636   6.005   0.695   9.834  2.1009 -0.1100  2.3929
   20DT3   H2'2  637   5.902   0.724   9.971  2.5045 -0.8032  2.0465
   20DT3    O3'  638   6.005   0.916  10.062  0.1144 -0.5127 -0.2717
   20DT3    H3T  639   6.001   0.836  10.116 -1.2225  0.1398  0.6430
   21SOL     OW  640   3.569   1.049   7.415 -0.7586 -0.4671 -0.2655
   21SOL    HW1  641   3.590   1.127   7.363 -1.9276 -0.7980 -1.2920
   21SOL    HW2  642   3.586   0.975   7.355  1.9836 -1.1841  1.2170
   22SOL     OW  643   5.535   1.245   2.428 -0.0735  0.5951 -0.0274
   22SOL    HW1  644   5.442   1.253   2.407  0.0340  2.6241  0.0652
   22SOL    HW2  645   5.539   1.255   2.523  0.2385  0.5183 -0.0311
   23SOL     OW  646   7.473   8.241   1.536 -0.0304  0.4989 -0.2821
   23SOL    HW1  647   7.530   8.272   1.465  1.3027 -0.7319  0.1948
   23SOL    HW2  648   7.413   8.314   1.553  1.1155  1.6809 -1.1151
   24SOL     OW  649   0.550   0.413   4.132 -0.0305  0.3733  0.0660
   24SOL    HW1  650   0.519   0.482   4.190 -0.4709 -0.4731  0.8717
   24SOL    HW2  651   0.533   0.445   4.044  2.3789  2.5246  0.2552
   25SOL     OW  652   4.056   8.059   3.927 -0.2103 -0.6593  0.4992
   25SOL    HW1  653   3.998   8.068   3.852 -0.2794  1.7178  0.7513
   25SOL    HW2  654   4.138   8.101   3.898  0.8874 -2.5824  0.6791
   26SOL     OW  655   4.986   3.443   2.869  0.5741  0.0668  0.1269
   26SOL    HW1  656   4.934   3.385   2.813  0.1312 -0.3133  0.9106
   26SOL    HW2  657   5.075   3.407   2.864  0.5645  0.1040 -0.4063
   27SOL     OW  658   1.119   4.193   6.294 -0.2635  0.1005 -0.1435
   27SOL    HW1  659   1.084   4.254   6.358  0.3923 -0.4191  0.7283
   27SOL    HW2  660   1.160   4.124   6.346  1.0046  0.0898 -1.1104
   28SOL     OW  661   0.701   7.206   2.437 -0.1826  0.3769 -0.2612
   28SOL    HW1  662   0.795   7.196   2.420 -0.7184  1.1554 -5.1257
   28SOL    HW2  663   0.660   7.140   2.382 -2.4945  2.4802 -1.2597
   29SOL     OW  664   6.859   1.388   0.080  0.0653  0.6865 -0.2609
   29SOL    HW1  665   6.937   1.360   0.128  0.0302  1.4691  0.2624
   29SOL    HW2  666   6.843   1.317   0.018  1.0202  0.3815 -0.1755
   30SOL     OW  667   1.078   6.607   9.531 -0.0310 -0.5596  0.5509
   30SOL    HW1  668   1.148   6.638   9.589 -0.7801 -0.9187  1.6924
   30SOL    HW2  669   1.013   6.678   9.531 -0.6726 -1.1160  1.3020
   31SOL     OW  670   1.547   7.788   8.026 -0.0032  0.1193  0.5813
   31SOL    HW1  671   1.500   7.705   8.026  1.3084 -0.6549  1.1891
   31SOL    HW2  672   1.546   7.816   7.934 -0.4542 -0.5681  0.3731
   32SOL     OW  673   0.430   8.500   9.382 -0.7751 -0.1527  0.4837
   32SOL    HW1  674   0.380   8.433   9.336 -1.1971  0.7107 -0.3388
   32SOL    HW2  675   0.518   8.495   9.343 -1.2563  0.9121 -0.8421
   33SOL     OW  676   1.340   0.802   7.999 -0.4067  0.2933  0.1755
   33SOL    HW1  677   1.255   0.801   7.956  0.3335  3.5962 -1.7330
   33SOL    HW2  678   1.391   0.735   7.952 -1.6981 -1.3455  1.0003
   34SOL     OW  679   1.175   1.000   5.068 -0.3006 -0.2471  0.5385
   34SOL    HW1  680   1.174   0.917   5.020 -0.4461  0.0103  0.0914
   34SOL    HW2  681   1.205   0.976   5.155 -1.2925 -0.9448  0.7177
   35SOL     OW  682   6.438   4.300   0.533  0.2545  0.3737 -0.1574
   35SOL    HW1  683   6.366   4.363   0.533  0.2241  0.3401 -0.4687
   35SOL    HW2  684   6.412   4.234   0.468  0.3296  0.0898  0.0976
   36SOL     OW  685   4.399   6.703   6.669 -0.0712 -0.6870 -0.3668
   36SOL    HW1  686   4.374   6.784   6.713 -0.7132 -0.7302 -0.6300
   36SOL    HW2  687   4.317   6.653   6.665  0.0342 -0.7974 -1.3600
   37SOL     OW  688   3.913   6.676   0.883 -0.3361 -0.0181 -0.4765
   37SOL    HW1  689   3.918   6.685   0.978  1.4848 -1.0690 -0.4296
   37SOL    HW2  690   3.968   6.746   0.849 -0.6669  0.1080 -0.7648
   38SOL     OW  691   8.265   2.540   1.419 -0.0274 -0.2225 -0.1291
   38SOL    HW1  692   8.209   2.475   1.462 -0.6441  0.8713  0.7693
   38SOL    HW2  693   8.236   2.624   1.454  1.6098  0.4471 -0.2860
   39SOL     OW  694   2.801   8.377   2.378 -0.1736 -0.5163  0.5164
   39SOL    HW1  695   2.730   8.440   2.364  0.2488 -0.2442 -0.5036
   39SOL    HW2  696   2.854   8.415   2.447 -0.3714 -0.1418  0.4627
   40SOL     OW  697   4.749   8.610   9.615  0.1461 -0.9195 -0.2187
   40SOL    HW1  698   4.804   8.531   9.618  2.1253  0.3957 -0.1973
   40SOL    HW2  699   4.723   8.617   9.524  0.5135 -1.2344 -0.3512
   41SOL     OW  700   8.520   3.481   1.965 -0.3261 -0.1579  0.4082
   41SOL    HW1  701   8.602   3.496   1.919 -0.3979 -0.2732  0.2446
   41SOL    HW2  702   8.453   3.521   1.909 -0.1753  1.8235  1.5231
   42SOL     OW  703   9.530   3.292   9.906 -0.1499  0.0187  0.0544
   42SOL    HW1  704   9.574   3.231   9.966 -1.0203  0.9375  1.7145
   42SOL    HW2  705   9.537   3.251   9.820  0.9035 -1.5082  0.8231
   43SOL     OW  706   4.070   4.332   3.313 -0.1881 -0.3233  0.0294
   43SOL    HW1  707   3.979   4.314   3.291 -0.3059  2.3418 -2.1111
   43SOL    HW2  708   4.120   4.269   3.260 -0.7280  0.5438 -1.5551
   44SOL     OW  709   8.928   9.512   3.273 -0.4344  0.4670  0.1057
   44SOL    HW1  710   8.978   9.443   3.316 -1.7351 -0.2305  0.5341
   44SOL    HW2  711   8.940   9.495   3.179 -1.1736 -0.6857  0.2028
   45SOL     OW  712   8.125   2.212   8.288 -0.1101 -0.2902  0.3493
   45SOL    HW1  713   8.166   2.253   8.212  0.3887 -0.2908  0.6109
   45SOL    HW2  714   8.195   2.159   8.326 -0.3601 -0.3025  0.7929
   46SOL     OW  715   6.532   6.798   0.707 -0.0397  0.4355 -0.4339
   46SOL    HW1  716   6.462   6.863   0.716  1.1610  1.5407  2.0761
   46SOL    HW2  717   6.510   6.730   0.771  0.5886  0.1984 -0.4644
   47SOL     OW  718   3.150   3.968   6.609 -0.2893  0.2319 -0.5697
   47SOL    HW1  719   3.111   3.911   6.543 -0.8423  0.3229 -0.3223
   47SOL    HW2  720   3.156   3.914   6.687  0.1818  0.1858 -0.6349
   48SOL     OW  721   2.244   6.918   8.825  0.1085 -0.4212 -0.4380
   48SOL    HW1  722   2.210   6.992   8.875 -0.4918 -0.3863 -0.9010
   48SOL    HW2  723   2.327   6.896   8.869 -0.0678  0.0557  0.1427
   49SOL     OW  724   5.657   6.059   0.639  0.0346 -0.3519 -0.7582
   49SOL    HW1  725   5.616   6.079   0.555 -0.3031 -0.1370 -0.5444
   49SOL    HW2  726   5.712   5.983   0.621 -1.9299 -1.8803 -0.6456
   50SOL     OW  727   4.370   2.279   0.968  0.6712 -0.3243  0.2616
   50SOL    HW1  728   4.438   2.347   0.972  0.1388  0.2648 -0.4549
   50SOL    HW2  729   4.346   2.263   1.059 -0.0463  1.3317  0.3953
   51SOL     OW  730   4.529   2.492   0.707  0.0478  0.1295 -0.1043
   51SOL    HW1  731   4.465   2.535   0.763  0.2716  1.3484 -0.7315
   51SOL    HW2  732   4.478   2.434   0.651 -0.3850  0.3008  0.1114
   52SOL     OW  733   6.644   7.772   8.793  0.2346  0.0690 -0.3220
   52SOL    HW1  734   6.637   7.864   8.768 -0.9265 -0.3560 -1.7125
   52SOL    HW2  735   6.556   7.748   8.822  0.5448 -0.5872  0.1016
   53SOL     OW  736   0.637   9.761   1.406 -0.0550  0.2336  0.0007
   53SOL    HW1  737   0.559   9.706   1.406  0.3976 -0.4593 -1.3607
   53SOL    HW2  738   0.673   9.751   1.494 -0.5723 -0.7992  0.1098
   54SOL     OW  739   7.651   6.600   4.742 -0.1166 -0.0864 -0.6823
   54SOL    HW1  740   7.631   6.664   4.810  0.2792 -0.5017 -0.1704
   54SOL    HW2  741   7.625   6.516   4.779  1.0542 -0.4414 -0.6340
   55SOL     OW  742   0.863   4.827   6.586  0.4173  0.1530  0.0916
   55SOL    HW1  743   0.778   4.784   6.588  0.0164  0.8204 -1.4182
   55SOL    HW2  744   0.919   4.768   6.536  0.3652  0.5186 -0.4044
   56SOL     OW  745   8.812   4.654   0.754 -0.5535  0.1855  0.7102
   56SOL    HW1  746   8.765   4.652   0.671  0.4142  0.2758  0.1466
   56SOL    HW2  747   8.782   4.576   0.800 -1.0550  0.1060  0.2639
   57SOL     OW  748   6.401   0.610   5.688  0.5715 -0.0789  0.6088
   57SOL    HW1  749   6.419   0.696   5.649 -0.0171 -0.4005 -0.4112
   57SOL    HW2  750   6.458   0.550   5.640  0.3208 -0.3935  0.7042
   58SOL     OW  751   2.149   1.569   9.903  0.4264 -0.0681  0.0367
   58SOL    HW1  752   2.069   1.596   9.947 -0.0033 -0.3381 -0.5675
   58SOL    HW2  753   2.182   1.649   9.862 -1.0972 -0.4770 -2.1482
   59SOL     OW  754   8.294   6.288   5.168 -0.4141 -0.0518 -1.0770
   59SOL    HW1  755   8.279   6.194   5.154 -0.8342 -0.0460 -0.6633
   59SOL    HW2  756   8.378   6.292   5.215 -0.8112 -0.2656 -0.3448
   60SOL     OW  757   8.229   6.332   5.854  0.3408 -0.0208 -0.6382
   60SOL    HW1  758   8.255   6.309   5.765  0.1492  0.6320 -0.8685
   60SOL    HW2  759   8.295   6.292   5.910 -0.1840 -1.4644 -0.9906
   61SOL     OW  760   1.150   3.952   1.524  0.0476 -0.5275 -0.3903
   61SOL    HW1  761   1.092   4.019   1.561  0.9028 -0.3936  0.7564
   61SOL    HW2  762   1.093   3.900   1.468 -1.2442 -0.5353  0.8775
   62SOL     OW  763   2.359   3.892   9.133 -0.2770 -0.0784 -0.0513
   62SOL    HW1  764   2.356   3.873   9.039 -0.8567 -0.3852  0.0232
   62SOL    HW2  765   2.449   3.871   9.159 -0.6023 -1.7904 -0.1816
   63SOL     OW  766   0.468   9.827   3.891  0.2720 -0.2459  0.4532
   63SOL    HW1  767   0.532   9.812   3.961  0.1945 -1.2140  0.3302
   63SOL    HW2  768   0.387   9.787   3.923  0.3028 -0.9401 -0.2835
   64SOL     OW  769   9.444   4.290   3.862  0.5682 -0.0951  0.4991
   64SOL    HW1  770   9.507   4.343   3.911  1.0652 -1.4615  1.4189
   64SOL    HW2  771   9.390   4.248   3.930  1.5430 -2.3705 -0.0512
   65SOL     OW  772   3.845   4.215   1.784  0.6770 -0.2503  0.6625
   65SOL    HW1  773   3.751   4.228   1.799  0.5251  0.4861 -0.7362
   65SOL    HW2  774   3.887   4.289   1.827  0.1928  2.3300 -2.8038
   66SOL     OW  775   8.689   3.738   0.669 -0.0860 -0.0075  0.5178
   66SOL    HW1  776   8.610   3.771   0.628  0.7354  0.9263 -0.3689
   66SOL    HW2  777   8.696   3.787   0.751  0.3411  1.0076 -0.1004
   67SOL     OW  778   5.944   4.608   0.517 -0.5814  0.2080 -0.1189
   67SOL    HW1  779   5.992   4.688   0.496 -0.4037  0.2055  0.2618
   67SOL    HW2  780   5.964   4.548   0.446  0.9045 -0.1885  0.5918
   68SOL     OW  781   0.278   0.330   4.773 -0.4083 -0.2150 -0.0929
   68SOL    HW1  782   0.279   0.246   4.727  1.9757 -0.9630  1.2010
   68SOL    HW2  783   0.341   0.321   4.843  0.7285  3.0071 -0.5141
   69SOL     OW  784   8.341   9.630   7.350 -0.2757 -0.1767 -0.3858
   69SOL    HW1  785   8.295   9.666   7.274  0.6518  0.4854 -0.6596
   69SOL    HW2  786   8.304   9.676   7.425  0.0996  0.5577 -0.6301
   70SOL     OW  787   4.942   1.702   0.923 -0.2820 -0.2813 -0.3370
   70SOL    HW1  788   4.918   1.742   1.006 -0.6697 -1.3489  0.0865
   70SOL    HW2  789   5.036   1.685   0.930  0.2862  2.0510 -1.1998
   71SOL     OW  790   3.160   3.225   7.756 -0.3689  0.0249 -0.4252
   71SOL    HW1  791   3.154   3.320   7.762 -0.2950  0.0108 -0.1178
   71SOL    HW2  792   3.069   3.196   7.752 -0.3847  0.2149 -2.3556
   72SOL     OW  793   2.480   5.685   3.647  0.3246  0.4916  0.0256
   72SOL    HW1  794   2.529   5.759   3.681 -0.5174  0.6659  0.9090
   72SOL    HW2  795   2.434   5.720   3.570  0.0682  0.8532  0.3370
   73SOL     OW  796   7.221   9.589   0.921 -0.5254  0.4126  0.0496
   73SOL    HW1  797   7.184   9.676   0.903 -0.1097  0.4114 -0.8787
   73SOL    HW2  798   7.194   9.536   0.845 -0.2032 -0.0851  0.2793
   74SOL     OW  799   3.042   3.745   8.425 -0.0690 -0.0726 -0.0096
   74SOL    HW1  800   3.055   3.840   8.434 -1.8877  0.0811  1.6606
   74SOL    HW2  801   3.030   3.731   8.332 -0.9839  1.5266 -0.1659
   75SOL     OW  802   7.344   0.657   7.853  0.2193  0.6463 -0.1458
   75SOL    HW1  803   7.416   0.596   7.867  0.1488  0.2145 -1.5222
   75SOL    HW2  804   7.308   0.672   7.940  2.0461  0.9983  0.5919
   76SOL     OW  805   1.545   0.611   9.198  0.1121  0.8252  0.2088
   76SOL    HW1  806   1.599   0.688   9.176  1.3023  0.2052  0.8684
   76SOL    HW2  807   1.583   0.579   9.280 -1.8545  0.8883  1.1808
   77SOL     OW  808   9.537   8.831   6.431 -0.3179 -0.1831 -0.3730
   77SOL    HW1  809   9.599   8.805   6.363 -1.0267  0.7304 -1.3927
   77SOL    HW2  810   9.580   8.905   6.474 -0.1486 -0.3600 -0.2337
   78SOL     OW  811   3.170   8.115   2.280 -0.6891  0.0988 -0.1229
   78SOL    HW1  812   3.244   8.080   2.231 -0.3751 -0.7058  0.8729
   78SOL    HW2  813   3.203   8.124   2.370 -2.1583 -1.5630  0.6422
   79SOL     OW  814   8.657   5.394   5.811  0.1323 -0.5958 -0.1201
   79SOL    HW1  815   8.687   5.415   5.722  1.6700 -0.8543  0.3249
   79SOL    HW2  816   8.580   5.450   5.823 -0.1000 -0.5518 -1.6042
   80SOL     OW  817   9.832   4.550   5.681 -0.3167 -0.5646 -0.0541
   80SOL    HW1  818   9.738   4.563   5.665 -0.1452 -0.6896 -1.2823
   80SOL    HW2  819   9.869   4.534   5.594  1.0621  0.7726  0.2371
   81SOL     OW  820   6.647   6.636   7.106 -0.4124 -0.1585 -0.6244
   81SOL    HW1  821   6.599   6.618   7.187 -0.9448  0.8009 -0.7110
   81SOL    HW2  822   6.739   6.634   7.132 -0.5982  0.7809  0.1565
   82SOL     OW  823   4.255   6.869   4.225  0.2937 -0.0737 -0.1147
   82SOL    HW1  824   4.230   6.908   4.309 -1.2108 -0.6059 -0.2968
   82SOL    HW2  825   4.322   6.928   4.190  0.3916  0.5605  1.0954
   83SOL     OW  826   3.850   3.026   8.197  0.2407  0.0533  0.0469
   83SOL    HW1  827   3.765   3.047   8.159 -0.1860 -1.1141  0.3016
   83SOL    HW2  828   3.876   3.105   8.244 -0.0970  0.8574 -1.0879
   84SOL     OW  829   4.298   8.438   1.167 -0.5861  0.1303  0.0657
   84SOL    HW1  830   4.280   8.532   1.171  0.9602  0.5748 -1.7755
   84SOL    HW2  831   4.258   8.402   1.246 -1.4702  2.2851  0.6604
   85SOL     OW  832   6.881   3.263   4.251 -0.5307  0.1937  0.2020
   85SOL    HW1  833   6.938   3.214   4.309  1.2364  2.3548  0.4247
   85SOL    HW2  834   6.799   3.214   4.250  0.6100 -1.8615  1.5784
   86SOL     OW  835   2.511   9.538   4.232  0.2626 -0.7608 -0.2360
   86SOL    HW1  836   2.523   9.571   4.143 -3.2094  0.9759 -0.2461
   86SOL    HW2  837   2.452   9.601   4.273  3.7768  0.1151  4.3406
   87SOL     OW  838   7.241   4.372   2.824 -0.0897 -0.3887 -0.0877
   87SOL    HW1  839   7.230   4.278   2.842  1.0649 -0.8201 -1.4310
   87SOL    HW2  840   7.336   4.386   2.828 -0.3159  0.9671  1.1292
   88SOL     OW  841   7.815   1.776   7.130 -0.5162  0.3381 -0.2046
   88SOL    HW1  842   7.844   1.717   7.061  1.7877  0.4505  0.5784
   88SOL    HW2  843   7.841   1.732   7.211 -0.0430  1.7605  0.4480
   89SOL     OW  844   0.287   0.041   1.740 -0.4513  0.2538 -0.2962
   89SOL    HW1  845   0.296   0.115   1.799  0.2523  1.7993 -2.2231
   89SOL    HW2  846   0.371   0.035   1.696 -1.1985 -0.2967 -1.7234
   90SOL     OW  847   1.222   5.735   8.458 -0.0403  0.2817  0.2757
   90SOL    HW1  848   1.239   5.806   8.519  0.4961  0.7228 -0.3823
   90SOL    HW2  849   1.271   5.660   8.493  0.8278  0.7195  0.0265
   91SOL     OW  850   5.021   9.630   5.874  0.3460 -0.7545  0.5619
   91SOL    HW1  851   4.982   9.641   5.961  0.8893  0.2588  0.6993
   91SOL    HW2  852   4.948   9.611   5.816 -0.0056 -1.5675  1.2675
   92SOL     OW  853   1.578   7.821   6.830 -0.5456  0.1745  0.3023
   92SOL    HW1  854   1.641   7.817   6.758 -0.8499  0.3488  0.0205
   92SOL    HW2  855   1.529   7.902   6.815 -0.2875  0.4689  0.9908
   93SOL     OW  856   8.322   6.614   6.052 -0.3966 -0.0978  0.2612
   93SOL    HW1  857   8.269   6.648   5.980 -0.9637  1.3027  1.2836
   93SOL    HW2  858   8.405   6.589   6.012 -1.7035 -2.2588 -1.3888
   94SOL     OW  859   5.272   5.745   8.744 -0.0576  0.0196  0.3118
   94SOL    HW1  860   5.301   5.791   8.666 -0.0453  1.3798  1.0786
   94SOL    HW2  861   5.191   5.789   8.769 -0.6261 -1.0967  0.4718
   95SOL     OW  862   9.981   9.343   9.236 -0.0739  0.5207  0.2795
   95SOL    HW1  863  10.029   9.325   9.155  0.1164  2.2042 -0.0280
   95SOL    HW2  864   9.890   9.352   9.208  0.0599  1.5910  0.1508
   96SOL     OW  865   2.699   4.733   1.172 -0.1530  0.3133  0.4753
   96SOL    HW1  866   2.732   4.662   1.117  0.6599  0.2143  1.0753
   96SOL    HW2  867   2.701   4.810   1.115 -0.3626 -0.0030  0.0347
   97SOL     OW  868   9.754   0.684   7.473 -0.0653  0.7654 -0.0944
   97SOL    HW1  869   9.816   0.661   7.404 -2.2416 -1.7561 -1.4068
   97SOL    HW2  870   9.687   0.737   7.429  0.2583  2.1118  0.9423
   98SOL     OW  871   9.696   7.560   8.882  0.5416 -0.0348  0.6125
   98SOL    HW1  872   9.630   7.500   8.847  1.7133  0.3520 -2.6212
   98SOL    HW2  873   9.764   7.503   8.917  0.7109 -0.5807 -0.5637
   99SOL     OW  874   8.235   8.567   2.465  0.2237 -0.1110 -0.0130
   99SOL    HW1  875   8.210   8.633   2.401  0.5970 -0.4713 -0.5378
   99SOL    HW2  876   8.153   8.544   2.510  0.1890  1.1544  0.6176
  100SOL     OW  877   0.581   9.984   4.544 -0.3038 -0.4207 -0.5147
  100SOL    HW1  878   0.515  10.042   4.506  0.7095 -0.1000 -1.8674
  100SOL    HW2  879   0.550   9.896   4.523 -0.3409 -0.2761 -1.0789
  101SOL     OW  880   5.898   0.436   4.025 -0.0100 -0.5416 -0.0212
  101SOL    HW1  881   5.889   0.412   3.933  1.0786  0.1002 -0.3093
  101SOL    HW2  882   5.956   0.369   4.062 -1.6356 -1.6739  0.5856
  102SOL     OW  883   2.720   5.703   3.056  0.1646  0.4043  0.3413
  102SOL    HW1  884   2.702   5.641   2.986 -0.4206  1.2470 -0.2816
  102SOL    HW2  885   2.702   5.654   3.136  0.8829 -0.5821 -0.0799
  103SOL     OW  886   6.725   9.431   7.558 -0.4677  0.0969  0.1195
  103SOL    HW1  887   6.815   9.401   7.543 -0.3681  0.8390 -0.9122
  103SOL    HW2  888   6.692   9.375   7.627  0.2615 -1.2799 -0.6029
  104SOL     OW  889   8.891   6.777   9.594  0.2516 -0.3656  0.9643
  104SOL    HW1  890   8.886   6.872   9.584 -2.5225 -0.4906  0.4007
  104SOL    HW2  891   8.917   6.764   9.685 -0.2077  0.9365  1.3050
  105SOL     OW  892   3.388   4.122   6.650  0.7681  0.4883 -0.4308
  105SOL    HW1  893   3.419   4.059   6.716  1.1986  1.8705  0.7347
  105SOL    HW2  894   3.298   4.096   6.633  1.1645 -0.9093 -0.5605
  106SOL     OW  895   0.485   6.733   5.644  0.2599 -0.5040  0.2363
  106SOL    HW1  896   0.557   6.705   5.587  0.0838 -2.1334  0.7661
  106SOL    HW2  897   0.527   6.753   5.727  0.3955  0.9480 -0.1663
  107SOL     OW  898   2.619   2.104   7.647 -0.3633 -0.1311  0.5922
  107SOL    HW1  899   2.679   2.118   7.574 -3.0806  0.3497 -1.7829
  107SOL    HW2  900   2.625   2.010   7.665  0.4838 -0.2374 -0.1559
  108SOL     OW  901   7.431   8.955   0.232 -0.5377  0.7373  0.3385
  108SOL    HW1  902   7.503   8.988   0.286  1.5505 -1.7038 -0.7690
  108SOL    HW2  903   7.429   9.015   0.157  1.2880  0.0756 -0.2782
  109SOL     OW  904   9.064   6.249   2.616  0.3494 -0.0391 -0.1620
  109SOL    HW1  905   9.128   6.300   2.566 -0.3589  0.8957 -0.1295
  109SOL    HW2  906   9.050   6.170   2.563  2.0871 -0.6393  0.1996
  110SOL     OW  907   9.827   6.905   0.562  0.5193 -0.3461  0.0311
  110SOL    HW1  908   9.873   6.864   0.635 -1.0783 -1.6562  0.3730
  110SOL    HW2  909   9.894   6.953   0.514  1.8710 -0.7076  1.5039
  111SOL     OW  910   7.044   0.955   7.779 -0.0417  0.5021 -0.2870
  111SOL    HW1  911   7.074   1.045   7.775  0.1364  0.4088 -2.1294
  111SOL    HW2  912   6.989   0.951   7.857 -1.9142  2.8060 -1.3641
  112SOL     OW  913   7.026   5.853   4.630  0.2399  1.1211  0.4895
  112SOL    HW1  914   6.992   5.777   4.583  2.3564 -1.6574  3.0585
  112SOL    HW2  915   6.947   5.899   4.660 -1.1115  0.2977 -1.5155
  113SOL     OW  916   7.927   9.561   8.094 -0.0734 -0.7114 -0.3885
  113SOL    HW1  917   7.852   9.520   8.050 -0.6914  1.2251 -1.2488
  113SOL    HW2  918   7.889   9.603   8.171 -0.2221  1.5417 -1.6054
  114SOL     OW  919   7.448   8.866   9.086 -0.6365  0.4071  0.1640
  114SOL    HW1  920   7.471   8.932   9.021 -1.8171  1.7022  0.9825
  114SOL    HW2  921   7.352   8.859   9.080 -0.4982 -1.7535 -0.3457
  115SOL     OW  922   7.228   5.384   0.485 -0.0944  0.5883 -0.6779
  115SOL    HW1  923   7.186   5.339   0.558 -0.5903  0.8042 -0.8263
  115SOL    HW2  924   7.296   5.323   0.456 -1.5527 -0.6608 -1.6782
  116SOL     OW  925   0.042   3.648   7.701 -0.2862  0.7267 -0.2449
  116SOL    HW1  926  -0.018   3.691   7.640 -0.9086 -0.4627 -0.5158
  116SOL    HW2  927  -0.012   3.583   7.746  1.2757 -2.5352 -2.6231
  117SOL     OW  928   8.028   4.668   3.700  0.1818 -0.2097  0.0952
  117SOL    HW1  929   7.960   4.611   3.663 -1.0968 -0.7295  2.9922
  117SOL    HW2  930   7.981   4.725   3.761  2.1134  0.7622  0.7586
  118SOL     OW  931   9.470   7.959   5.023 -0.0547  0.5321 -0.5297
  118SOL    HW1  932   9.395   7.961   5.083  1.6384  0.4654  1.6756
  118SOL    HW2  933   9.486   7.866   5.008  0.2225  0.5185 -0.1578
  119SOL     OW  934   4.316   7.202   7.934  0.3544 -0.1444  0.3267
  119SOL    HW1  935   4.351   7.286   7.904  0.4301 -0.3833 -0.2730
  119SOL    HW2  936   4.255   7.225   8.004  0.4861  0.4009  0.2654
  120SOL     OW  937   3.971   6.355   8.727 -0.0032  0.5414 -0.3050
  120SOL    HW1  938   3.976   6.328   8.818 -0.1940  1.2663 -0.0702
  120SOL    HW2  939   3.878   6.375   8.713 -0.4042 -1.7609 -1.3236
  121SOL     OW  940   7.040   9.715   2.056 -0.0406 -0.0892 -0.0032
  121SOL    HW1  941   7.096   9.756   1.990 -0.4054  1.5673  0.6879
  121SOL    HW2  942   7.081   9.630   2.071  1.5269  0.5418 -0.4854
  122SOL     OW  943   7.193   0.503   3.371 -0.0271 -0.2312  0.2183
  122SOL    HW1  944   7.159   0.425   3.416  1.0808 -0.7631  0.1604
  122SOL    HW2  945   7.287   0.490   3.370  0.1926  1.2620  0.4437
  123SOL     OW  946   6.040   7.899   0.521  0.2602  0.0939 -0.1225
  123SOL    HW1  947   6.002   7.981   0.489 -1.0107  0.1234  1.3360
  123SOL    HW2  948   6.028   7.837   0.449 -0.0938  0.8188 -0.6986
  124SOL     OW  949   3.403   5.468   3.169  0.0050 -0.3806  0.0596
  124SOL    HW1  950   3.400   5.449   3.076  1.0110  0.9110 -0.2696
  124SOL    HW2  951   3.360   5.553   3.178 -0.0308 -0.4617  0.7631
  125SOL     OW  952   5.238   3.444   6.468  0.6852 -0.1871  0.1316
  125SOL    HW1  953   5.208   3.357   6.495 -1.3583 -0.2066 -1.8855
  125SOL    HW2  954   5.169   3.503   6.498  2.0496  0.7925  1.4733
  126SOL     OW  955   0.854   3.055   6.965  0.3720  0.2478  0.0508
  126SOL    HW1  956   0.773   3.076   7.012 -0.0619 -2.2501  0.5547
  126SOL    HW2  957   0.905   3.003   7.027  2.0613  1.0942 -0.5472
  127SOL     OW  958   0.100   6.379   9.831 -0.1096  0.0318 -0.6613
  127SOL    HW1  959   0.168   6.341   9.886  0.2602  0.6817 -0.6622
  127SOL    HW2  960   0.050   6.303   9.800  0.6729 -0.4638 -0.7521
  128SOL     OW  961   8.827   3.186   7.401  0.6218 -0.4067  0.2000
  128SOL    HW1  962   8.820   3.126   7.326 -1.9743 -0.8173  0.6854
  128SOL    HW2  963   8.812   3.273   7.364 -0.8708 -0.6297  0.2179
  129SOL     OW  964   2.136   9.422   5.330  0.5955  0.8692 -0.1343
  129SOL    HW1  965   2.177   9.340   5.357 -1.8708 -0.3962  0.0578
  129SOL    HW2  966   2.077   9.397   5.259  1.2986  2.8650 -1.4971
  130SOL     OW  967   0.726   0.817   3.644  0.0241  0.8939 -0.1412
  130SOL    HW1  968   0.632   0.821   3.630 -0.2491 -0.9439  0.9538
  130SOL    HW2  969   0.740   0.863   3.727 -0.1755 -0.4706  0.6689
  131SOL     OW  970   5.568   2.152   4.851 -0.0681 -0.3465  0.4372
  131SOL    HW1  971   5.549   2.162   4.945  0.4939  0.8213  0.4419
  131SOL    HW2  972   5.635   2.083   4.849  0.5255  0.1956  0.9767
  132SOL     OW  973   6.512   4.897   3.706  0.5616  0.2958  0.4079
  132SOL    HW1  974   6.533   4.965   3.642 -1.2319 -0.4964 -1.1299
  132SOL    HW2  975   6.482   4.823   3.653 -1.2478 -0.3138  2.1479
  133SOL     OW  976   2.647   1.415   2.037  0.3979 -0.0780  0.4666
  133SOL    HW1  977   2.672   1.395   1.947 -0.9822 -1.6540  0.3616
  133SOL    HW2  978   2.571   1.358   2.053 -0.2829  1.2186  2.1530
  134SOL     OW  979   7.653   5.490   0.646 -0.0095  0.3486 -0.3592
  134SOL    HW1  980   7.685   5.437   0.573  0.4407  0.7101 -0.4288
  134SOL    HW2  981   7.667   5.434   0.723  1.4901  0.7662 -0.2969
  135SOL     OW  982   7.854   9.856   3.253 -0.1694  0.6715  0.1391
  135SOL    HW1  983   7.813   9.877   3.169  0.8599  0.1948 -0.4928
  135SOL    HW2  984   7.891   9.769   3.241 -0.9640  0.1147  1.4575
  136SOL     OW  985   2.867   2.874   2.197 -0.9779  0.7071 -0.0917
  136SOL    HW1  986   2.779   2.853   2.228 -0.2111 -1.5389  0.7261
  136SOL    HW2  987   2.913   2.908   2.274 -0.6865  0.4221 -0.1385
  137SOL     OW  988   4.876   7.042   3.230 -0.1543 -0.2206  0.1638
  137SOL    HW1  989   4.859   6.980   3.301 -1.8547 -2.0248 -1.6949
  137SOL    HW2  990   4.952   7.005   3.184 -1.5639 -1.4057 -1.3344
  138SOL     OW  991   7.497   3.357   6.730 -0.1456  0.8492  0.1483
  138SOL    HW1  992   7.570   3.414   6.706  0.4804  0.1892  0.4630
  138SOL    HW2  993   7.424   3.417   6.745  0.2292  1.4888 -0.5237
  139SOL     OW  994   0.109   4.678   4.715 -0.1765  0.2152  0.3951
  139SOL    HW1  995   0.132   4.706   4.627 -0.2446 -1.4208 -0.1744
  139SOL    HW2  996   0.061   4.752   4.752  2.2588  2.0480  0.1147
  140SOL     OW  997   7.977   3.440   4.817 -0.0710 -0.1775  0.0260
  140SOL    HW1  998   8.005   3.358   4.857  2.2173  0.4880 -0.1077
  140SOL    HW2  999   7.942   3.491   4.890 -0.0687 -0.6679  0.3752
  141SOL     OW 1000   2.434   0.084   0.309 -0.5020 -0.6408 -0.1200
  141SOL    HW1 1001   2.477   0.089   0.395  0.2472  0.0281 -0.5219
  141SOL    HW2 1002   2.503   0.056   0.249 -0.6283  0.3960 -0.7674
  142SOL     OW 1003   6.147   6.386   2.641  0.8352  0.6277 -0.0458
  142SOL    HW1 1004   6.057   6.404   2.667  0.2031 -1.2690 -0.7556
  142SOL    HW2 1005   6.152   6.412   2.549  0.4522 -0.9343 -0.5349
  143SOL     OW 1006   9.625   0.828   4.841 -0.1981  0.0979 -0.2034
  143SOL    HW1 1007   9.705   0.801   4.796  0.8232  0.8880  1.0375
  143SOL    HW2 1008   9.561   0.841   4.771  1.1425  0.7047 -1.3713
  144SOL     OW 1009   7.481   1.447   5.660  0.6218 -0.0418  0.0110
  144SOL    HW1 1010   7.529   1.458   5.742  1.8123 -0.4976 -0.6143
  144SOL    HW2 1011   7.546   1.462   5.591  0.1404 -1.7075 -0.8558
  145SOL     OW 1012   6.546   2.210   0.028  0.1142  0.1941 -0.0969
  145SOL    HW1 1013   6.555   2.283   0.089  0.9914 -0.5818  0.7353
  145SOL    HW2 1014   6.635   2.193  -0.004 -0.0328 -0.6834 -0.0684
  146SOL     OW 1015   9.653   8.488   5.333  0.1385  0.2080  0.0390
  146SOL    HW1 1016   9.668   8.421   5.266 -2.4459  1.8234 -2.3612
  146SOL    HW2 1017   9.598   8.446   5.398 -0.3279 -0.4080 -0.7386
  147SOL     OW 1018   8.351   0.373   9.951 -0.2872 -0.4497  0.3983
  147SOL    HW1 1019   8.311   0.460   9.945  1.3476  0.2783 -0.6455
  147SOL    HW2 1020   8.304   0.321   9.887  0.0524  0.2465 -0.4395
  148SOL     OW 1021   9.924   6.117   8.476  0.0341 -0.2329  0.1628
  148SOL    HW1 1022   9.863   6.130   8.403  0.3006 -1.7223 -0.3590
  148SOL    HW2 1023   9.895   6.179   8.542 -1.6092 -0.3957 -0.3560
  149SOL     OW 1024   9.389   0.985   9.298 -0.0569  0.0661 -0.2508
  149SOL    HW1 1025   9.310   0.934   9.314 -0.9700  1.4758 -0.1090
  149SOL    HW2 1026   9.391   1.050   9.368  0.5973  0.7783 -0.9057
  150SOL     OW 1027   6.679   8.877   4.319  0.1400 -0.3034  0.1173
  150SOL    HW1 1028   6.643   8.902   4.404 -0.4090 -2.7254  0.6746
  150SOL    HW2 1029   6.683   8.782   4.322  2.3929 -0.3403 -1.6828
  151SOL     OW 1030   3.163   8.953   9.490  0.1952 -0.1479  0.6539
  151SOL    HW1 1031   3.167   8.857   9.495  0.0240 -0.1519  0.7517
  151SOL    HW2 1032   3.089   8.970   9.432 -0.3014 -0.0748  1.2877
  152SOL     OW 1033   4.928   2.265   7.159  0.7199 -0.8343  0.5870
  152SOL    HW1 1034   4.904   2.220   7.077  0.1121  1.2729 -0.4641
  152SOL    HW2 1035   4.845   2.281   7.203  0.8517 -0.0974  0.5809
  153SOL     OW 1036   7.666   2.922   8.878  0.2419 -0.4466 -0.2176
  153SOL    HW1 1037   7.683   2.831   8.856 -1.1990 -0.5246 -1.1923
  153SOL    HW2 1038   7.609   2.953   8.807  1.5540  1.5232 -0.4909
  154SOL     OW 1039   8.685   1.391   0.568 -0.9635  0.5806 -0.1515
  154SOL    HW1 1040   8.669   1.440   0.487  0.8115 -1.4574 -1.8825
  154SOL    HW2 1041   8.766   1.427   0.603 -1.7779  1.5215  0.8370
  155SOL     OW 1042   9.802   8.538   1.364 -0.2226  0.0331 -0.2443
  155SOL    HW1 1043   9.861   8.514   1.435 -0.4543 -0.8833 -0.3410
  155SOL    HW2 1044   9.719   8.558   1.407 -0.0245  0.6912 -0.1615
  156SOL     OW 1045   6.239   7.458   6.453  0.4906  1.2809 -0.2651
  156SOL    HW1 1046   6.149   7.429   6.464 -0.0220  2.4261 -1.1963
  156SOL    HW2 1047   6.292   7.386   6.486 -0.6758 -0.9270 -2.8487
  157SOL     OW 1048   7.084   6.292   6.292 -0.8015 -0.4300  0.5451
  157SOL    HW1 1049   7.038   6.353   6.234 -0.1459  1.3295  1.7678
  157SOL    HW2 1050   7.036   6.297   6.375  0.9844  0.7808  1.5802
  158SOL     OW 1051   6.185   1.183   7.675 -0.4313 -0.1272  0.1641
  158SOL    HW1 1052   6.276   1.184   7.704 -0.1848 -0.2613 -0.5850
  158SOL    HW2 1053   6.187   1.133   7.593 -0.9901  0.8320 -0.4459
  159SOL     OW 1054   3.976   1.986   8.097 -0.1264 -0.6086 -0.0779
  159SOL    HW1 1055   3.902   1.959   8.042  0.1495  0.8710 -1.2358
  159SOL    HW2 1056   4.034   2.034   8.037  0.3749  0.7415  1.4353
  160SOL     OW 1057   4.710   6.002   4.540 -0.0510 -0.7447 -0.5124
  160SOL    HW1 1058   4.631   5.982   4.489 -0.4285 -0.9238  0.1328
  160SOL    HW2 1059   4.738   6.088   4.508 -0.8796 -0.3874 -0.3025
  161SOL     OW 1060   4.513   7.459   5.907 -0.5017 -0.5858  0.2274
  161SOL    HW1 1061   4.571   7.394   5.868  0.6001 -0.3993  1.4902
  161SOL    HW2 1062   4.489   7.423   5.992  0.6244  0.8743  1.2165
  162SOL     OW 1063   8.321   8.298   9.843  0.6337  0.6942  0.5109
  162SOL    HW1 1064   8.368   8.360   9.898  0.4412 -0.3216  1.8757
  162SOL    HW2 1065   8.230   8.327   9.844  0.8509  1.4741 -0.4508
  163SOL     OW 1066   8.168   4.344   6.471 -0.3404 -0.5228 -0.1570
  163SOL    HW1 1067   8.093   4.404   6.467  0.7573  0.8972 -0.3520
  163SOL    HW2 1068   8.216   4.361   6.390 -1.0928 -3.2386 -1.2932
  164SOL     OW 1069   9.086   7.827   1.063  0.3255  0.2933 -0.6938
  164SOL    HW1 1070   9.080   7.733   1.047  2.4225  0.2553 -1.5247
  164SOL    HW2 1071   9.070   7.835   1.157 -0.7221 -0.7783 -0.7488
  165SOL     OW 1072   7.991   4.220   5.248 -0.3420 -0.3491  0.3955
  165SOL    HW1 1073   8.049   4.185   5.316 -0.4929 -0.8829  0.2521
  165SOL    HW2 1074   8.046   4.279   5.197  0.6693 -2.3966 -1.0195
  166SOL     OW 1075   5.990   0.124   7.073 -0.0381 -0.0953 -0.9096
  166SOL    HW1 1076   6.083   0.128   7.093 -0.1929  0.3595 -0.2584
  166SOL    HW2 1077   5.978   0.186   7.001  0.1198  0.0497 -0.8118
  167SOL     OW 1078   7.001   4.665   2.293  0.1144 -0.6244 -0.6722
  167SOL    HW1 1079   7.016   4.746   2.245  0.1685 -0.9906 -1.2803
  167SOL    HW2 1080   6.907   4.648   2.284  0.0210 -0.3915 -0.1606
  168SOL     OW 1081   8.060   4.143   2.546 -0.5159  0.5535 -0.0202
  168SOL    HW1 1082   8.110   4.144   2.627 -0.1922 -1.2106 -0.1447
  168SOL    HW2 1083   7.982   4.196   2.564 -0.1951  0.6095  1.2599
  169SOL     OW 1084   9.456   8.646   9.485 -0.0064  0.1442 -0.2561
  169SOL    HW1 1085   9.407   8.578   9.438 -1.1574  1.1579 -0.5734
  169SOL    HW2 1086   9.457   8.616   9.576  1.6583 -1.5090 -0.7654
  170SOL     OW 1087   0.435   3.999   7.336 -0.5213 -0.3533 -0.3321
  170SOL    HW1 1088   0.484   3.921   7.360  1.1379 -0.0018 -2.3214
  170SOL    HW2 1089   0.473   4.069   7.390 -0.2916 -0.4675 -0.3450
  171SOL     OW 1090   1.728   8.328   7.151 -0.1168  0.0108 -0.3256
  171SOL    HW1 1091   1.685   8.256   7.105  0.6945  0.1215 -1.2824
  171SOL    HW2 1092   1.658   8.368   7.203 -0.6058 -1.4066  0.1756
  172SOL     OW 1093   1.625   7.576   7.007 -0.0227  0.3960 -0.2132
  172SOL    HW1 1094   1.562   7.627   6.957  0.4308  1.5507  0.3495
  172SOL    HW2 1095   1.596   7.485   6.998 -1.3854  0.8392 -0.4886
  173SOL     OW 1096   8.487   7.738   9.677 -0.2301 -0.2183  0.4717
  173SOL    HW1 1097   8.418   7.672   9.671  0.5298 -1.3519  2.8760
  173SOL    HW2 1098   8.450   7.815   9.634 -2.6916 -1.0140  1.0055
  174SOL     OW 1099   9.597   2.908   7.314  0.6353  0.2997  0.1286
  174SOL    HW1 1100   9.680   2.955   7.323  1.1318 -0.4921 -0.2371
  174SOL    HW2 1101   9.551   2.923   7.397  1.1183  0.7850  0.3129
  175SOL     OW 1102   3.794   3.112   6.916 -0.3019 -0.3174  0.1224
  175SOL    HW1 1103   3.707   3.071   6.916 -1.0762  1.2472  0.4552
  175SOL    HW2 1104   3.853   3.044   6.949 -1.4739 -1.2646  0.3232
  176SOL     OW 1105   9.862   8.330   5.174  0.3121  0.1176 -0.2595
  176SOL    HW1 1106   9.811   8.353   5.097  1.2490 -0.4106 -1.0519
  176SOL    HW2 1107   9.931   8.272   5.142  0.7942 -0.0215  0.9513
  177SOL     OW 1108   5.762   2.713   5.617  0.1139 -0.2956  0.5914
  177SOL    HW1 1109   5.842   2.759   5.593  0.1287 -0.1828  0.8610
  177SOL    HW2 1110   5.770   2.697   5.711 -1.1365  1.6274  1.0696
  178SOL     OW 1111   4.630   4.070   5.479 -0.2077  0.0549  0.2496
  178SOL    HW1 1112   4.656   3.983   5.512  0.5355  0.4382  0.7023
  178SOL    HW2 1113   4.552   4.092   5.530 -1.0614 -0.8066 -0.6316
  179SOL     OW 1114   8.404   2.991   5.975 -0.6354 -0.2158  0.2469
  179SOL    HW1 1115   8.396   3.079   6.010 -0.0751 -0.4187  0.9125
  179SOL    HW2 1116   8.360   2.994   5.890 -0.1026  0.8447  0.0085
  180SOL     OW 1117   6.775   4.739   0.648  0.5369  0.0750  0.1561
  180SOL    HW1 1118   6.842   4.676   0.622  1.6159  1.7016 -1.2980
  180SOL    HW2 1119   6.757   4.719   0.739  1.0700 -2.0816 -0.1494
  181SOL     OW 1120   5.175   8.078   3.288  0.4590 -0.2432  0.2303
  181SOL    HW1 1121   5.254   8.069   3.340  1.1226  0.1155 -0.6922
  181SOL    HW2 1122   5.115   8.128   3.344  1.0210 -0.1904  0.7884
  182SOL     OW 1123   7.856   5.847   2.767 -0.0441 -0.0001  1.1409
  182SOL    HW1 1124   7.949   5.867   2.771  0.1486  0.3685 -2.1468
  182SOL    HW2 1125   7.813   5.925   2.800  0.7903  0.2313  1.7116
  183SOL     OW 1126   9.074   9.828   0.777 -0.0538  0.4591  0.0477
  183SOL    HW1 1127   8.994   9.826   0.830  0.1218  0.5344  0.3203
  183SOL    HW2 1128   9.136   9.877   0.830  1.2654 -2.4342  1.4255
  184SOL     OW 1129   9.871   3.841   2.265 -0.0519  0.0513  0.8903
  184SOL    HW1 1130   9.947   3.782   2.269 -0.3652 -0.3813  0.5043
  184SOL    HW2 1131   9.894   3.904   2.196 -0.0262 -0.0549  0.8014
  185SOL     OW 1132   9.397   3.730   1.667 -0.3381  0.0734 -0.3570
  185SOL    HW1 1133   9.398   3.688   1.753 -0.4919 -2.6593 -1.5970
  185SOL    HW2 1134   9.429   3.819   1.684 -2.3006  0.3287  2.8084
  186SOL     OW 1135   5.790   7.621   3.120 -0.2964 -0.3086  0.1317
  186SOL    HW1 1136   5.861   7.565   3.089 -0.4922 -0.1315 -0.6534
  186SOL    HW2 1137   5.719   7.560   3.141  0.5300 -0.6208  2.2623
  187SOL     OW 1138   0.639   8.365   3.008 -0.1118  0.1453 -0.0987
  187SOL    HW1 1139   0.704   8.326   2.950 -1.4174 -0.9765 -0.8433
  187SOL    HW2 1140   0.621   8.298   3.074 -1.4082 -0.0445 -0.6204
  188SOL     OW 1141   8.627   4.883   9.225  0.2865  0.2946  0.2493
  188SOL    HW1 1142   8.542   4.848   9.254  0.4508 -0.0119  0.3730
  188SOL    HW2 1143   8.670   4.809   9.183 -0.2504  0.9282 -1.5057
  189SOL     OW 1144   0.825   7.702   2.984  0.1205 -0.4714 -0.1981
  189SOL    HW1 1145   0.881   7.776   2.963  0.5240 -0.2593  1.4784
  189SOL    HW2 1146   0.883   7.626   2.983 -0.0447 -0.5935 -0.7295
  190SOL     OW 1147   4.509   9.004   9.187  0.2693  0.8147 -0.0107
  190SOL    HW1 1148   4.447   8.993   9.258  0.8491  0.7355  0.4910
  190SOL    HW2 1149   4.464   9.060   9.124 -0.8207 -0.3227 -0.2814
  191SOL     OW 1150   1.143   0.069   0.207 -0.2801  0.1572 -0.0920
  191SOL    HW1 1151   1.133   0.054   0.113  1.0497 -0.4315 -0.1560
  191SOL    HW2 1152   1.091   0.148   0.224  0.6536  1.1407 -1.5951
  192SOL     OW 1153   4.460   1.117   3.300 -0.4983 -0.3580 -0.8166
  192SOL    HW1 1154   4.406   1.183   3.257 -1.1297 -1.0143 -1.0589
  192SOL    HW2 1155   4.401   1.076   3.363  0.0325 -0.3433 -0.3105
  193SOL     OW 1156   4.006   7.299   4.274  0.4435 -0.1143 -0.0801
  193SOL    HW1 1157   3.965   7.384   4.289 -0.5197 -0.7482  1.0524
  193SOL    HW2 1158   4.098   7.312   4.297  0.2638  0.5795  0.2717
  194SOL     OW 1159   3.684   8.330   4.359 -0.3312  0.4720 -0.2021
  194SOL    HW1 1160   3.690   8.257   4.421  0.8037  0.7622  0.0624
  194SOL    HW2 1161   3.654   8.404   4.412  0.5231  0.6907 -0.0126
  195SOL     OW 1162   4.398   1.674   0.363 -0.6015  0.1427  0.4710
  195SOL    HW1 1163   4.479   1.664   0.414 -0.7835  1.4692  1.0575
  195SOL    HW2 1164   4.334   1.620   0.410 -0.3769  0.1424  0.7844
  196SOL     OW 1165   2.484   2.183   1.736 -0.1277 -0.2454  0.1013
  196SOL    HW1 1166   2.468   2.241   1.662  1.4886 -2.0997 -1.8299
  196SOL    HW2 1167   2.477   2.239   1.813 -0.2685  2.1177 -1.5457
  197SOL     OW 1168   7.297   2.903   3.457  0.5045 -0.0566  1.0708
  197SOL    HW1 1169   7.210   2.908   3.496 -0.5106 -0.0265 -1.0499
  197SOL    HW2 1170   7.281   2.890   3.363  2.7971 -0.8408  0.7161
  198SOL     OW 1171   4.011   5.208   4.841 -0.1604 -0.4765  0.2772
  198SOL    HW1 1172   3.944   5.263   4.881 -0.6366 -0.7217 -0.1830
  198SOL    HW2 1173   3.962   5.145   4.788  0.3706 -1.3588  0.8169
  199SOL     OW 1174   7.108   0.332   5.075 -0.1214 -0.3737  0.2772
  199SOL    HW1 1175   7.026   0.378   5.093  1.1333  0.9454  3.4336
  199SOL    HW2 1176   7.123   0.278   5.153  2.8025  0.7926  0.6591
  200SOL     OW 1177   1.376   1.637   7.914  0.0096 -0.2500 -0.1607
  200SOL    HW1 1178   1.451   1.596   7.872 -0.1530 -3.1883  2.1216
  200SOL    HW2 1179   1.302   1.614   7.858  0.4108  0.4969 -1.0431
  201SOL     OW 1180   8.823   5.227   1.482 -0.2090  0.7956 -0.1665
  201SOL    HW1 1181   8.794   5.287   1.414  0.7228  1.9109  0.3711
  201SOL    HW2 1182   8.846   5.284   1.555  0.3381 -0.2561  0.5034
  202SOL     OW 1183   6.093   2.106   0.728 -0.3051  0.4730  0.6280
  202SOL    HW1 1184   6.160   2.170   0.750 -2.0980  2.4467  0.6853
  202SOL    HW2 1185   6.054   2.139   0.647 -0.9529 -0.8381  0.3754
  203SOL     OW 1186   8.277   6.093   9.670  0.5700 -0.2667  0.3945
  203SOL    HW1 1187   8.283   6.176   9.624  1.3432 -1.5489 -1.9605
  203SOL    HW2 1188   8.191   6.095   9.712  0.4274  1.5409  0.0953
  204SOL     OW 1189   7.935   1.912   2.728 -0.5279  0.1352 -0.2254
  204SOL    HW1 1190   7.903   1.999   2.752 -1.1576 -0.4333  1.0645
  204SOL    HW2 1191   8.018   1.903   2.774 -1.0185 -0.3822  0.5759
  205SOL     OW 1192   5.781   3.495   3.515 -0.2102 -0.2976 -0.1327
  205SOL    HW1 1193   5.808   3.421   3.461 -0.0007 -0.9313  0.8133
  205SOL    HW2 1194   5.862   3.543   3.533 -0.2619 -0.1511 -0.2906
  206SOL     OW 1195   5.401   3.592   0.066 -0.6716  0.0411 -0.5279
  206SOL    HW1 1196   5.329   3.608   0.005 -0.8294  0.5715 -0.2046
  206SOL    HW2 1197   5.446   3.516   0.030 -2.1545 -1.1084 -0.0610
  207SOL     OW 1198   1.614   5.085   5.239  0.3190 -0.1030  0.0618
  207SOL    HW1 1199   1.698   5.116   5.272  0.5609  1.1680 -1.5828
  207SOL    HW2 1200   1.623   4.990   5.233  1.6263  0.0143 -0.0391
  208SOL     OW 1201   9.285   4.164   0.269 -0.4229 -0.0818 -0.1430
  208SOL    HW1 1202   9.338   4.151   0.191 -0.2941  0.4444 -0.1445
  208SOL    HW2 1203   9.272   4.259   0.274 -1.5204 -0.2111 -0.2483
  209SOL     OW 1204   7.829   7.170   5.504 -0.1931 -0.5807  0.4546
  209SOL    HW1 1205   7.771   7.237   5.539  0.1976 -0.0751  0.1458
  209SOL    HW2 1206   7.781   7.088   5.515 -1.2437 -0.1035 -0.4071
  210SOL     OW 1207   3.853   4.548   6.578 -0.1389  0.6261  0.3272
  210SOL    HW1 1208   3.940   4.510   6.583 -0.5953 -0.4995 -0.0752
  210SOL    HW2 1209   3.797   4.477   6.548 -0.7130  2.0309 -2.3159
  211SOL     OW 1210   2.820   7.083   1.142 -0.5886 -0.5028  0.0678
  211SOL    HW1 1211   2.879   7.126   1.080  0.4799 -1.3124  0.4843
  211SOL    HW2 1212   2.870   7.007   1.174 -1.9468 -1.3380  0.2803
  212SOL     OW 1213   9.741   7.422   2.127  0.5022 -0.1257  0.4228
  212SOL    HW1 1214   9.753   7.514   2.103 -1.5640 -0.1830 -1.0436
  212SOL    HW2 1215   9.724   7.377   2.044  3.4511 -2.2723  0.8066
  213SOL     OW 1216   1.419   9.812   7.805 -0.0741  0.3726 -0.2141
  213SOL    HW1 1217   1.452   9.813   7.715  1.3118  1.2276  0.2756
  213SOL    HW2 1218   1.464   9.885   7.847 -1.1213  0.3135  1.0353
  214SOL     OW 1219   8.916   0.865   0.797  0.4001 -0.1040 -0.0325
  214SOL    HW1 1220   8.847   0.932   0.799  0.1339 -0.3756 -0.0917
  214SOL    HW2 1221   8.905   0.822   0.712 -0.2794 -1.1181  0.5611
  215SOL     OW 1222   9.764   8.322   1.616  0.2128 -0.4488 -0.0274
  215SOL    HW1 1223   9.729   8.277   1.693  0.1109 -0.3331 -0.0053
  215SOL    HW2 1224   9.700   8.304   1.547 -0.3992  0.5720  0.2619
  216SOL     OW 1225   0.553   2.738   5.071  0.3007  0.3421  0.0650
  216SOL    HW1 1226   0.541   2.774   4.983  1.0492 -0.0679 -0.2063
  216SOL    HW2 1227   0.595   2.808   5.120 -0.5691  0.7535  0.2421
  217SOL     OW 1228   7.364   6.660   7.363 -0.3465 -0.1738  0.1997
  217SOL    HW1 1229   7.374   6.568   7.387  1.3283  0.2141  1.1202
  217SOL    HW2 1230   7.350   6.706   7.446  0.5503  0.5999 -0.0608
  218SOL     OW 1231   1.234   8.289   7.281 -0.1260  0.7691 -0.2882
  218SOL    HW1 1232   1.282   8.316   7.203  0.3125  0.6288 -0.0706
  218SOL    HW2 1233   1.212   8.371   7.325  0.6728  0.8153  0.0539
  219SOL     OW 1234   0.699   0.463   7.892 -0.4642 -0.0662  0.1991
  219SOL    HW1 1235   0.627   0.506   7.845  0.4489 -0.0062 -1.1704
  219SOL    HW2 1236   0.734   0.532   7.949  0.3561  0.7562 -1.2610
  220SOL     OW 1237   1.709   3.284   1.906  0.5080 -0.0641  0.5304
  220SOL    HW1 1238   1.763   3.351   1.948 -0.0677  0.4007  0.5322
  220SOL    HW2 1239   1.620   3.318   1.911  0.0344 -1.3820  1.6049
  221SOL     OW 1240   4.528   7.186   8.219  0.3472 -0.5881 -0.4123
  221SOL    HW1 1241   4.471   7.261   8.240  2.2218  0.7614  0.0765
  221SOL    HW2 1242   4.557   7.203   8.130 -0.0726 -1.3365 -0.7011
  222SOL     OW 1243   1.412   6.009   9.997 -0.4191  0.3022 -0.0115
  222SOL    HW1 1244   1.393   5.960   9.917 -0.3320 -0.5338  0.4579
  222SOL    HW2 1245   1.370   6.093   9.985 -1.7488 -0.3800 -0.2921
  223SOL     OW 1246   7.285   9.475   5.868 -0.8798  0.5774  0.0373
  223SOL    HW1 1247   7.321   9.558   5.899 -0.6390  0.5109 -0.0589
  223SOL    HW2 1248   7.281   9.484   5.773 -0.2162  0.2337 -0.0330
  224SOL     OW 1249   6.998   7.954   2.968  0.3931 -0.3336 -0.6464
  224SOL    HW1 1250   6.959   7.875   3.004 -0.2427 -0.0291 -0.6648
  224SOL    HW2 1251   7.040   7.924   2.887  1.8662 -1.0245  0.3194
  225SOL     OW 1252   6.156   1.642   1.050 -0.0080 -0.0231 -0.6410
  225SOL    HW1 1253   6.201   1.724   1.073  0.9651 -1.2775  2.5573
  225SOL    HW2 1254   6.221   1.593   0.998  0.2754  0.3444 -0.6370
  226SOL     OW 1255   8.922   6.852   5.196 -0.0263  0.2675 -0.0466
  226SOL    HW1 1256   9.005   6.805   5.197 -0.8622 -1.2566  1.3729
  226SOL    HW2 1257   8.865   6.799   5.140 -0.0277  1.3719 -1.1222
  227SOL     OW 1258   3.735   0.073   2.084  0.2069  0.2512 -0.2785
  227SOL    HW1 1259   3.698   0.017   2.152 -0.1788  1.3428  0.4358
  227SOL    HW2 1260   3.719   0.162   2.114  0.8469  0.7634 -1.3653
  228SOL     OW 1261   5.218   7.096   1.467  0.3496  0.1696  0.1320
  228SOL    HW1 1262   5.126   7.089   1.495  0.4356  0.0768  0.3994
  228SOL    HW2 1263   5.260   7.148   1.536  0.7057 -0.6133  0.5263
  229SOL     OW 1264   2.131   9.102   0.076 -0.1708  0.4312  0.1254
  229SOL    HW1 1265   2.171   9.017   0.095 -0.8884  0.1138  0.2787
  229SOL    HW2 1266   2.112   9.099  -0.017 -0.4316  0.3151  0.1809
  230SOL     OW 1267   7.265   1.740   4.141 -0.4033 -0.1462  0.9032
  230SOL    HW1 1268   7.190   1.785   4.179 -0.5029  0.4626  0.0138
  230SOL    HW2 1269   7.290   1.793   4.065 -0.5189 -1.5656 -0.1731
  231SOL     OW 1270   0.786   9.322   6.984  0.3003 -0.1363  0.0260
  231SOL    HW1 1271   0.694   9.299   6.997  0.1136  0.1673 -0.7333
  231SOL    HW2 1272   0.816   9.263   6.915  0.1752  1.0040 -1.0248
  232SOL     OW 1273   6.546   7.749   5.509 -0.4191 -0.3106 -0.1919
  232SOL    HW1 1274   6.506   7.760   5.423  0.1898  0.3079 -0.4077
  232SOL    HW2 1275   6.520   7.827   5.558  2.3017  1.2704 -1.0723
  233SOL     OW 1276   6.390   0.033   1.077  0.5573 -0.5802 -0.4042
  233SOL    HW1 1277   6.299   0.016   1.055  0.4482  0.1117 -0.5053
  233SOL    HW2 1278   6.387   0.072   1.164  0.4991  1.9221 -1.4276
  234SOL     OW 1279   3.265   0.620   8.053  0.2083 -0.0033 -0.1323
  234SOL    HW1 1280   3.228   0.708   8.040  0.7078  0.0734 -1.1993
  234SOL    HW2 1281   3.275   0.611   8.148 -0.2655  0.9228  0.0129
  235SOL     OW 1282   1.001   6.206   6.399 -0.3342 -0.2351 -0.2803
  235SOL    HW1 1283   0.970   6.120   6.426 -0.0813 -0.1386  0.3338
  235SOL    HW2 1284   1.097   6.199   6.404 -0.2823 -0.2252 -1.1894
  236SOL     OW 1285   4.943   0.277   9.056 -0.6178 -0.2521 -0.2627
  236SOL    HW1 1286   4.924   0.356   9.107 -0.0064 -1.2237  1.5489
  236SOL    HW2 1287   4.986   0.310   8.977  0.7028  1.1853  0.9754
  237SOL     OW 1288   7.913   9.464   5.085  0.2606 -0.3408  0.1550
  237SOL    HW1 1289   7.859   9.411   5.144 -0.4462  0.2536  0.0523
  237SOL    HW2 1290   7.967   9.517   5.143 -1.1468  0.9886  0.3319
  238SOL     OW 1291   1.979   0.612   9.413  0.3822  0.1350  0.2785
  238SOL    HW1 1292   1.885   0.606   9.397  0.1691  0.4441  1.3452
  238SOL    HW2 1293   1.992   0.573   9.499  1.2127  0.2508  0.2174
  239SOL     OW 1294   8.889   8.962   2.447  0.1189 -0.4251  0.2208
  239SOL    HW1 1295   8.978   8.997   2.455  0.2721 -0.1085 -2.2613
  239SOL    HW2 1296   8.832   9.037   2.468  0.4282 -0.2546  0.4585
  240SOL     OW 1297   6.711   2.416   5.373 -0.0062  0.3321 -0.1429
  240SOL    HW1 1298   6.724   2.505   5.342 -0.2138  0.7501  0.9282
  240SOL    HW2 1299   6.712   2.362   5.294  1.5681  1.1050 -0.6845
  241SOL     OW 1300   3.132   7.475   5.554 -0.4437 -0.3082 -0.7830
  241SOL    HW1 1301   3.167   7.531   5.623 -0.3541  1.7156 -2.3826
  241SOL    HW2 1302   3.178   7.392   5.564  1.0418  0.6024  0.3360
  242SOL     OW 1303   8.826   5.787   8.520  0.0950 -0.3572 -0.0714
  242SOL    HW1 1304   8.861   5.699   8.509 -1.0608 -0.7650 -0.6035
  242SOL    HW2 1305   8.841   5.830   8.436  1.5489  0.3223  0.4808
  243SOL     OW 1306   1.024   2.299   3.555 -0.0781  0.4465 -0.0115
  243SOL    HW1 1307   0.989   2.269   3.470  0.9612  1.1076 -0.6885
  243SOL    HW2 1308   0.992   2.389   3.564  0.0938  0.4920  0.1429
  244SOL     OW 1309   4.003   0.358   3.611  0.2918  0.7025  0.2388
  244SOL    HW1 1310   3.928   0.417   3.622 -0.5530 -0.0144 -1.2399
  244SOL    HW2 1311   4.030   0.336   3.700 -2.2258 -0.1660  0.8988
  245SOL     OW 1312   6.851   3.839   6.641  0.2963  0.0670  0.3270
  245SOL    HW1 1313   6.764   3.862   6.674  0.0489  1.7583 -1.3849
  245SOL    HW2 1314   6.842   3.749   6.610 -0.9926  0.3812 -0.2642
  246SOL     OW 1315   4.595   2.772   2.850 -0.1743  0.2273  0.5676
  246SOL    HW1 1316   4.533   2.714   2.893  1.0441 -2.2444 -0.7775
  246SOL    HW2 1317   4.649   2.714   2.796  1.5211  2.5700 -0.4506
  247SOL     OW 1318   6.631   1.284   6.845  0.4033 -0.2868  0.5913
  247SOL    HW1 1319   6.665   1.304   6.758 -0.7757  2.8159  0.7105
  247SOL    HW2 1320   6.706   1.298   6.904  0.4577  0.7141  0.3149
  248SOL     OW 1321   9.171   7.903   5.116  0.0635  0.0729  0.7340
  248SOL    HW1 1322   9.191   7.820   5.158 -0.7436 -0.4588  0.1070
  248SOL    HW2 1323   9.081   7.893   5.085  0.9783 -0.0875 -2.2113
  249SOL     OW 1324   3.939   1.186   8.766 -0.7543 -0.0017 -0.0256
  249SOL    HW1 1325   3.942   1.274   8.804 -0.7744 -0.5244  1.2337
  249SOL    HW2 1326   3.847   1.175   8.740 -0.7374  0.3710 -0.2551
  250SOL     OW 1327   7.495   6.798   6.868  0.8290  0.3049 -0.0875
  250SOL    HW1 1328   7.499   6.709   6.832  1.9345  0.5845 -0.6831
  250SOL    HW2 1329   7.483   6.785   6.962 -4.7930 -0.4660 -0.5552
  251SOL     OW 1330   9.152   0.655   4.607 -0.3201  0.2421  0.0734
  251SOL    HW1 1331   9.100   0.575   4.605  0.8229 -0.5306  0.4618
  251SOL    HW2 1332   9.242   0.625   4.617  0.1128  1.5865  0.4059
  252SOL     OW 1333   3.251   7.134   3.126 -0.4053 -0.6966  0.3684
  252SOL    HW1 1334   3.322   7.189   3.158 -0.9283 -0.3235  0.9105
  252SOL    HW2 1335   3.201   7.110   3.204 -1.7412  0.2777 -0.1432
  253SOL     OW 1336   4.384   2.480   1.313 -0.0059  0.4609 -0.5265
  253SOL    HW1 1337   4.352   2.401   1.271  0.2940  0.7311 -1.2731
  253SOL    HW2 1338   4.375   2.462   1.407  1.3431 -1.0005 -0.6419
  254SOL     OW 1339   8.360   1.600   9.133  0.2214  0.9349 -0.5594
  254SOL    HW1 1340   8.348   1.569   9.223  0.4620  1.3983 -0.3653
  254SOL    HW2 1341   8.332   1.692   9.136  0.4882  1.0262 -0.8977
  255SOL     OW 1342   9.216   0.055   4.248 -0.5372 -0.4673 -0.4033
  255SOL    HW1 1343   9.211   0.018   4.160  1.4420 -1.1549 -0.2735
  255SOL    HW2 1344   9.240   0.147   4.234  2.4251 -1.1676 -0.6156
  256SOL     OW 1345   2.648   9.939   1.397 -0.3765  0.1585 -0.1285
  256SOL    HW1 1346   2.562   9.955   1.358 -0.2314  0.7234 -0.2295
  256SOL    HW2 1347   2.707   9.933   1.322 -0.1809  0.7166 -0.0202
  257SOL     OW 1348   2.538   3.091   4.510 -0.1531 -0.1246 -0.1671
  257SOL    HW1 1349   2.562   2.998   4.505  1.3879  0.1124  1.7068
  257SOL    HW2 1350   2.613   3.138   4.474 -0.1705  0.4427  0.5045
  258SOL     OW 1351   7.430   2.676   7.563  0.1532  0.6315  0.2676
  258SOL    HW1 1352   7.448   2.768   7.544  2.1095  0.3581  0.5393
  258SOL    HW2 1353   7.413   2.637   7.478  1.3626  0.8649 -0.0961
  259SOL     OW 1354   6.747   6.490   7.376 -0.1099  0.5405  0.3361
  259SOL    HW1 1355   6.761   6.396   7.391 -1.9142 -0.1501 -1.7623
  259SOL    HW2 1356   6.834   6.529   7.386  0.7128 -1.3562  1.1081
  260SOL     OW 1357   0.424   7.830   2.893 -0.0632 -0.5650 -0.3341
  260SOL    HW1 1358   0.422   7.918   2.932 -0.5619 -0.8492  0.2983
  260SOL    HW2 1359   0.432   7.846   2.799  0.0701  0.1555 -0.2090
  261SOL     OW 1360   1.394   7.236   0.038 -0.4053  0.3072  0.2259
  261SOL    HW1 1361   1.477   7.276   0.016 -0.5172  0.0563 -0.6625
  261SOL    HW2 1362   1.333   7.268  -0.029 -0.7131 -0.5713  0.0806
  262SOL     OW 1363   3.263   9.570   7.936 -0.8973  0.3328  0.0626
  262SOL    HW1 1364   3.337   9.624   7.965  0.2764 -0.2730 -1.6055
  262SOL    HW2 1365   3.242   9.604   7.849 -2.6839  0.5419  0.5444
  263SOL     OW 1366   8.565   6.374   5.208  0.1415 -0.6534  0.0853
  263SOL    HW1 1367   8.657   6.348   5.208 -0.4217 -2.8185 -0.1614
  263SOL    HW2 1368   8.549   6.406   5.120 -0.1914 -3.7902 -1.1068
  264SOL     OW 1369   1.662   5.835   6.428  0.8190  0.0959 -0.2479
  264SOL    HW1 1370   1.581   5.784   6.431  0.6681  0.3586  0.2137
  264SOL    HW2 1371   1.724   5.783   6.479  0.6864  0.3274  0.1579
  265SOL     OW 1372   8.465   3.979   1.577  0.1939  0.1741  0.3539
  265SOL    HW1 1373   8.544   3.970   1.632  0.1936  0.8101  0.4684
  265SOL    HW2 1374   8.399   4.012   1.637 -0.2884 -0.7783  0.3573
  266SOL     OW 1375   3.406   5.168   0.359  0.2511  0.4938 -0.3366
  266SOL    HW1 1376   3.318   5.131   0.363 -0.0570  1.2558  0.2706
  266SOL    HW2 1377   3.429   5.164   0.267 -2.6023  5.0807 -1.6371
  267SOL     OW 1378   0.475   3.566   2.003  0.1394  0.4191  0.6418
  267SOL    HW1 1379   0.564   3.532   1.988 -0.7217 -2.3262  1.1165
  267SOL    HW2 1380   0.423   3.530   1.931 -1.3479 -1.6287  2.5918
  268SOL     OW 1381   4.005   7.425   7.947  0.1551  0.7963  0.2887
  268SOL    HW1 1382   3.998   7.481   8.025 -2.3036  0.9025  0.0741
  268SOL    HW2 1383   4.091   7.445   7.911 -0.1541  3.6538  0.8407
  269SOL     OW 1384   1.481   6.788   7.217 -0.3032  0.3500 -0.3737
  269SOL    HW1 1385   1.519   6.849   7.281  2.0920 -1.3846 -0.0377
  269SOL    HW2 1386   1.394   6.769   7.251  0.2714  0.8105  1.4524
  270SOL     OW 1387   8.599   8.634   3.486 -0.0495 -0.4002 -0.3162
  270SOL    HW1 1388   8.522   8.594   3.446 -0.7179 -0.7209  1.2406
  270SOL    HW2 1389   8.661   8.561   3.495 -0.0376 -0.4037 -0.4190
  271SOL     OW 1390   0.991   7.618   4.023  0.2813  0.7444  0.0087
  271SOL    HW1 1391   0.911   7.622   4.076 -0.3076 -0.6315 -0.7353
  271SOL    HW2 1392   1.060   7.600   4.087  0.3559  3.7919  0.9332
  272SOL     OW 1393   6.769   3.735   2.730 -0.7615  0.8804  0.2903
  272SOL    HW1 1394   6.790   3.650   2.769 -2.4419 -0.2570 -1.1262
  272SOL    HW2 1395   6.847   3.758   2.679 -1.0113 -0.8268 -0.9340
  273SOL     OW 1396   8.263   1.273   5.999  0.2127 -0.0982  0.2628
  273SOL    HW1 1397   8.260   1.250   6.092  2.0681 -0.4917  0.2722
  273SOL    HW2 1398   8.324   1.346   5.994 -0.6945  0.6324 -0.5485
  274SOL     OW 1399   5.220   5.643   4.834  0.7089 -0.2162  1.0483
  274SOL    HW1 1400   5.277   5.620   4.761 -0.6505 -2.2241  0.5244
  274SOL    HW2 1401   5.217   5.738   4.834  1.0510 -0.1637 -1.2816
  275SOL     OW 1402   5.816   6.578   6.612  0.0674 -0.1300  0.0271
  275SOL    HW1 1403   5.856   6.492   6.617  1.3388  0.4544  0.3308
  275SOL    HW2 1404   5.853   6.618   6.533 -0.5584  0.1244 -0.1499
  276SOL     OW 1405   4.912   6.456   7.640 -0.0850 -0.3728  0.2885
  276SOL    HW1 1406   4.999   6.420   7.624  0.1307 -0.0421  0.7095
  276SOL    HW2 1407   4.876   6.401   7.709 -0.4499 -0.8826 -0.2915
  277SOL     OW 1408   5.975   2.795   6.956  0.1682 -0.1232 -0.2865
  277SOL    HW1 1409   5.940   2.752   6.878 -2.7540 -1.7017  1.6764
  277SOL    HW2 1410   5.999   2.723   7.014  1.2773  0.9983  0.7054
  278SOL     OW 1411   8.316   9.830   5.716  0.2394 -0.4579 -0.4852
  278SOL    HW1 1412   8.346   9.752   5.670 -3.5602 -3.4727  1.4973
  278SOL    HW2 1413   8.277   9.884   5.648  0.7194 -1.5389 -1.6561
  279SOL     OW 1414   6.156   6.163   8.291 -0.0420  0.1235  0.0911
  279SOL    HW1 1415   6.078   6.110   8.275 -0.5008  0.6960  0.3942
  279SOL    HW2 1416   6.228   6.101   8.288 -0.2052 -0.0569 -2.7780
  280SOL     OW 1417   4.821   4.555   8.555  0.2856  0.2242  0.2673
  280SOL    HW1 1418   4.788   4.548   8.465 -1.4290 -0.4042  0.9046
  280SOL    HW2 1419   4.789   4.476   8.599  1.3234  0.3881  1.3784
  281SOL     OW 1420   7.422   1.838   0.113 -0.3330 -0.1363 -0.0959
  281SOL    HW1 1421   7.436   1.927   0.144  0.5072 -1.1915  2.8561
  281SOL    HW2 1422   7.373   1.849   0.031  0.0708  3.0043 -0.0432
  282SOL     OW 1423   1.004   4.682   0.531  0.8359 -0.6136  0.3606
  282SOL    HW1 1424   1.012   4.613   0.598 -0.1422  1.5293  2.8501
  282SOL    HW2 1425   0.912   4.706   0.532  0.6107 -1.0658 -2.4669
  283SOL     OW 1426   6.441   3.387   1.335  0.4186 -0.1065  0.3957
  283SOL    HW1 1427   6.452   3.293   1.317 -0.3992 -0.2622  0.6733
  283SOL    HW2 1428   6.463   3.396   1.428 -4.1209 -0.9314  1.8286
  284SOL     OW 1429   7.219   2.742   1.492 -0.2126 -0.2645 -0.1477
  284SOL    HW1 1430   7.281   2.669   1.501 -1.3869 -1.4269 -0.9481
  284SOL    HW2 1431   7.133   2.699   1.483 -1.1638  1.2948  1.0783
  285SOL     OW 1432   1.417   2.736   5.258  0.5113 -0.2941 -0.1611
  285SOL    HW1 1433   1.483   2.714   5.192  1.2378 -0.4160  0.5811
  285SOL    HW2 1434   1.357   2.662   5.258  0.0188  0.0940 -1.2719
  286SOL     OW 1435   9.537   7.130   0.991  0.1314  0.2155  0.1397
  286SOL    HW1 1436   9.565   7.090   0.909  0.6568 -0.1349  0.4835
  286SOL    HW2 1437   9.541   7.224   0.975  0.9283  0.1606 -0.0117
  287SOL     OW 1438   3.399   7.216   8.721 -0.4390  0.4101  0.3435
  287SOL    HW1 1439   3.393   7.121   8.735  0.1565  0.4123  0.6521
  287SOL    HW2 1440   3.448   7.248   8.797 -0.7682  0.9893  0.3173
  288SOL     OW 1441   3.625   9.435   0.921 -0.1164  0.1248  0.0962
  288SOL    HW1 1442   3.693   9.488   0.879 -1.8680  2.0782 -0.4685
  288SOL    HW2 1443   3.611   9.362   0.861  1.5889 -0.4266  0.3336
  289SOL     OW 1444   2.223   3.484   8.962  0.0334  0.1190 -0.5855
  289SOL    HW1 1445   2.134   3.518   8.958 -0.4073 -1.0897 -2.3738
  289SOL    HW2 1446   2.279   3.560   8.943 -0.4554  1.2079  1.9421
  290SOL     OW 1447   4.159   6.314   4.253  0.1804 -0.1388 -0.5632
  290SOL    HW1 1448   4.185   6.244   4.312 -0.5934 -0.8638 -1.0503
  290SOL    HW2 1449   4.123   6.382   4.310 -0.6960 -0.8930 -0.1936
  291SOL     OW 1450   0.799   2.399   0.611 -0.3388  0.3080  0.5096
  291SOL    HW1 1451   0.807   2.311   0.648 -1.1052  0.3575  0.8142
  291SOL    HW2 1452   0.770   2.385   0.521  1.0950  0.2046  0.0284
  292SOL     OW 1453   5.734   5.053   3.832 -0.3560 -0.5158 -0.2754
  292SOL    HW1 1454   5.676   5.104   3.889 -1.6703 -1.7499 -0.4342
  292SOL    HW2 1455   5.693   5.058   3.746  1.9611  1.8893 -1.3828
  293SOL     OW 1456   8.336   1.524   9.400  0.7936  0.1345  0.0883
  293SOL    HW1 1457   8.404   1.461   9.427  0.8922  0.4997  0.7170
  293SOL    HW2 1458   8.259   1.499   9.452  0.3577 -0.4390 -0.8102
  294SOL     OW 1459   6.373   4.599   6.430  0.1704 -0.2152 -0.5822
  294SOL    HW1 1460   6.434   4.533   6.462  1.5586  0.9645 -0.6605
  294SOL    HW2 1461   6.302   4.600   6.495  1.1084 -0.4189  0.4892
  295SOL     OW 1462   0.380   8.318   1.260  0.6800 -0.0509  0.1309
  295SOL    HW1 1463   0.374   8.347   1.169  0.3375 -1.5883 -0.3757
  295SOL    HW2 1464   0.452   8.368   1.297  0.2456  1.2584 -0.7158
  296SOL     OW 1465   3.391   9.751   5.584 -0.1544  0.4499  0.3546
  296SOL    HW1 1466   3.305   9.712   5.599 -0.0316  0.1634  0.3110
  296SOL    HW2 1467   3.428   9.703   5.510 -0.3671  1.2354 -0.2762
  297SOL     OW 1468   7.437   0.927   8.180 -0.1027  0.2884  0.2270
  297SOL    HW1 1469   7.460   1.012   8.217 -2.4353  0.7693  0.7996
  297SOL    HW2 1470   7.347   0.912   8.210 -0.3974 -1.5564 -1.3568
  298SOL     OW 1471   7.654   5.303   4.019  0.0053 -0.4933  0.0168
  298SOL    HW1 1472   7.728   5.355   3.987 -1.6905  1.2200 -1.4000
  298SOL    HW2 1473   7.660   5.308   4.114  0.2980  1.8301 -0.0616
  299SOL     OW 1474   1.438   7.331   1.072  0.2023  0.1441  0.4912
  299SOL    HW1 1475   1.502   7.289   1.129  1.4990  1.1826 -0.1502
  299SOL    HW2 1476   1.400   7.401   1.126  2.6431  2.2473 -0.2979
  300SOL     OW 1477   9.949   3.626   0.775 -0.1413 -0.2472  0.3358
  300SOL    HW1 1478   9.981   3.556   0.718 -0.7467 -0.8431  0.6980
  300SOL    HW2 1479   9.926   3.697   0.715  2.1351  0.3492  0.0943
  301SOL     OW 1480   7.549   1.381   7.242  0.1946 -0.4633  0.8182
  301SOL    HW1 1481   7.578   1.445   7.306 -0.8134 -0.0198  0.8536
  301SOL    HW2 1482   7.468   1.418   7.207  0.1033 -1.2703  0.1550
  302SOL     OW 1483   5.090   3.016   2.913 -0.4438  0.1742 -0.5988
  302SOL    HW1 1484   5.012   3.071   2.923 -1.4042 -0.9311 -1.7020
  302SOL    HW2 1485   5.065   2.932   2.951  0.4565  0.0069 -0.3576
  303SOL     OW 1486   5.689   6.704   3.634  0.1042  0.0908  0.0081
  303SOL    HW1 1487   5.623   6.726   3.699 -0.2136 -1.7631  0.3648
  303SOL    HW2 1488   5.659   6.747   3.554 -0.7067  0.5427  0.5420
  304SOL     OW 1489   5.802   4.605   1.215  0.2365  0.3708  0.4403
  304SOL    HW1 1490   5.763   4.614   1.302  1.0252 -1.4038  1.0276
  304SOL    HW2 1491   5.758   4.530   1.177  0.6735  0.4646 -0.2644
  305SOL     OW 1492   9.294   6.776   5.474 -0.3267  0.6194  0.4939
  305SOL    HW1 1493   9.228   6.829   5.519 -1.0710 -0.7456  1.1135
  305SOL    HW2 1494   9.262   6.686   5.485  0.5413  0.0906 -1.0545
  306SOL     OW 1495   4.102   5.375   7.674 -0.6135  0.6717 -0.5459
  306SOL    HW1 1496   4.116   5.470   7.673  0.6580  0.5160 -2.8420
  306SOL    HW2 1497   4.078   5.356   7.765  0.6753  2.9706  0.3698
  307SOL     OW 1498   4.360   6.398   0.780 -0.1125  0.0058  0.1251
  307SOL    HW1 1499   4.272   6.365   0.801 -1.0798  1.5350 -1.2439
  307SOL    HW2 1500   4.367   6.389   0.685 -0.7593  4.1251 -0.5152
  308SOL     OW 1501   1.402   7.634   2.322 -0.3935 -0.6840 -0.2736
  308SOL    HW1 1502   1.367   7.720   2.343 -0.1206 -0.4453 -0.7773
  308SOL    HW2 1503   1.355   7.607   2.243  1.1664  0.0452 -1.5074
  309SOL     OW 1504   4.490   8.888   6.973  0.0809 -0.4117 -0.7700
  309SOL    HW1 1505   4.429   8.883   7.046  1.6357  0.9269  0.6843
  309SOL    HW2 1506   4.535   8.803   6.973 -0.1407 -0.5293 -0.3639
  310SOL     OW 1507   7.897   8.532   0.538  0.0635  0.1079  0.2704
  310SOL    HW1 1508   7.869   8.618   0.568 -2.5056  0.1213 -1.8539
  310SOL    HW2 1509   7.941   8.493   0.614  0.2488  2.7924  1.6474
  311SOL     OW 1510   9.180   1.676   1.015 -0.6261  0.5483  0.3429
  311SOL    HW1 1511   9.185   1.583   1.034  1.8145  0.7433  1.0151
  311SOL    HW2 1512   9.203   1.683   0.922  0.5987  0.5498  0.6296
  312SOL     OW 1513   5.386   8.058   2.085 -0.7368  0.1644 -0.2772
  312SOL    HW1 1514   5.436   8.126   2.039 -0.6804 -1.3678 -2.6868
  312SOL    HW2 1515   5.314   8.105   2.127 -0.2545  1.8003 -1.2156
  313SOL     OW 1516   4.897   6.962   1.512  0.4956  0.7519  0.3285
  313SOL    HW1 1517   4.900   6.868   1.495  1.3552  0.7626  0.3276
  313SOL    HW2 1518   4.887   6.969   1.607 -1.7683  0.6825  0.1396
  314SOL     OW 1519   5.353   4.980   2.299  0.0481  0.5249 -0.1501
  314SOL    HW1 1520   5.296   5.032   2.356 -1.1642 -0.5441 -0.3535
  314SOL    HW2 1521   5.296   4.911   2.265  1.6723 -1.0981  0.3121
  315SOL     OW 1522   3.210   0.313   0.094 -0.0183 -0.5570 -0.1076
  315SOL    HW1 1523   3.279   0.248   0.102  0.5695  0.1388  0.7190
  315SOL    HW2 1524   3.157   0.302   0.173 -0.1370 -0.2857 -0.1464
  316SOL     OW 1525   5.543   6.445   3.852  0.4720 -0.3548  0.2874
  316SOL    HW1 1526   5.605   6.517   3.839  0.0197  0.1427  0.8402
  316SOL    HW2 1527   5.467   6.486   3.894  0.9126 -1.4308  2.2848
  317SOL     OW 1528   0.502   7.551   9.221 -0.6174  0.0215  0.2762
  317SOL    HW1 1529   0.530   7.495   9.293  0.7911  0.2212 -0.0826
  317SOL    HW2 1530   0.410   7.572   9.241 -0.6043 -0.8828  1.3764
  318SOL     OW 1531   6.490   6.477   2.989 -0.0466  0.1073 -0.7321
  318SOL    HW1 1532   6.572   6.507   2.948 -0.4137  1.9501 -0.1945
  318SOL    HW2 1533   6.474   6.391   2.950  2.1344 -0.3002 -0.8645
  319SOL     OW 1534   7.488   1.453   2.431  0.4227  0.0345 -0.6736
  319SOL    HW1 1535   7.568   1.439   2.380 -0.0948  1.4938 -1.9678
  319SOL    HW2 1536   7.515   1.513   2.501  0.3417  1.2149 -1.6051
  320SOL     OW 1537   5.392   3.159   6.337  0.2075 -0.2881  0.0889
  320SOL    HW1 1538   5.397   3.231   6.274 -1.2063 -1.3647 -1.3354
  320SOL    HW2 1539   5.308   3.171   6.381  1.0471  0.2790  1.6140
  321SOL     OW 1540   9.805   7.491   7.509  0.4817 -0.3337  0.3005
  321SOL    HW1 1541   9.751   7.512   7.585  0.0105 -0.4282 -0.0033
  321SOL    HW2 1542   9.875   7.437   7.544 -0.5754 -1.6797  0.4437
  322SOL     OW 1543   9.343   5.264   7.840 -0.2983  0.1597  0.2957
  322SOL    HW1 1544   9.387   5.347   7.860  1.6341 -0.8277  0.3516
  322SOL    HW2 1545   9.377   5.239   7.754 -1.0557 -0.4813  0.1676
  323SOL     OW 1546   9.312   9.385   8.662  0.3688 -0.1490  0.5657
  323SOL    HW1 1547   9.225   9.372   8.699 -0.0855  1.4991  0.1305
  323SOL    HW2 1548   9.303   9.360   8.570  1.1646 -2.9367  1.1558
  324SOL     OW 1549   3.123   8.196   6.959  0.6178 -0.5854  0.1989
  324SOL    HW1 1550   3.061   8.262   6.988 -0.6991 -0.5901 -2.3049
  324SOL    HW2 1551   3.198   8.205   7.018  0.5968  3.3021 -0.1181
  325SOL     OW 1552   8.847   0.686   4.379 -0.1884  0.3043  0.0855
  325SOL    HW1 1553   8.789   0.672   4.455 -0.0405  0.4655  0.2295
  325SOL    HW2 1554   8.866   0.780   4.381 -1.0594  0.5116 -0.7919
  326SOL     OW 1555   9.681   9.122   0.309 -0.1869  0.3168  0.1187
  326SOL    HW1 1556   9.678   9.175   0.229  2.0003 -0.4473 -0.5503
  326SOL    HW2 1557   9.699   9.186   0.378  1.9230  0.6178 -0.6097
  327SOL     OW 1558   5.080   0.643   4.068  0.1312  0.4685 -0.2814
  327SOL    HW1 1559   5.023   0.629   3.993  0.9727 -0.2791 -0.7958
  327SOL    HW2 1560   5.148   0.703   4.036 -0.2636  1.2221  0.2764
  328SOL     OW 1561   6.046   8.691   5.383  0.0305  0.0818 -0.0464
  328SOL    HW1 1562   6.046   8.786   5.393  0.0197 -0.1554  3.5823
  328SOL    HW2 1563   5.955   8.665   5.400 -0.2196 -0.5511 -2.1548
  329SOL     OW 1564   8.093   8.349   8.667 -0.6098 -0.0470 -0.2224
  329SOL    HW1 1565   8.090   8.258   8.694  0.1243  0.4639  1.6830
  329SOL    HW2 1566   8.005   8.367   8.634 -0.7551 -1.4287 -0.6451
  330SOL     OW 1567   5.114   6.861   4.530  0.1460  0.2639  0.7166
  330SOL    HW1 1568   5.111   6.784   4.587  0.9427  0.5860  1.2021
  330SOL    HW2 1569   5.083   6.828   4.445 -0.9731 -0.2333  1.2998
  331SOL     OW 1570   9.790   5.758   9.225 -0.2419 -0.7227 -0.0866
  331SOL    HW1 1571   9.740   5.810   9.287 -2.4490 -1.4791 -1.1435
  331SOL    HW2 1572   9.727   5.696   9.189  0.9597 -0.4598 -2.9250
  332SOL     OW 1573   1.408   6.419   6.036  0.0251  0.3080 -0.2310
  332SOL    HW1 1574   1.378   6.505   6.064 -2.1048  0.4929 -2.6698
  332SOL    HW2 1575   1.502   6.417   6.056 -0.0658  2.8182  0.6912
  333SOL     OW 1576   9.952   3.672   2.619  0.1815 -0.0848  0.1569
  333SOL    HW1 1577   9.922   3.763   2.621  0.1832 -0.0665 -0.4876
  333SOL    HW2 1578  10.028   3.670   2.676  0.3043  0.3632  0.0110
  334SOL     OW 1579   9.864   0.344   7.368 -0.2750 -0.2542  0.2322
  334SOL    HW1 1580   9.884   0.430   7.332 -0.8467 -0.5079 -0.7271
  334SOL    HW2 1581   9.909   0.282   7.309 -2.1815 -0.7320 -0.7836
  335SOL     OW 1582   7.803   6.374   4.868 -0.2932 -0.5046 -0.1426
  335SOL    HW1 1583   7.764   6.303   4.919  0.9787  0.2474  2.0725
  335SOL    HW2 1584   7.766   6.454   4.907  0.8391  0.1106 -0.2877
  336SOL     OW 1585   4.406   0.775   2.978  0.7847  0.1806  0.4562
  336SOL    HW1 1586   4.483   0.719   2.987  0.2977 -0.3074  1.8400
  336SOL    HW2 1587   4.421   0.845   3.042  1.0323  1.2513 -0.7278
  337SOL     OW 1588   7.841   0.691   1.217  0.2351  0.9722  0.4128
  337SOL    HW1 1589   7.759   0.696   1.167 -1.5735 -0.6200  2.9161
  337SOL    HW2 1590   7.869   0.782   1.227 -0.0394  1.4113 -2.2593
  338SOL     OW 1591   6.730   6.123   5.754  0.9668  0.1009 -0.2697
  338SOL    HW1 1592   6.721   6.047   5.697 -1.8896 -0.6804  1.0539
  338SOL    HW2 1593   6.700   6.196   5.700  0.2578 -0.2880 -0.4046
  339SOL     OW 1594   6.009   4.230   9.562 -0.0363  0.1882 -0.2879
  339SOL    HW1 1595   5.935   4.267   9.514  1.0128  0.5476 -1.6947
  339SOL    HW2 1596   6.054   4.176   9.498  2.0446  1.5584 -0.0835
  340SOL     OW 1597   1.076   7.691   5.676 -0.0222  0.2550  0.8749
  340SOL    HW1 1598   1.110   7.650   5.757  0.4727  2.4783  1.8563
  340SOL    HW2 1599   1.002   7.743   5.705 -0.6514  0.0751 -0.3552
  341SOL     OW 1600   2.308   4.212   0.510 -0.5755 -0.5712  0.0080
  341SOL    HW1 1601   2.379   4.167   0.556 -0.0230  1.0445  0.7954
  341SOL    HW2 1602   2.258   4.255   0.579  0.0553  1.6020 -0.8227
  342SOL     OW 1603   8.805   0.663   4.892  0.2577  0.7073  0.2871
  342SOL    HW1 1604   8.746   0.722   4.940 -0.7753 -0.0934  0.0420
  342SOL    HW2 1605   8.757   0.580   4.888 -0.0755  0.9318 -2.7813
  343SOL     OW 1606   8.372   8.916   5.479 -0.4226  0.3465  0.0931
  343SOL    HW1 1607   8.333   9.003   5.472 -0.0021  0.4296 -2.1533
  343SOL    HW2 1608   8.464   8.928   5.456 -0.6716 -0.8412 -1.7867
  344SOL     OW 1609   8.770   6.338   6.598  0.3803  0.0271  0.0656
  344SOL    HW1 1610   8.749   6.424   6.635  0.7630  0.0939  0.1355
  344SOL    HW2 1611   8.724   6.276   6.655 -0.9667  0.2384 -0.7510
  345SOL     OW 1612   0.977   0.993   2.161  0.6228  0.7062  0.2874
  345SOL    HW1 1613   0.959   0.907   2.122  2.0603 -0.5102  2.1354
  345SOL    HW2 1614   1.071   1.004   2.152  0.5179  1.9022  0.5107
  346SOL     OW 1615   6.047   5.162   4.611 -0.0772 -0.3028  0.8997
  346SOL    HW1 1616   6.020   5.076   4.580  0.0687 -0.1597  0.3777
  346SOL    HW2 1617   6.125   5.183   4.560 -0.1579  0.1712  0.9686
  347SOL     OW 1618   7.589   2.145   6.460  0.3216  0.6028  0.2929
  347SOL    HW1 1619   7.573   2.201   6.536  0.1728  0.3463  0.4529
  347SOL    HW2 1620   7.538   2.066   6.477  2.7908 -0.8547  1.4751
  348SOL     OW 1621   0.999   4.495   9.665  0.3696  0.5326  0.1120
  348SOL    HW1 1622   1.069   4.520   9.724  0.8647  0.8669 -0.6004
  348SOL    HW2 1623   1.038   4.500   9.577 -0.7797  1.5645 -0.3674
  349SOL     OW 1624   7.719   5.569   8.222  0.5084  0.0761 -0.2558
  349SOL    HW1 1625   7.814   5.579   8.226  0.6418  0.0086 -2.3586
  349SOL    HW2 1626   7.687   5.659   8.212  0.3310  0.0897  0.3665
  350SOL     OW 1627   6.008   0.050   4.642  0.5397  0.7646  0.3317
  350SOL    HW1 1628   6.051  -0.008   4.705  1.2830 -0.5892 -1.3390
  350SOL    HW2 1629   6.066   0.126   4.636  1.8718 -0.2639 -0.5961
  351SOL     OW 1630   2.320   5.900   7.184 -0.2076 -0.7036  0.4091
  351SOL    HW1 1631   2.360   5.984   7.206  1.6127 -1.7144  1.1763
  351SOL    HW2 1632   2.251   5.922   7.122 -0.3234  1.4321  1.2085
  352SOL     OW 1633   8.380   7.794   2.921  0.2322  0.0007 -0.2394
  352SOL    HW1 1634   8.302   7.835   2.884 -1.4490  0.3185  3.2831
  352SOL    HW2 1635   8.362   7.700   2.917  0.6726 -0.0593 -1.3139
  353SOL     OW 1636   7.734   4.308   3.561 -0.1742 -0.0229 -0.1348
  353SOL    HW1 1637   7.817   4.339   3.524 -0.2965  0.0632 -0.3374
  353SOL    HW2 1638   7.708   4.236   3.504  0.2288 -0.6597  0.4713
  354SOL     OW 1639   7.473   1.762   3.173  0.1765 -0.1118  0.7461
  354SOL    HW1 1640   7.428   1.786   3.093 -0.2452  0.0899  1.0384
  354SOL    HW2 1641   7.433   1.817   3.241  0.1397 -0.6802  1.1931
  355SOL     OW 1642   7.967   3.617   8.304 -0.1095  0.0107  0.2478
  355SOL    HW1 1643   7.978   3.625   8.399 -1.1412  0.6863  0.3272
  355SOL    HW2 1644   8.054   3.595   8.272  0.2129 -0.4786  1.3718
  356SOL     OW 1645   2.358   7.302   9.343 -0.1944  0.3045  0.3194
  356SOL    HW1 1646   2.449   7.298   9.374 -1.0303 -1.0800  2.9374
  356SOL    HW2 1647   2.347   7.222   9.293 -0.3222 -0.2366  1.1913
  357SOL     OW 1648   4.058   8.318   0.609  0.7769  0.9223  0.5369
  357SOL    HW1 1649   4.037   8.407   0.638  0.8480  1.6245 -1.4195
  357SOL    HW2 1650   4.154   8.314   0.612  0.7672  0.8509  0.7780
  358SOL     OW 1651   0.760   7.230   5.150  0.0950  0.0698 -0.0818
  358SOL    HW1 1652   0.787   7.300   5.091  0.0986  0.1366 -0.0026
  358SOL    HW2 1653   0.758   7.151   5.096 -1.6733  0.4319 -0.6219
  359SOL     OW 1654   4.049   9.026   5.975  0.1064  0.3259  0.7122
  359SOL    HW1 1655   4.049   9.086   6.049  0.0838 -0.2005  1.1444
  359SOL    HW2 1656   4.142   9.013   5.955  0.0999  1.0537  0.1574
  360SOL     OW 1657   8.717   1.896   8.068 -0.2077  0.7904  0.3406
  360SOL    HW1 1658   8.792   1.953   8.049 -0.6583  1.5274  0.6932
  360SOL    HW2 1659   8.693   1.857   7.984  1.9655 -1.2433  0.5832
  361SOL     OW 1660   7.368   4.401   5.889  1.1893 -0.1126  0.8547
  361SOL    HW1 1661   7.400   4.385   5.978  0.8716 -1.7781  0.6883
  361SOL    HW2 1662   7.273   4.388   5.895  0.2757  4.8472  1.3690
  362SOL     OW 1663   3.024   8.766   4.135 -0.0747  0.3254 -0.7787
  362SOL    HW1 1664   3.058   8.849   4.169 -0.2671  0.8260 -1.7530
  362SOL    HW2 1665   3.101   8.715   4.113  0.0541 -0.0208  0.4003
  363SOL     OW 1666   2.640   9.517   5.060 -0.2448  0.3516 -0.4421
  363SOL    HW1 1667   2.660   9.550   4.973 -0.3073  0.8635 -0.2665
  363SOL    HW2 1668   2.549   9.540   5.075 -0.6564 -1.0029 -0.8006
  364SOL     OW 1669   5.044   6.831   7.991  0.7358 -0.0847 -0.0907
  364SOL    HW1 1670   5.115   6.769   7.975  0.9450  0.5106 -1.5351
  364SOL    HW2 1671   4.994   6.791   8.062  1.1450 -1.6930 -0.6652
  365SOL     OW 1672   3.689   3.810   9.474  0.7737  0.2916  0.5052
  365SOL    HW1 1673   3.755   3.830   9.541  2.2373  0.9852 -1.0840
  365SOL    HW2 1674   3.720   3.854   9.395  0.0647 -1.9702 -1.1391
  366SOL     OW 1675   1.035   0.900   8.210  0.4631  0.5686  0.0621
  366SOL    HW1 1676   1.089   0.955   8.153  1.4171  0.7150  1.0645
  366SOL    HW2 1677   0.968   0.959   8.243  0.6477  0.7945  0.0414
  367SOL     OW 1678   5.192   7.600   9.422  0.1049 -0.4111  0.1678
  367SOL    HW1 1679   5.268   7.553   9.456  0.4404  0.3366  0.4654
  367SOL    HW2 1680   5.210   7.609   9.329  0.3647 -0.2689  0.2304
  368SOL     OW 1681   3.423   0.415   0.829 -0.9314 -0.1846 -0.0534
  368SOL    HW1 1682   3.403   0.382   0.917 -1.3722 -1.7371 -0.6924
  368SOL    HW2 1683   3.435   0.336   0.777  3.0249  0.6007 -0.6367
  369SOL     OW 1684   1.194   5.609   2.154 -0.1286  0.1846 -0.8444
  369SOL    HW1 1685   1.267   5.634   2.098  0.7252 -1.5851 -0.6256
  369SOL    HW2 1686   1.123   5.587   2.094  0.0061  0.5239 -1.1289
  370SOL     OW 1687   3.705   4.750   3.187 -0.6025 -0.5148 -0.3995
  370SOL    HW1 1688   3.783   4.725   3.237  0.2437  0.0489 -1.4090
  370SOL    HW2 1689   3.646   4.787   3.253  0.0031 -0.8772  0.3663
  371SOL     OW 1690   8.054   1.039   6.868  0.0113  0.3009 -0.4201
  371SOL    HW1 1691   8.003   1.117   6.847  0.0515  0.4180 -0.0950
  371SOL    HW2 1692   8.020   1.010   6.953  0.3714  0.2871 -0.2794
  372SOL     OW 1693   4.750   5.109   0.454 -0.3846 -0.2708 -0.1139
  372SOL    HW1 1694   4.841   5.087   0.473 -0.8538 -0.7672  1.8307
  372SOL    HW2 1695   4.702   5.028   0.472 -1.4283  0.5557  0.9667
  373SOL     OW 1696   1.581   6.307   3.365  0.1357  0.1928 -0.1548
  373SOL    HW1 1697   1.496   6.345   3.344 -0.3280  0.2530  1.7032
  373SOL    HW2 1698   1.594   6.326   3.458 -1.0207 -5.6792  1.6525
  374SOL     OW 1699   3.641   1.960   4.856  0.8056  0.0684  0.0208
  374SOL    HW1 1700   3.602   2.030   4.909  2.4597  1.6089 -0.6639
  374SOL    HW2 1701   3.641   1.995   4.767  0.7346 -1.2611 -0.5259
  375SOL     OW 1702   3.610   1.023   8.021 -0.0350 -0.0960 -0.4443
  375SOL    HW1 1703   3.584   0.931   8.022  0.0674 -0.1952  2.6925
  375SOL    HW2 1704   3.695   1.024   8.064 -0.2861  1.5200  0.0618
  376SOL     OW 1705   9.219   2.618   5.523  0.2396 -0.1927 -0.3807
  376SOL    HW1 1706   9.144   2.577   5.567  1.3696  0.6693  2.5985
  376SOL    HW2 1707   9.183   2.696   5.482 -0.9211 -1.1680 -1.3171
  377SOL     OW 1708   6.350   6.188   5.344 -0.4060  0.0181 -0.0233
  377SOL    HW1 1709   6.443   6.179   5.366 -0.0598  1.6220 -0.6755
  377SOL    HW2 1710   6.348   6.191   5.248 -1.1464 -0.1736 -0.0215
  378SOL     OW 1711   9.199   4.579   2.712  0.3468  0.2062  0.3813
  378SOL    HW1 1712   9.105   4.561   2.724  0.3425 -0.2560 -0.3110
  378SOL    HW2 1713   9.217   4.553   2.622  2.3020 -5.0194  1.8953
  379SOL     OW 1714   8.705   1.635   3.965 -0.2878 -0.3040 -0.2073
  379SOL    HW1 1715   8.778   1.639   3.902 -0.1050  1.1114  0.0664
  379SOL    HW2 1716   8.643   1.701   3.935 -0.2489  0.3267  1.0116
  380SOL     OW 1717   4.357   9.312   4.606 -0.3441  0.1526  0.2030
  380SOL    HW1 1718   4.315   9.312   4.692  0.5843 -1.1518  0.6952
  380SOL    HW2 1719   4.449   9.292   4.624 -0.6871 -3.7346 -1.2246
  381SOL     OW 1720   5.252   2.414   0.744 -0.1477 -0.1968  0.0321
  381SOL    HW1 1721   5.347   2.421   0.745 -0.1927  0.5156 -0.6797
  381SOL    HW2 1722   5.235   2.324   0.716  0.3057 -0.3320  0.1792
  382SOL     OW 1723   9.480   8.735   1.980  0.3695 -0.4502 -0.3430
  382SOL    HW1 1724   9.572   8.742   2.003  0.7790 -1.9850 -1.3712
  382SOL    HW2 1725   9.470   8.791   1.903  0.2933  0.1662  0.1054
  383SOL     OW 1726   2.799   9.413   8.755  0.3569  0.4584  0.3437
  383SOL    HW1 1727   2.754   9.487   8.714  0.5719 -0.2890 -1.3375
  383SOL    HW2 1728   2.849   9.373   8.684 -1.7814 -2.8732  0.4797
  384SOL     OW 1729   5.902   6.727   6.204  0.3350  0.5774 -0.2827
  384SOL    HW1 1730   5.840   6.670   6.250 -1.4637  1.3577 -1.6384
  384SOL    HW2 1731   5.973   6.740   6.268  0.1526 -1.9843  0.5803
  385SOL     OW 1732   4.280   3.887   1.863 -0.0761 -0.5186  0.0491
  385SOL    HW1 1733   4.301   3.838   1.942 -0.3373 -1.3702 -0.3986
  385SOL    HW2 1734   4.190   3.918   1.878  0.1450 -0.0355  0.3973
  386SOL     OW 1735   7.444   4.311   1.361  0.6773 -0.4629  0.2489
  386SOL    HW1 1736   7.476   4.242   1.419  0.1711 -1.8942 -1.0981
  386SOL    HW2 1737   7.522   4.339   1.313  0.7613 -0.5684  0.3207
  387SOL     OW 1738   8.512   3.219   6.646 -0.0864 -0.3152 -0.4645
  387SOL    HW1 1739   8.590   3.273   6.635  0.0347 -0.7070 -1.6280
  387SOL    HW2 1740   8.440   3.282   6.644  0.2103  0.2251  2.0207
  388SOL     OW 1741   8.920   8.842   9.994 -0.1973  0.4861 -0.1017
  388SOL    HW1 1742   8.951   8.932   9.998 -1.0979  0.8193 -0.2699
  388SOL    HW2 1743   8.963   8.805   9.918  2.3811 -0.1170  1.5400
  389SOL     OW 1744   6.747   6.989   9.804  0.0235 -1.0880 -0.0479
  389SOL    HW1 1745   6.739   6.985   9.900 -0.5029 -1.4064 -0.0970
  389SOL    HW2 1746   6.794   6.909   9.781  2.0398  0.0002  0.1044
  390SOL     OW 1747   3.956   1.655   3.636 -0.3511 -0.2339 -0.4742
  390SOL    HW1 1748   3.892   1.601   3.683 -0.3849  1.3410  1.4410
  390SOL    HW2 1749   3.909   1.684   3.557 -0.3480 -2.8180 -1.5198
  391SOL     OW 1750   3.014   1.144   2.203 -0.0619  0.3987 -0.1339
  391SOL    HW1 1751   3.005   1.135   2.297 -0.5528 -0.4932 -0.2503
  391SOL    HW2 1752   2.930   1.112   2.168 -1.2124  3.7190 -0.7538
  392SOL     OW 1753   7.808   0.072   5.170  0.2409  0.3263 -0.1490
  392SOL    HW1 1754   7.781  -0.016   5.196  2.3908  0.3483  2.5627
  392SOL    HW2 1755   7.876   0.057   5.104 -0.9267  0.0891 -1.3498
  393SOL     OW 1756   3.734   7.132   8.420  0.0588  0.6235 -0.5286
  393SOL    HW1 1757   3.670   7.077   8.465 -0.2728  1.4728  0.0626
  393SOL    HW2 1758   3.721   7.113   8.327 -1.7966  1.5667 -0.5013
  394SOL     OW 1759   2.470   3.329   3.710  0.0061 -0.2281 -0.4656
  394SOL    HW1 1760   2.563   3.334   3.733 -0.1210 -0.4633  0.1177
  394SOL    HW2 1761   2.462   3.382   3.631  0.5934 -0.0036 -0.3807
  395SOL     OW 1762   6.469   8.798   0.542 -0.2322  0.2020 -0.4605
  395SOL    HW1 1763   6.519   8.861   0.488 -2.1431  1.3214 -1.0080
  395SOL    HW2 1764   6.378   8.820   0.525 -0.9489 -2.0903  0.1684
  396SOL     OW 1765   0.250   4.696   4.466  0.3492  0.5454 -0.7764
  396SOL    HW1 1766   0.245   4.772   4.407 -0.6794  1.4331  0.3956
  396SOL    HW2 1767   0.326   4.715   4.522  0.5003  0.3679 -0.9193
  397SOL     OW 1768   7.486   5.782   5.876  0.4901  0.6159  0.3961
  397SOL    HW1 1769   7.559   5.844   5.873  1.5298 -0.5795 -0.5174
  397SOL    HW2 1770   7.431   5.813   5.948  2.8806  0.4995  2.4227
  398SOL     OW 1771   3.995   2.855   9.638  1.2906  0.7925  0.4171
  398SOL    HW1 1772   3.983   2.950   9.639  0.8525  0.7567 -0.3059
  398SOL    HW2 1773   4.007   2.831   9.730  0.6825  1.4627  0.6835
  399SOL     OW 1774   0.866   8.064   3.516 -0.7054  0.0387  0.3341
  399SOL    HW1 1775   0.880   8.102   3.603 -1.9897  1.6058 -0.0966
  399SOL    HW2 1776   0.819   7.982   3.533  1.5742 -1.1730  1.2442
  400SOL     OW 1777   1.934   5.497   2.659 -0.7314  0.2880  0.1816
  400SOL    HW1 1778   1.927   5.420   2.716 -2.8762  1.7529  2.0672
  400SOL    HW2 1779   2.004   5.549   2.697 -0.6546  0.2396  0.1089
  401SOL     OW 1780   2.987   1.822   4.129  0.2576  0.4317  0.4046
  401SOL    HW1 1781   2.988   1.740   4.079 -0.7735  0.8467 -0.3108
  401SOL    HW2 1782   3.054   1.809   4.196  0.1321 -0.9842  0.2836
  402SOL     OW 1783   5.652   0.832   7.240  0.6224 -0.5232 -0.0318
  402SOL    HW1 1784   5.578   0.861   7.187  0.4410 -0.7133  0.1148
  402SOL    HW2 1785   5.722   0.814   7.177  0.1847 -1.4174 -0.2647
  403SOL     OW 1786   1.489   5.069   3.060  0.1182  0.9043  0.2406
  403SOL    HW1 1787   1.419   5.009   3.087  0.2971  0.0589 -1.1055
  403SOL    HW2 1788   1.466   5.152   3.103  0.3435 -0.2801  2.8944
  404SOL     OW 1789   8.830   2.065   3.331  0.5068 -0.7444 -0.2915
  404SOL    HW1 1790   8.900   2.050   3.268 -0.8927  0.6250 -2.3044
  404SOL    HW2 1791   8.761   2.004   3.305  0.3127 -0.9335  0.6282
  405SOL     OW 1792   7.553   4.020   6.611  0.2904  0.1840  0.2603
  405SOL    HW1 1793   7.590   4.101   6.648  0.2774  0.9115 -1.2481
  405SOL    HW2 1794   7.612   3.997   6.540 -0.9729  0.1728 -0.8173
  406SOL     OW 1795   6.907   8.193   3.700 -0.5284 -0.2936  0.1178
  406SOL    HW1 1796   6.872   8.283   3.699 -1.2525 -0.5671 -0.3798
  406SOL    HW2 1797   6.942   8.180   3.613  1.4958  0.2067  0.8146
  407SOL     OW 1798   7.191   9.554   7.938 -0.0178 -0.2158 -0.2574
  407SOL    HW1 1799   7.098   9.578   7.944  0.3533  2.3001 -2.6368
  407SOL    HW2 1800   7.223   9.561   8.028 -2.0189 -0.7079  0.5363
  408SOL     OW 1801   3.345   5.660   0.913  0.6167 -0.0878  0.2242
  408SOL    HW1 1802   3.384   5.612   0.841 -0.3838 -0.6528  0.0371
  408SOL    HW2 1803   3.339   5.750   0.881 -0.0613 -0.3853 -0.5094
  409SOL     OW 1804   7.937   9.262   4.836  0.1136  0.4665 -0.3874
  409SOL    HW1 1805   7.875   9.193   4.862  1.5330 -0.8272 -0.3429
  409SOL    HW2 1806   7.939   9.321   4.912  0.7644 -0.8093  0.6240
  410SOL     OW 1807   9.928   0.722   8.033 -0.1215 -0.2359  0.8671
  410SOL    HW1 1808   9.880   0.781   7.975  1.2714  1.1907  1.1079
  410SOL    HW2 1809   9.880   0.639   8.027 -0.7472  0.2163 -1.3423
  411SOL     OW 1810   3.596   0.274   0.120  0.0253 -0.7129  0.4134
  411SOL    HW1 1811   3.688   0.297   0.107  0.1779 -1.3536  0.2969
  411SOL    HW2 1812   3.549   0.356   0.106  0.5933 -0.3314  0.6916
  412SOL     OW 1813   0.772   5.840   7.104  0.0170 -0.5407  0.5609
  412SOL    HW1 1814   0.799   5.896   7.176  0.7393 -0.8828  0.5607
  412SOL    HW2 1815   0.677   5.847   7.102  0.1545  2.2103 -0.6405
  413SOL     OW 1816   4.655   1.182   6.019  0.2102  0.1143  0.5234
  413SOL    HW1 1817   4.705   1.111   5.980 -0.5730  0.4589 -1.1914
  413SOL    HW2 1818   4.702   1.204   6.099  0.4654 -2.3247  1.1086
  414SOL     OW 1819   6.735   4.445   8.035 -0.6979  0.4433 -0.2644
  414SOL    HW1 1820   6.819   4.427   8.075 -0.8808  0.0067 -0.0700
  414SOL    HW2 1821   6.739   4.537   8.010 -0.1231  0.3936 -0.3580
  415SOL     OW 1822   5.477   4.579   8.425  0.6841  0.0047 -0.4516
  415SOL    HW1 1823   5.386   4.604   8.445  1.0828  0.1332  1.4211
  415SOL    HW2 1824   5.469   4.517   8.352 -1.1175 -1.6606  1.0315
  416SOL     OW 1825   1.027   5.507   5.783  0.1384  0.3245 -0.7770
  416SOL    HW1 1826   1.080   5.474   5.856 -0.8107 -0.1768 -0.2911
  416SOL    HW2 1827   1.024   5.434   5.721 -1.6760 -0.4279  0.1407
  417SOL     OW 1828   7.340   1.801   9.834  0.0728  0.1122  0.2443
  417SOL    HW1 1829   7.367   1.747   9.760  1.8473  1.2128  0.0158
  417SOL    HW2 1830   7.308   1.882   9.795 -1.3281 -0.2231  0.6311
  418SOL     OW 1831   1.496   0.601   9.685  0.2163  0.2687 -0.4458
  418SOL    HW1 1832   1.501   0.506   9.676  0.5025  0.2367  0.0073
  418SOL    HW2 1833   1.443   0.616   9.763 -1.5874  0.5290 -1.6612
  419SOL     OW 1834   6.302   9.700   7.095  0.3063 -0.0617 -0.0600
  419SOL    HW1 1835   6.288   9.780   7.045 -0.6864  0.8983  1.6495
  419SOL    HW2 1836   6.226   9.645   7.074 -0.6237  0.7424  1.0692
  420SOL     OW 1837   6.269   4.977   7.799  0.0892 -0.4449  0.2746
  420SOL    HW1 1838   6.327   4.968   7.723 -0.6582  1.1980 -0.5462
  420SOL    HW2 1839   6.207   4.905   7.791  0.0067 -0.2796 -0.6977
  421SOL     OW 1840   9.506   3.979   6.705  0.1890 -0.5645 -0.4492
  421SOL    HW1 1841   9.487   4.052   6.645 -3.2379 -0.4077  0.6305
  421SOL    HW2 1842   9.551   4.021   6.778 -1.4101  0.4991 -0.0085
  422SOL     OW 1843   8.963   3.974   7.499  0.0796 -0.0230 -0.4103
  422SOL    HW1 1844   8.950   4.056   7.547 -1.4295  0.0777 -0.9613
  422SOL    HW2 1845   9.045   3.988   7.451  0.5314  0.6533  0.5146
  423SOL     OW 1846   3.552   2.719   7.492  0.6183 -0.1042  0.3359
  423SOL    HW1 1847   3.611   2.645   7.478 -1.8133 -2.0975 -0.1116
  423SOL    HW2 1848   3.478   2.682   7.539 -0.9282  1.9446 -0.3620
  424SOL     OW 1849   3.636   2.236   0.301 -0.2796  0.3450 -0.1993
  424SOL    HW1 1850   3.712   2.184   0.328 -0.3108  0.7928  0.7702
  424SOL    HW2 1851   3.596   2.185   0.231 -0.0153 -0.6968  0.3910
  425SOL     OW 1852   9.100   2.766   6.769 -0.4078 -0.7043  0.4159
  425SOL    HW1 1853   9.142   2.833   6.824 -0.3689 -1.1203  0.9030
  425SOL    HW2 1854   9.163   2.695   6.765 -0.7294 -0.9959  0.4733
  426SOL     OW 1855   7.180   5.664   1.893 -0.1947  0.1038 -0.1844
  426SOL    HW1 1856   7.241   5.637   1.961  1.1333  1.8952 -0.5922
  426SOL    HW2 1857   7.189   5.759   1.889 -1.0350  0.1487 -2.1226
  427SOL     OW 1858   1.325   9.320   6.920 -0.1162  0.1853 -0.1872
  427SOL    HW1 1859   1.295   9.410   6.935 -0.1553  0.4031 -1.4088
  427SOL    HW2 1860   1.399   9.330   6.859 -1.3782 -0.7016 -1.9525
  428SOL     OW 1861   7.057   5.555   8.554  0.0244 -0.3393  0.2297
  428SOL    HW1 1862   7.108   5.544   8.473 -0.0876 -0.6477  0.2006
  428SOL    HW2 1863   7.121   5.584   8.618  0.0092  0.4639 -0.1107
  429SOL     OW 1864   9.989   4.244   1.659 -0.0238 -0.4177 -0.2425
  429SOL    HW1 1865  10.031   4.312   1.607 -0.7154  0.3579  0.1718
  429SOL    HW2 1866   9.896   4.267   1.658 -0.1449 -0.7742  0.7452
  430SOL     OW 1867   1.822   0.596   6.435  0.1245 -0.6640  0.2276
  430SOL    HW1 1868   1.882   0.533   6.394  0.3765 -0.2257 -0.0782
  430SOL    HW2 1869   1.799   0.657   6.365 -0.7873 -0.9008  0.3091
  431SOL     OW 1870   1.037   8.520   8.530  0.4062 -0.4979 -0.4006
  431SOL    HW1 1871   0.968   8.549   8.470 -0.6188 -2.1477 -0.0843
  431SOL    HW2 1872   1.049   8.427   8.510  2.6980 -0.2322 -0.5581
  432SOL     OW 1873   6.320   9.433   3.873 -0.1017  0.0864 -0.3740
  432SOL    HW1 1874   6.271   9.403   3.950 -1.7561 -0.3813 -1.5494
  432SOL    HW2 1875   6.405   9.388   3.879 -0.8548 -1.3128  0.2824
  433SOL     OW 1876   0.668   4.135   6.251  0.0786 -0.1348  0.1001
  433SOL    HW1 1877   0.592   4.162   6.199  0.8960 -0.3148 -1.2100
  433SOL    HW2 1878   0.734   4.202   6.236 -0.2661  0.8111  2.3954
  434SOL     OW 1879   4.852   5.907   2.710 -0.6450  0.6400  0.2273
  434SOL    HW1 1880   4.907   5.973   2.752 -1.0865  1.2147 -0.0932
  434SOL    HW2 1881   4.834   5.843   2.780  0.0072  0.7111  0.4644
  435SOL     OW 1882   7.820   7.800   8.537  0.2457  0.3825 -0.2726
  435SOL    HW1 1883   7.884   7.839   8.596 -2.0875  2.6870  0.9362
  435SOL    HW2 1884   7.775   7.874   8.496 -3.7113 -0.8626  1.2993
  436SOL     OW 1885   1.478   0.239   0.032 -0.3563 -0.1390  0.3355
  436SOL    HW1 1886   1.573   0.255   0.031 -0.0828 -1.6285  0.7219
  436SOL    HW2 1887   1.446   0.292   0.105  0.1544  0.4256  0.1670
  437SOL     OW 1888   8.283   0.875   3.992 -0.4065  0.0534  0.3436
  437SOL    HW1 1889   8.316   0.828   3.915 -0.2963  1.9048 -0.7966
  437SOL    HW2 1890   8.327   0.834   4.066 -0.4360 -1.7144 -0.5651
  438SOL     OW 1891   2.274   3.805   7.434  0.1454 -0.4924 -0.0676
  438SOL    HW1 1892   2.244   3.875   7.493  0.3503  0.2326 -0.7930
  438SOL    HW2 1893   2.243   3.724   7.474  1.7476 -0.1776  1.9371
  439SOL     OW 1894   2.508   3.376   4.295 -0.1261 -0.0911  0.0026
  439SOL    HW1 1895   2.426   3.337   4.326 -0.4136  0.6197  0.1683
  439SOL    HW2 1896   2.480   3.449   4.241  0.3690 -1.2564 -1.9049
  440SOL     OW 1897   1.732   1.562   2.223  0.6220 -0.5322 -0.6649
  440SOL    HW1 1898   1.714   1.488   2.164 -1.8949  1.0519 -2.0545
  440SOL    HW2 1899   1.778   1.625   2.167  1.3965 -0.4018  0.1012
  441SOL     OW 1900   3.735   2.584   6.108 -0.2889 -0.0230  0.2435
  441SOL    HW1 1901   3.780   2.575   6.192 -0.6286  0.8439  0.5225
  441SOL    HW2 1902   3.805   2.610   6.047 -0.3318  0.9199  0.5917
  442SOL     OW 1903   6.262   2.121   7.090 -0.1875  0.4459 -0.2451
  442SOL    HW1 1904   6.217   2.103   7.173 -1.1827 -3.9197 -1.4718
  442SOL    HW2 1905   6.193   2.119   7.024  0.9370  1.0113 -1.4926
  443SOL     OW 1906   0.424   1.524   5.620  0.1276 -0.1125 -0.0642
  443SOL    HW1 1907   0.483   1.599   5.617  0.9595 -0.7414  0.0832
  443SOL    HW2 1908   0.387   1.519   5.532 -2.2357  2.2230  0.6754
  444SOL     OW 1909   4.894   5.795   4.021  0.6068 -0.1246  0.2104
  444SOL    HW1 1910   4.843   5.837   4.091  0.2275  0.5382 -0.4455
  444SOL    HW2 1911   4.979   5.837   4.024  0.2426  0.6973 -0.4143
  445SOL     OW 1912   3.991   7.912   2.601 -0.2283  0.4285 -0.0364
  445SOL    HW1 1913   4.055   7.857   2.554 -1.5892 -1.6945  0.4505
  445SOL    HW2 1914   4.038   7.941   2.680  0.7154  0.4830 -0.5973
  446SOL     OW 1915   3.603   7.136   0.520  0.0251  0.1604  0.0315
  446SOL    HW1 1916   3.648   7.073   0.464 -0.2944 -0.2045  0.1813
  446SOL    HW2 1917   3.510   7.113   0.513  0.1254 -1.3275  2.4257
  447SOL     OW 1918   1.003   8.607   5.101 -0.1714  0.4302 -0.3081
  447SOL    HW1 1919   1.088   8.565   5.090  0.0559  0.3106  1.5847
  447SOL    HW2 1920   0.995   8.665   5.025  1.0047 -0.5218 -1.1957
  448SOL     OW 1921   4.707   3.664   2.329 -0.3039 -0.1889  0.0712
  448SOL    HW1 1922   4.629   3.681   2.382 -0.1656 -1.6505  0.8001
  448SOL    HW2 1923   4.718   3.569   2.332  0.2679 -0.2325 -1.8193
  449SOL     OW 1924   5.431   5.909   1.045 -0.0866  0.8954  0.2550
  449SOL    HW1 1925   5.519   5.922   1.010  0.0497  0.0565  0.2445
  449SOL    HW2 1926   5.443   5.896   1.139  0.0101 -0.8470  0.0412
  450SOL     OW 1927   7.540   4.101   5.067 -0.0563 -0.2156  0.2809
  450SOL    HW1 1928   7.464   4.158   5.076 -1.5999 -2.0332 -0.4036
  450SOL    HW2 1929   7.544   4.082   4.973  0.4046 -1.2182  0.4922
  451SOL     OW 1930   9.214   9.318   9.797  0.1899  0.1993  0.0718
  451SOL    HW1 1931   9.267   9.381   9.748  0.6138  1.2540  1.7982
  451SOL    HW2 1932   9.196   9.248   9.734 -1.7958  2.7815 -2.5206
  452SOL     OW 1933   7.202   0.813   8.330  0.3458 -0.1685  0.2373
  452SOL    HW1 1934   7.260   0.774   8.395 -0.2937 -0.7916  0.4342
  452SOL    HW2 1935   7.117   0.818   8.373 -0.5493 -2.3314 -1.1569
  453SOL     OW 1936   4.515   3.009   3.328 -0.3478  0.1113 -0.1156
  453SOL    HW1 1937   4.496   2.915   3.320  2.0685 -0.4433  0.0333
  453SOL    HW2 1938   4.610   3.014   3.340 -0.4212  2.5904 -0.0250
  454SOL     OW 1939   6.182   7.253   2.056  0.2243  0.5097 -0.3759
  454SOL    HW1 1940   6.203   7.255   1.963 -1.6488  0.0072 -0.8664
  454SOL    HW2 1941   6.109   7.191   2.063  1.5887 -0.9934  1.7444
  455SOL     OW 1942   1.800   4.792   9.250 -0.0018 -0.2874 -0.2445
  455SOL    HW1 1943   1.864   4.857   9.279 -1.6788  1.0326  0.6858
  455SOL    HW2 1944   1.758   4.762   9.331  0.4154 -2.2495 -0.6919
  456SOL     OW 1945   1.837   6.084   5.450 -0.2248  0.4393  0.8863
  456SOL    HW1 1946   1.901   6.013   5.448 -1.7603 -1.1132  2.1635
  456SOL    HW2 1947   1.798   6.084   5.363  0.2783  0.1829  0.6589
  457SOL     OW 1948   5.576   1.546   3.222  0.3191  0.2356 -0.4883
  457SOL    HW1 1949   5.490   1.509   3.242 -0.8335  2.5587 -0.8022
  457SOL    HW2 1950   5.567   1.639   3.240  2.2335  0.8354 -2.2134
  458SOL     OW 1951   6.641   9.901   0.976 -0.2605 -0.2110 -0.6842
  458SOL    HW1 1952   6.626   9.842   0.902  0.4693  0.4611 -1.3856
  458SOL    HW2 1953   6.556   9.943   0.991 -0.7182 -1.2270 -0.3469
  459SOL     OW 1954   2.552   8.042   7.784 -0.4134 -0.2085 -0.3972
  459SOL    HW1 1955   2.608   8.109   7.744 -1.0277  0.1540 -0.6642
  459SOL    HW2 1956   2.545   8.068   7.875 -0.3691 -0.1016 -0.4236
  460SOL     OW 1957   0.612   6.922   4.473 -0.0362 -0.5287  0.0513
  460SOL    HW1 1958   0.618   6.999   4.529 -2.3953 -0.9114  0.9334
  460SOL    HW2 1959   0.648   6.950   4.389 -0.9633  1.5911  0.3180
  461SOL     OW 1960   9.140   5.665   3.008  0.2074  0.6054 -0.1642
  461SOL    HW1 1961   9.146   5.601   2.938  1.5036  0.6934 -0.1575
  461SOL    HW2 1962   9.133   5.750   2.963  0.2000  0.5944 -0.1835
  462SOL     OW 1963   4.919   0.234   2.042  0.1258 -0.2445  0.3453
  462SOL    HW1 1964   4.975   0.256   2.116  0.3526  1.0850 -0.1808
  462SOL    HW2 1965   4.835   0.209   2.082 -0.2099  1.8051  1.0492
  463SOL     OW 1966   4.891   2.869   0.289  0.5391 -0.1070  0.2625
  463SOL    HW1 1967   4.892   2.824   0.374 -0.5248 -0.5345  0.0629
  463SOL    HW2 1968   4.826   2.937   0.298  0.9792  0.3504  0.0278
  464SOL     OW 1969   8.932   9.053   5.896 -0.0407  0.1822 -0.0538
  464SOL    HW1 1970   8.928   8.981   5.834  0.0422 -0.1890  0.3731
  464SOL    HW2 1971   8.955   9.129   5.843 -0.9759  0.0696 -0.6451
  465SOL     OW 1972   5.359   3.542   8.583 -0.1324  0.7198 -0.3743
  465SOL    HW1 1973   5.308   3.485   8.526 -0.5602  1.3455 -0.6229
  465SOL    HW2 1974   5.444   3.498   8.591 -0.2939  0.2931 -0.9522
  466SOL     OW 1975   9.435   6.863   2.078  0.0250  0.3195 -0.5228
  466SOL    HW1 1976   9.474   6.827   2.158  0.3326 -0.4439 -1.0102
  466SOL    HW2 1977   9.468   6.807   2.008 -1.5189 -0.0144 -1.0145
  467SOL     OW 1978   9.603   4.781   3.807  0.2557 -0.5154 -0.1561
  467SOL    HW1 1979   9.652   4.863   3.806  0.3292 -0.5460  0.7476
  467SOL    HW2 1980   9.669   4.712   3.803  0.1618 -0.5564 -2.1804
  468SOL     OW 1981   5.180   2.925   7.472  0.7093  0.7453  0.8838
  468SOL    HW1 1982   5.262   2.921   7.521  1.8125 -1.2590 -0.9139
  468SOL    HW2 1983   5.200   2.982   7.397  0.2764  0.6908  0.7241
  469SOL     OW 1984   4.673   9.609   0.317 -0.9238 -0.0134 -0.1473
  469SOL    HW1 1985   4.702   9.560   0.240  0.3254  0.5054 -0.0226
  469SOL    HW2 1986   4.625   9.544   0.369 -2.2505 -0.2462 -1.5739
  470SOL     OW 1987   9.809   5.042   4.279  0.5722  0.0901 -0.3120
  470SOL    HW1 1988   9.739   5.016   4.220  0.3589  0.7314 -0.3472
  470SOL    HW2 1989   9.848   5.119   4.238 -0.0041  0.9458  0.6985
  471SOL     OW 1990   4.732   6.616   9.231  0.4097  0.2534  0.4804
  471SOL    HW1 1991   4.746   6.548   9.297 -0.4570 -1.0070 -0.5948
  471SOL    HW2 1992   4.638   6.619   9.218  0.3905  1.8837  0.6753
  472SOL     OW 1993   8.171   5.454   0.286 -0.3371  0.5167  0.5155
  472SOL    HW1 1994   8.232   5.501   0.229 -0.6714  0.9937  0.5448
  472SOL    HW2 1995   8.209   5.366   0.294  1.3809  1.3366  2.0743
  473SOL     OW 1996   6.378   9.101   4.197 -0.2141 -0.1811 -0.2217
  473SOL    HW1 1997   6.326   9.021   4.209  0.0349 -0.0898  1.8741
  473SOL    HW2 1998   6.459   9.084   4.246  1.8136 -0.3006 -3.3368
  474SOL     OW 1999   6.374   0.443   1.521 -0.3963  0.0126  0.2093
  474SOL    HW1 2000   6.363   0.417   1.430 -0.8124  0.7864  0.0289
  474SOL    HW2 2001   6.459   0.486   1.524 -0.2155 -0.3395  0.2734
  475SOL     OW 2002   3.372   0.785   2.096 -0.0764 -0.3923  0.0305
  475SOL    HW1 2003   3.300   0.724   2.083 -3.0009  2.9264 -0.8767
  475SOL    HW2 2004   3.347   0.836   2.174 -0.0659  2.3713 -1.6264
  476SOL     OW 2005   9.277   6.305   3.523  0.0923 -0.0978 -0.7487
  476SOL    HW1 2006   9.310   6.220   3.552 -1.7665 -0.3140  0.9192
  476SOL    HW2 2007   9.248   6.291   3.434 -0.4860 -1.3163 -0.3789
  477SOL     OW 2008   3.558   3.543   4.228 -0.3159  0.1137  0.1281
  477SOL    HW1 2009   3.505   3.495   4.165 -0.0093 -0.9413  0.6402
  477SOL    HW2 2010   3.517   3.524   4.313  0.8267 -0.7114  0.5291
  478SOL     OW 2011   9.352   0.445   0.384  0.0403  0.1767  0.0867
  478SOL    HW1 2012   9.354   0.383   0.457 -0.3214 -1.3698 -1.1714
  478SOL    HW2 2013   9.297   0.403   0.318 -2.1188  2.8346  0.0223
  479SOL     OW 2014   8.819   8.577   8.486 -0.2249 -0.0232  0.5966
  479SOL    HW1 2015   8.795   8.654   8.434 -0.2318 -0.6378 -0.3271
  479SOL    HW2 2016   8.740   8.524   8.488  0.2003 -0.6991 -0.0306
  480SOL     OW 2017   2.856   1.651   3.064  0.3161 -0.2340  0.6943
  480SOL    HW1 2018   2.783   1.687   3.114 -0.0024 -0.4954  0.4240
  480SOL    HW2 2019   2.819   1.574   3.021  0.7411 -0.3421  0.5208
  481SOL     OW 2020   5.500   9.039   4.332  0.2286 -0.7021  0.0953
  481SOL    HW1 2021   5.557   8.983   4.280 -0.0642 -2.3069  1.4335
  481SOL    HW2 2022   5.521   9.018   4.423  2.5239  3.7775  0.9291
  482SOL     OW 2023   4.540   8.248   3.189  0.2603  0.1371 -0.0536
  482SOL    HW1 2024   4.488   8.272   3.265  0.5574  1.0692 -0.1391
  482SOL    HW2 2025   4.630   8.273   3.211  0.1677  1.5788 -1.1781
  483SOL     OW 2026   5.656   0.930   5.988  0.1185 -0.7210 -0.0111
  483SOL    HW1 2027   5.567   0.952   6.015 -0.2991  0.1677 -1.9327
  483SOL    HW2 2028   5.712   0.980   6.046 -0.6567 -0.4348  0.5063
  484SOL     OW 2029   7.736   9.511   6.921  0.0504  0.0503  0.0913
  484SOL    HW1 2030   7.664   9.562   6.883 -0.3981 -0.4063  0.3102
  484SOL    HW2 2031   7.729   9.425   6.879  1.4062  0.4437 -1.0107
  485SOL     OW 2032   9.584   6.746   0.600  0.0390  0.0198  0.3072
  485SOL    HW1 2033   9.653   6.782   0.545  0.3857 -1.1538 -0.0599
  485SOL    HW2 2034   9.631   6.693   0.665 -0.4921 -0.3862  0.3626
  486SOL     OW 2035   8.169   0.532   1.773 -0.1823 -0.6485  0.3173
  486SOL    HW1 2036   8.259   0.556   1.792 -0.1795 -0.7884  0.4878
  486SOL    HW2 2037   8.165   0.437   1.789 -0.6211 -0.4709  1.3784
  487SOL     OW 2038   6.849   9.455   6.031  0.7421  0.0233  0.7389
  487SOL    HW1 2039   6.873   9.493   5.946  0.0937 -1.1416  0.0029
  487SOL    HW2 2040   6.885   9.516   6.096 -2.6504  3.4984 -0.2767
  488SOL     OW 2041   8.989   2.858   2.629 -0.1241  0.4881 -0.2454
  488SOL    HW1 2042   9.052   2.829   2.563  1.0353  0.8305  0.6775
  488SOL    HW2 2043   8.930   2.916   2.582  0.6413  0.6677 -1.0096
  489SOL     OW 2044   5.602   1.434   5.083 -0.2467  0.0343  0.4472
  489SOL    HW1 2045   5.602   1.445   4.988 -0.1210 -1.1817  0.3016
  489SOL    HW2 2046   5.514   1.462   5.111 -0.5904 -0.4488 -0.1307
  490SOL     OW 2047   1.946   0.147   1.209 -0.6057 -0.0827 -0.1939
  490SOL    HW1 2048   1.887   0.136   1.283 -1.3611  1.4272 -0.5360
  490SOL    HW2 2049   1.889   0.167   1.135  0.2872  0.9338 -0.6328
  491SOL     OW 2050   0.789   9.908   9.829  0.6785 -0.1007 -0.2152
  491SOL    HW1 2051   0.752   9.930   9.744  1.5399  1.0269 -0.3212
  491SOL    HW2 2052   0.768   9.816   9.841  0.3800 -0.2307 -1.5589
  492SOL     OW 2053   3.526   6.859   5.736  0.0933  0.3402 -0.4390
  492SOL    HW1 2054   3.513   6.936   5.681  1.0510  1.2291  0.5270
  492SOL    HW2 2055   3.618   6.863   5.762 -0.2342 -0.2493  0.9003
  493SOL     OW 2056   8.604   9.170   6.403  0.6606 -0.5767  0.3807
  493SOL    HW1 2057   8.607   9.198   6.495  1.5927 -1.5818  0.6812
  493SOL    HW2 2058   8.514   9.189   6.376  0.5719  0.4070  1.2742
  494SOL     OW 2059   4.871   9.351   7.026 -0.1158  0.2725 -0.0612
  494SOL    HW1 2060   4.842   9.276   6.974  1.6873 -0.1009 -0.5864
  494SOL    HW2 2061   4.889   9.419   6.961 -0.7132  0.8231  0.3365
  495SOL     OW 2062   7.102   5.959   8.058  0.3948 -0.2504 -0.1470
  495SOL    HW1 2063   7.026   5.925   8.104  0.7877 -1.8423 -0.6182
  495SOL    HW2 2064   7.120   6.043   8.099 -2.1656  0.6123 -0.6259
  496SOL     OW 2065   2.587   4.598   5.309 -0.5337 -0.5502  0.0996
  496SOL    HW1 2066   2.664   4.574   5.360  0.2627 -0.0267 -0.8162
  496SOL    HW2 2067   2.526   4.634   5.373  1.5241  2.7848  0.4626
  497SOL     OW 2068   9.446   4.840   4.788  0.0561  0.2257 -0.0082
  497SOL    HW1 2069   9.492   4.803   4.712 -1.2626 -1.1395 -0.2002
  497SOL    HW2 2070   9.473   4.931   4.791  0.8851  0.0643 -1.5463
  498SOL     OW 2071   6.519   6.841   2.346  1.0352 -0.0965  0.1201
  498SOL    HW1 2072   6.554   6.772   2.403  4.0497  0.7752 -0.4776
  498SOL    HW2 2073   6.502   6.914   2.405  0.8499 -0.3170  0.3434
  499SOL     OW 2074   7.421   2.346   4.101 -0.0533  0.3083 -0.3510
  499SOL    HW1 2075   7.392   2.415   4.042 -1.4232 -1.2550 -1.5966
  499SOL    HW2 2076   7.366   2.356   4.179  1.0658  1.7560  0.2869
  500SOL     OW 2077   1.710   1.546   8.513  0.5906  0.1201 -0.4574
  500SOL    HW1 2078   1.740   1.587   8.595 -1.8249 -0.5153  0.8603
  500SOL    HW2 2079   1.755   1.462   8.511 -0.3369 -0.4586  1.0108
  501SOL     OW 2080   6.016   4.580   6.502 -0.7526 -0.1541  0.0907
  501SOL    HW1 2081   6.046   4.615   6.418 -2.4018 -0.3831 -0.6426
  501SOL    HW2 2082   6.087   4.598   6.563  1.3998 -1.7730 -1.7554
  502SOL     OW 2083   8.365   5.115   6.171  0.2570 -0.3474 -0.0280
  502SOL    HW1 2084   8.332   5.036   6.128  3.1668 -0.4728 -2.3682
  502SOL    HW2 2085   8.434   5.084   6.230 -1.2095  0.1803  2.0541
  503SOL     OW 2086   1.280   8.482   8.212 -0.0855  0.3661  0.6782
  503SOL    HW1 2087   1.322   8.399   8.235  1.2569 -0.2095 -3.1602
  503SOL    HW2 2088   1.345   8.549   8.233  0.5896 -0.0122 -0.1566
  504SOL     OW 2089   4.162   7.578   5.706 -0.7561  0.4196  0.0747
  504SOL    HW1 2090   4.201   7.493   5.723 -0.7832  0.2383 -0.7352
  504SOL    HW2 2091   4.077   7.575   5.750 -0.7799  0.0091  0.0013
  505SOL     OW 2092   0.604   6.681   4.679  0.6878  0.0111 -0.2651
  505SOL    HW1 2093   0.598   6.769   4.642  0.7335 -0.2879 -1.0096
  505SOL    HW2 2094   0.564   6.688   4.765  0.2246  0.6438 -0.5251
  506SOL     OW 2095   2.854   9.592   6.581  0.0113 -0.3376  0.1846
  506SOL    HW1 2096   2.858   9.599   6.485  1.6938 -0.7641  0.1825
  506SOL    HW2 2097   2.946   9.592   6.608 -0.2898 -3.1473  1.5571
  507SOL     OW 2098   9.841   0.517   4.725  0.2281 -0.0783 -0.2917
  507SOL    HW1 2099   9.831   0.484   4.814  0.2226  1.3150  0.2468
  507SOL    HW2 2100   9.912   0.465   4.688  1.1476  0.2147  0.9841
  508SOL     OW 2101   1.101   0.674   4.732  0.0163 -0.1341 -0.0237
  508SOL    HW1 2102   1.064   0.593   4.696 -0.1220 -0.5706  1.0435
  508SOL    HW2 2103   1.039   0.742   4.706  0.4673 -0.2465 -1.4836
  509SOL     OW 2104   8.355   1.800   0.393  1.4564 -0.0404  0.2767
  509SOL    HW1 2105   8.347   1.807   0.488  0.6601  1.6735  0.1328
  509SOL    HW2 2106   8.444   1.828   0.374  0.9784  1.6888  0.4047
  510SOL     OW 2107   7.850   9.586   6.511 -0.0904  0.5069  0.5429
  510SOL    HW1 2108   7.780   9.644   6.542 -0.3576  0.8099 -0.5987
  510SOL    HW2 2109   7.805   9.523   6.455  0.3581 -0.1638  0.9233
  511SOL     OW 2110   1.808   5.095   7.271  0.1282  0.1050 -0.1818
  511SOL    HW1 2111   1.797   5.119   7.364 -0.6361  0.3558 -0.3252
  511SOL    HW2 2112   1.875   5.155   7.239 -0.8669  1.2461 -0.2194
  512SOL     OW 2113   4.866   3.928   4.442  0.0486 -0.1498 -0.3731
  512SOL    HW1 2114   4.929   3.909   4.512  1.8835 -2.3910 -2.4499
  512SOL    HW2 2115   4.920   3.949   4.366 -1.8838  2.7292 -1.1382
  513SOL     OW 2116   0.130   6.913   8.014  0.2397  0.6179 -0.1024
  513SOL    HW1 2117   0.217   6.948   8.035  0.5520 -0.9141  1.4250
  513SOL    HW2 2118   0.071   6.956   8.077  0.4942 -0.8591  1.2155
  514SOL     OW 2119   6.616   5.351   2.914  0.4884  0.7404  0.7852
  514SOL    HW1 2120   6.700   5.347   2.959  0.5123  1.2172  0.7848
  514SOL    HW2 2121   6.638   5.374   2.824  0.5157 -1.0252  0.2913
  515SOL     OW 2122   4.310   4.655   0.561  0.2043  0.0867  0.2887
  515SOL    HW1 2123   4.291   4.709   0.485  0.1772  2.1359  1.6702
  515SOL    HW2 2124   4.249   4.581   0.554  0.5660 -0.0552 -1.9068
  516SOL     OW 2125   6.296   9.784   8.839  0.1579 -0.1560  0.0610
  516SOL    HW1 2126   6.242   9.832   8.902 -0.5888 -1.1786  0.2227
  516SOL    HW2 2127   6.307   9.697   8.878  1.0264 -0.3055 -0.4853
  517SOL     OW 2128   7.761   4.320   9.916  0.3659  0.4592  0.0820
  517SOL    HW1 2129   7.706   4.267   9.973 -0.4950  0.6259 -0.5865
  517SOL    HW2 2130   7.841   4.269   9.906 -1.0283 -1.4958 -1.8246
  518SOL     OW 2131   6.982   6.687   1.340 -0.0935  0.4916 -0.1491
  518SOL    HW1 2132   7.063   6.680   1.390  0.4356  1.5313 -0.8131
  518SOL    HW2 2133   6.990   6.771   1.294 -0.7427 -0.2218 -1.6312
  519SOL     OW 2134   3.881   1.447   0.042 -0.4823 -0.0646  1.0533
  519SOL    HW1 2135   3.815   1.407   0.098 -0.6205 -0.5623  0.5350
  519SOL    HW2 2136   3.858   1.420  -0.046  0.5554 -0.4396  0.8901
  520SOL     OW 2137   9.607   0.278   0.355 -0.3454  0.2299 -0.4691
  520SOL    HW1 2138   9.572   0.267   0.443  1.1930 -0.9502  0.0402
  520SOL    HW2 2139   9.534   0.258   0.297 -1.0161 -0.2913  0.5332
  521SOL     OW 2140   0.049   2.200   4.743 -0.1428  0.0583 -0.3683
  521SOL    HW1 2141   0.094   2.186   4.660  0.4930  1.1011 -0.2238
  521SOL    HW2 2142   0.058   2.117   4.790  0.8629 -0.0296 -0.7048
  522SOL     OW 2143   3.596   4.374   7.721  0.4695 -0.5060  0.3185
  522SOL    HW1 2144   3.661   4.392   7.789  0.4969 -2.8499  1.0171
  522SOL    HW2 2145   3.542   4.304   7.758 -0.3860 -0.8913 -1.5443
  523SOL     OW 2146   6.961   5.580   9.434 -0.3645  0.2886 -0.0016
  523SOL    HW1 2147   7.009   5.619   9.507 -1.6059 -0.2639  1.1602
  523SOL    HW2 2148   7.029   5.551   9.373  0.6927  0.9872  0.8134
  524SOL     OW 2149   1.629   0.284   5.480  0.2378  0.4584  0.2282
  524SOL    HW1 2150   1.671   0.370   5.482 -0.2676  0.7164 -0.1939
  524SOL    HW2 2151   1.689   0.229   5.429 -0.6652  1.2264 -1.7391
  525SOL     OW 2152   8.716   9.317   0.441  0.3214 -0.0434 -0.2981
  525SOL    HW1 2153   8.798   9.290   0.482  0.2501 -0.7269 -0.6003
  525SOL    HW2 2154   8.741   9.335   0.350  0.2393  0.2759 -0.2586
  526SOL     OW 2155   6.906   1.273   0.890  0.0461 -0.0080  0.1931
  526SOL    HW1 2156   6.883   1.350   0.837  2.0454 -0.5246 -1.5583
  526SOL    HW2 2157   6.823   1.227   0.902 -0.6317  0.5565 -1.8412
  527SOL     OW 2158   5.421   7.441   1.833 -0.4034 -0.6368  0.0100
  527SOL    HW1 2159   5.498   7.497   1.835 -0.3029 -0.6789 -1.6214
  527SOL    HW2 2160   5.352   7.493   1.875 -0.0330  0.2813 -0.4853
  528SOL     OW 2161   9.629   2.425   8.179 -0.1437 -0.4658 -0.3340
  528SOL    HW1 2162   9.628   2.472   8.262  0.5419  0.1679 -0.6661
  528SOL    HW2 2163   9.573   2.477   8.122 -2.4597 -2.1050  0.3210
  529SOL     OW 2164   6.807   5.056   6.607  0.0162 -0.0076  0.0448
  529SOL    HW1 2165   6.798   4.964   6.582  0.4607  0.2980 -1.3339
  529SOL    HW2 2166   6.736   5.071   6.669 -0.2303 -1.2118  0.0741
  530SOL     OW 2167   5.123   2.235   9.671 -0.1325 -0.0914 -0.2615
  530SOL    HW1 2168   5.201   2.225   9.725  0.5980 -1.1358 -1.4520
  530SOL    HW2 2169   5.119   2.328   9.651 -0.2357  0.2624  1.2720
  531SOL     OW 2170   7.707   2.959   1.277 -0.5585  0.0833 -0.0366
  531SOL    HW1 2171   7.703   2.967   1.372 -0.2275 -0.2130  0.0041
  531SOL    HW2 2172   7.711   2.864   1.261  1.2755  0.1530 -0.2518
  532SOL     OW 2173   2.611   3.239   6.545 -0.1333 -0.4342  0.0511
  532SOL    HW1 2174   2.632   3.189   6.466  0.4557  1.5566 -1.1269
  532SOL    HW2 2175   2.515   3.237   6.551 -0.3305  0.8976 -1.8279
  533SOL     OW 2176   2.254   1.958   7.837 -0.1909 -0.1086  0.1863
  533SOL    HW1 2177   2.227   1.944   7.746  0.9613 -0.1208 -0.1693
  533SOL    HW2 2178   2.198   2.030   7.867 -1.3287 -0.8174 -0.1757
  534SOL     OW 2179   1.123   6.906   5.978 -0.0604 -0.9028  0.6233
  534SOL    HW1 2180   1.065   6.971   5.938  0.1046 -2.8656 -3.3713
  534SOL    HW2 2181   1.208   6.948   5.982 -0.3552 -0.2294 -0.0410
  535SOL     OW 2182   8.315   6.735   0.362 -0.2915  0.4246 -0.5153
  535SOL    HW1 2183   8.227   6.772   0.365 -1.2687 -1.7849  2.0850
  535SOL    HW2 2184   8.303   6.648   0.324 -0.0419 -1.4630  3.3138
  536SOL     OW 2185   6.051   7.959   1.982 -0.9681 -0.1851  0.3234
  536SOL    HW1 2186   5.969   7.988   2.021 -0.8722  0.9796 -0.2975
  536SOL    HW2 2187   6.115   8.026   2.008 -0.1419 -1.2075  1.0176
  537SOL     OW 2188   2.250   5.668   7.705  0.2072 -0.3226  0.0411
  537SOL    HW1 2189   2.189   5.651   7.777 -1.4158 -1.0354 -1.4308
  537SOL    HW2 2190   2.194   5.702   7.634  1.7822  0.5634 -0.8172
  538SOL     OW 2191   2.729   9.890   8.109  0.1697  0.0214  0.5070
  538SOL    HW1 2192   2.782   9.970   8.110  0.5602 -0.2426  1.7572
  538SOL    HW2 2193   2.793   9.819   8.103 -0.1968 -0.2217 -1.5587
  539SOL     OW 2194   7.591   9.043   9.835 -0.1543 -0.0126  0.2326
  539SOL    HW1 2195   7.506   9.040   9.879 -0.1112  0.2321  0.3336
  539SOL    HW2 2196   7.598   8.959   9.790 -0.1373 -0.3224  0.8131
  540SOL     OW 2197   9.729   4.898   8.614  0.2837  0.0920  0.1032
  540SOL    HW1 2198   9.727   4.828   8.679 -1.6858 -0.9601 -1.0010
  540SOL    HW2 2199   9.665   4.962   8.645 -0.7804 -0.4888 -0.8220
  541SOL     OW 2200   2.224   5.071   2.489 -0.3070 -0.3662  0.0619
  541SOL    HW1 2201   2.284   5.140   2.517  0.7367 -1.3340  0.3031
  541SOL    HW2 2202   2.194   5.030   2.570  0.0914 -1.0125 -0.1101
  542SOL     OW 2203   8.490   2.633   9.159  0.0208  0.6004 -0.3561
  542SOL    HW1 2204   8.470   2.657   9.250  0.7469 -1.5529  0.4364
  542SOL    HW2 2205   8.565   2.574   9.166 -0.7348 -0.6856 -2.2352
  543SOL     OW 2206   1.215   4.111   9.528  0.0407  0.1316  0.1258
  543SOL    HW1 2207   1.219   4.171   9.453  0.9995 -0.9309 -0.6878
  543SOL    HW2 2208   1.272   4.039   9.505 -2.1093 -1.8073  0.4959
  544SOL     OW 2209   8.684   7.571   1.348 -0.1653 -0.3026 -0.3253
  544SOL    HW1 2210   8.629   7.601   1.421 -0.5562 -0.8433 -0.3944
  544SOL    HW2 2211   8.654   7.623   1.274  0.1675  0.1800 -0.1290
  545SOL     OW 2212   5.578   7.756   8.137 -0.2368 -0.0586 -0.3376
  545SOL    HW1 2213   5.670   7.732   8.141 -0.0926  0.5021 -0.3575
  545SOL    HW2 2214   5.534   7.675   8.108  0.4450  0.1550 -2.0978
  546SOL     OW 2215   1.885   6.251   7.274 -0.0498 -0.1663 -0.2890
  546SOL    HW1 2216   1.930   6.279   7.194  0.0595 -1.1366 -0.5810
  546SOL    HW2 2217   1.919   6.163   7.291  0.5417  0.3328  1.2956
  547SOL     OW 2218   9.950   3.465   5.367 -0.1780 -0.4295 -0.0883
  547SOL    HW1 2219  10.004   3.427   5.436  1.8770  1.7793 -0.3557
  547SOL    HW2 2220   9.861   3.463   5.402  0.8162  0.7922  2.7493
  548SOL     OW 2221   2.216   8.489   0.913  0.0530 -0.2090  0.1863
  548SOL    HW1 2222   2.302   8.447   0.920 -0.1232 -0.6901 -0.4453
  548SOL    HW2 2223   2.161   8.425   0.868 -1.0611 -0.5025  1.8611
  549SOL     OW 2224   3.140   2.025   4.325  0.3655 -0.0730  0.6468
  549SOL    HW1 2225   3.222   2.019   4.276 -0.1253  0.5672 -0.2829
  549SOL    HW2 2226   3.118   1.933   4.345  1.4953 -0.2296  1.2750
  550SOL     OW 2227   1.165   6.269   9.397  0.3164  0.2383 -0.0257
  550SOL    HW1 2228   1.257   6.246   9.403  0.9585  1.7836 -2.4591
  550SOL    HW2 2229   1.130   6.212   9.329 -0.2419  0.4798  0.0501
  551SOL     OW 2230   9.092   3.292   8.732 -0.5912 -0.1618 -0.0547
  551SOL    HW1 2231   9.065   3.379   8.759 -0.0288 -0.3401  1.1586
  551SOL    HW2 2232   9.125   3.251   8.812 -0.3185 -1.2872 -0.7154
  552SOL     OW 2233   2.065   6.348   9.160 -0.3528  0.1427  0.3128
  552SOL    HW1 2234   2.116   6.334   9.240 -1.8201  1.2197  1.5080
  552SOL    HW2 2235   2.053   6.261   9.123  0.8463 -0.3137  0.9444
  553SOL     OW 2236   4.552   1.733   9.594  0.1694  0.4003  0.1050
  553SOL    HW1 2237   4.642   1.703   9.594 -0.0481 -0.3466  1.6778
  553SOL    HW2 2238   4.514   1.695   9.514  1.0515  0.1735 -0.2175
  554SOL     OW 2239   4.309   3.212   5.317  0.1704 -0.0617 -0.5200
  554SOL    HW1 2240   4.377   3.272   5.350 -0.5729  1.8721 -2.2853
  554SOL    HW2 2241   4.230   3.265   5.312 -1.4484 -2.1553  1.0782
  555SOL     OW 2242   6.633   0.869   8.970  0.5085 -0.1150 -0.6630
  555SOL    HW1 2243   6.555   0.878   8.915  0.3975 -0.2808 -0.5347
  555SOL    HW2 2244   6.694   0.935   8.937  0.0652  0.4669 -0.3339
  556SOL     OW 2245   3.426   2.540   6.719 -0.0412  0.4987 -1.0241
  556SOL    HW1 2246   3.420   2.523   6.625  0.3188 -2.4735 -0.6048
  556SOL    HW2 2247   3.376   2.469   6.760  1.7311  0.3455  1.0910
  557SOL     OW 2248   2.312   3.755   2.888 -0.4471 -0.1165  0.3221
  557SOL    HW1 2249   2.316   3.718   2.800 -0.0800 -0.8351  0.6330
  557SOL    HW2 2250   2.351   3.689   2.944  0.2678  0.7671  0.8976
  558SOL     OW 2251   9.355   1.960   6.478  0.0391  0.2975 -0.4663
  558SOL    HW1 2252   9.361   2.001   6.564 -0.3357 -0.5482 -0.0204
  558SOL    HW2 2253   9.407   1.880   6.486 -0.2914  0.0311 -0.9165
  559SOL     OW 2254   0.322   7.666   3.555 -0.2317 -0.4979  0.0442
  559SOL    HW1 2255   0.343   7.611   3.479  0.6717 -0.3680  0.1798
  559SOL    HW2 2256   0.408   7.684   3.595 -0.2393  2.7585 -1.1841
  560SOL     OW 2257   0.080   3.814   8.876  0.8689 -0.0452 -0.1499
  560SOL    HW1 2258   0.044   3.895   8.839 -0.0482 -0.5378 -0.3737
  560SOL    HW2 2259   0.174   3.821   8.863  0.7456  0.7301 -0.6863
  561SOL     OW 2260   7.529   2.827   6.213  0.5150  0.3453  0.1709
  561SOL    HW1 2261   7.528   2.853   6.121  2.8984  0.7142  0.1966
  561SOL    HW2 2262   7.614   2.785   6.225 -1.2158 -3.1657  1.3467
  562SOL     OW 2263   5.623   9.006  -0.003 -0.5577  0.2156 -0.1250
  562SOL    HW1 2264   5.599   9.020   0.089 -1.2977  0.0548 -0.2836
  562SOL    HW2 2265   5.700   9.061  -0.016  0.3686 -0.7732  0.9478
  563SOL     OW 2266   4.415   8.309   2.577  0.2698  0.8002  0.4252
  563SOL    HW1 2267   4.360   8.351   2.643 -1.5282 -2.7639  1.4527
  563SOL    HW2 2268   4.409   8.215   2.597  2.8412 -0.1458 -2.4675
  564SOL     OW 2269   9.014   2.585   9.837 -0.4782 -0.6472  0.3160
  564SOL    HW1 2270   9.019   2.681   9.842 -2.2272 -0.5538  0.6904
  564SOL    HW2 2271   8.979   2.559   9.922 -1.4610 -1.4941 -0.3286
  565SOL     OW 2272   7.646   2.240   4.860  0.6475  0.4019 -0.3779
  565SOL    HW1 2273   7.612   2.296   4.930  0.7792  1.0547 -0.8232
  565SOL    HW2 2274   7.726   2.202   4.897  0.8048  0.8677 -0.2265
  566SOL     OW 2275   2.726   7.223   0.286  0.2938  0.4735  0.1192
  566SOL    HW1 2276   2.776   7.294   0.328  0.3278  0.3384  0.3108
  566SOL    HW2 2277   2.788   7.150   0.281 -0.0743  0.0923  0.9557
  567SOL     OW 2278   3.134   6.021   1.058 -0.4763 -0.5949 -0.2210
  567SOL    HW1 2279   3.189   6.086   1.102 -2.7490  0.3624  1.3955
  567SOL    HW2 2280   3.163   6.023   0.966  0.5827  1.5627  0.0942
  568SOL     OW 2281   0.444   3.985   9.846  0.3010 -0.2836 -0.2102
  568SOL    HW1 2282   0.480   3.987   9.935  0.2766  0.1858 -0.2109
  568SOL    HW2 2283   0.519   3.965   9.790  0.2864 -0.7493 -0.0760
  569SOL     OW 2284   3.070   1.889   8.062 -0.4559 -0.0920  0.1108
  569SOL    HW1 2285   3.010   1.882   7.988  0.4291  0.9998 -0.7527
  569SOL    HW2 2286   3.075   1.801   8.097 -2.8537 -0.1473  0.4739
  570SOL     OW 2287   9.423   0.329   5.285 -0.6845  0.3950 -0.3958
  570SOL    HW1 2288   9.405   0.279   5.206  0.9962 -1.7084  0.4717
  570SOL    HW2 2289   9.391   0.274   5.356  0.5371  0.8528  0.5460
  571SOL     OW 2290   8.238   4.390   7.433  0.1211  0.3944  0.2488
  571SOL    HW1 2291   8.151   4.373   7.469 -0.2237 -0.5117 -0.9408
  571SOL    HW2 2292   8.248   4.326   7.363  2.3250 -0.4805  1.2534
  572SOL     OW 2293   4.317   4.913   6.794  0.2555 -0.1094 -0.4908
  572SOL    HW1 2294   4.255   4.865   6.849  0.0661 -0.2651 -0.8404
  572SOL    HW2 2295   4.359   4.975   6.854  0.2214 -0.4413 -0.1177
  573SOL     OW 2296   5.498   7.696   6.323  0.1646 -0.2630 -0.1812
  573SOL    HW1 2297   5.435   7.761   6.355 -0.3900 -0.6183 -0.5283
  573SOL    HW2 2298   5.564   7.747   6.277 -0.5059  0.0282 -0.8453
  574SOL     OW 2299   4.231   4.642   1.904 -0.0066 -0.0866  0.2415
  574SOL    HW1 2300   4.259   4.560   1.863  0.4626  0.5401 -0.7148
  574SOL    HW2 2301   4.235   4.707   1.834  0.2193  0.8868  1.1383
  575SOL     OW 2302   8.723   4.717   9.601  0.1286  0.2860 -0.7470
  575SOL    HW1 2303   8.814   4.691   9.592 -0.0027 -0.1906 -0.7755
  575SOL    HW2 2304   8.682   4.643   9.647  0.0703  1.1474  0.6250
  576SOL     OW 2305   7.632   5.511   4.867  0.5146 -0.0383  0.4213
  576SOL    HW1 2306   7.721   5.543   4.885  0.2309  0.7151  0.5004
  576SOL    HW2 2307   7.608   5.461   4.944  0.5691  0.4165  0.7344
  577SOL     OW 2308   0.002   4.639   7.565 -0.1684 -0.1689 -0.6749
  577SOL    HW1 2309   0.073   4.576   7.580 -0.9729 -1.0116 -0.3393
  577SOL    HW2 2310   0.046   4.715   7.525  1.2431  0.1013  1.2150
  578SOL     OW 2311   0.569   3.867   5.847 -0.2796 -0.0724  0.1564
  578SOL    HW1 2312   0.554   3.944   5.793  0.4006  0.6328  0.9490
  578SOL    HW2 2313   0.634   3.895   5.911 -1.8520 -0.5346  2.0455
  579SOL     OW 2314   3.025   2.568   6.986  0.2024  0.2665 -0.1841
  579SOL    HW1 2315   3.101   2.575   7.043 -1.0795 -0.6981  1.7658
  579SOL    HW2 2316   2.950   2.588   7.043 -1.1596 -0.9374 -1.4490
  580SOL     OW 2317   1.008   4.994   4.434  0.8600  0.2409 -0.4241
  580SOL    HW1 2318   0.985   5.082   4.404  0.8499  0.1587 -0.6566
  580SOL    HW2 2319   1.103   4.991   4.430  0.7976 -0.2800 -1.8977
  581SOL     OW 2320   7.776   6.430   9.467  0.2419  0.7095 -0.2499
  581SOL    HW1 2321   7.728   6.358   9.427  0.2680  0.2962  0.4483
  581SOL    HW2 2322   7.843   6.387   9.521 -1.0152  1.1590  1.8066
  582SOL     OW 2323   0.155   2.106   5.515 -0.6181  0.1368 -0.0167
  582SOL    HW1 2324   0.210   2.073   5.586 -0.8564  0.5015  0.3406
  582SOL    HW2 2325   0.216   2.120   5.442 -0.1631  0.8906  0.4930
  583SOL     OW 2326   4.977   3.921   1.707  0.1374 -0.2202  0.2097
  583SOL    HW1 2327   5.070   3.905   1.687  0.9756  0.8041  2.8990
  583SOL    HW2 2328   4.943   3.835   1.733  0.6492 -0.3696  0.3931
  584SOL     OW 2329   2.436   5.708   8.604 -0.4002  0.1107 -0.1133
  584SOL    HW1 2330   2.446   5.783   8.544  2.3561  0.9859  1.2996
  584SOL    HW2 2331   2.353   5.725   8.649 -0.9426  1.1061 -1.4291
  585SOL     OW 2332   0.914   7.113   5.998  0.1659  0.3642 -0.3837
  585SOL    HW1 2333   0.876   7.059   6.067 -0.3543 -0.8998 -1.6053
  585SOL    HW2 2334   0.945   7.192   6.043 -0.3562 -0.3159  1.2358
  586SOL     OW 2335   3.898   5.035   8.300 -0.3591  0.6265  0.2501
  586SOL    HW1 2336   3.965   5.101   8.316 -1.7150  1.9967  0.5400
  586SOL    HW2 2337   3.915   4.967   8.366  1.2228  0.5115 -0.2298
  587SOL     OW 2338   2.110   1.961   1.622  0.4918  0.1699 -0.1739
  587SOL    HW1 2339   2.126   1.975   1.529 -0.3335 -0.3177 -0.3967
  587SOL    HW2 2340   2.185   1.911   1.652  0.3548 -0.4024 -0.7698
  588SOL     OW 2341   3.542   3.833   0.249  0.2793 -0.5823 -0.0721
  588SOL    HW1 2342   3.636   3.818   0.235  0.6455  0.4119  1.1170
  588SOL    HW2 2343   3.504   3.745   0.254  1.2955 -1.0118  0.3357
  589SOL     OW 2344   2.850   2.206   9.888 -0.1745 -0.3533 -0.2845
  589SOL    HW1 2345   2.795   2.273   9.930 -2.0690 -2.1971  0.3547
  589SOL    HW2 2346   2.846   2.227   9.795 -1.9065 -0.3337 -0.2447
  590SOL     OW 2347   8.785   3.881   9.669  0.1231  0.5738 -0.0650
  590SOL    HW1 2348   8.823   3.873   9.757  0.2500  1.3497 -0.0370
  590SOL    HW2 2349   8.711   3.941   9.681 -0.7944 -0.5164 -0.2133
  591SOL     OW 2350   3.025   4.255   6.018  0.7806  0.1475  0.5608
  591SOL    HW1 2351   3.031   4.161   6.000 -0.7812  0.0133  0.6672
  591SOL    HW2 2352   3.081   4.268   6.095  1.1060 -0.6599  0.4685
  592SOL     OW 2353   5.104   6.347   5.915  0.1209 -0.7021  0.2358
  592SOL    HW1 2354   5.147   6.426   5.947  0.6915 -0.0526 -1.9755
  592SOL    HW2 2355   5.119   6.282   5.984  0.1112  0.9250  1.8462
  593SOL     OW 2356   6.698   2.742   0.576  0.3726 -0.3148 -0.2712
  593SOL    HW1 2357   6.740   2.657   0.565 -0.2821 -0.6921  0.1066
  593SOL    HW2 2358   6.624   2.740   0.515 -0.2883 -0.4520  0.5158
  594SOL     OW 2359   9.305   4.470   6.437 -0.0744  0.1401 -0.2596
  594SOL    HW1 2360   9.354   4.468   6.519 -0.1797  1.8255 -0.1029
  594SOL    HW2 2361   9.215   4.491   6.464 -0.5894 -1.4370 -0.6604
  595SOL     OW 2362   9.805   7.031   6.347 -0.2094 -0.7708 -0.2631
  595SOL    HW1 2363   9.826   7.121   6.323  0.0974 -1.1384 -1.4131
  595SOL    HW2 2364   9.718   7.016   6.310 -1.8607  0.1284  2.8693
  596SOL     OW 2365   5.671   9.747   8.007 -0.7440  1.0058 -0.1480
  596SOL    HW1 2366   5.605   9.743   8.077  0.3298  1.3693  0.9198
  596SOL    HW2 2367   5.685   9.840   7.993  0.1318  0.9391  0.2210
  597SOL     OW 2368   3.011   6.212   5.986  0.1544 -0.0275  0.5580
  597SOL    HW1 2369   3.088   6.260   5.956  0.3797 -0.6647  0.0911
  597SOL    HW2 2370   3.047   6.139   6.038 -0.1915  0.4275  1.4681
  598SOL     OW 2371   3.452   9.161   4.212  0.1402 -0.5426 -0.0255
  598SOL    HW1 2372   3.434   9.182   4.121  0.0599 -1.7312 -0.3072
  598SOL    HW2 2373   3.531   9.107   4.209  0.4846 -0.0985  0.6709
  599SOL     OW 2374   2.560   3.051   7.828 -0.2900  0.2689  0.2424
  599SOL    HW1 2375   2.626   2.983   7.838 -1.8536 -1.4671 -0.6755
  599SOL    HW2 2376   2.505   3.044   7.907  0.2738  1.3516  0.7531
  600SOL     OW 2377   0.873   6.610   9.894 -0.4127 -0.2702 -0.0791
  600SOL    HW1 2378   0.847   6.649   9.811  2.4877 -0.0905 -0.9980
  600SOL    HW2 2379   0.968   6.599   9.888 -0.3561 -2.2583  2.3807
  601SOL     OW 2380   5.206   2.130   6.997  0.3147 -0.7546 -0.3508
  601SOL    HW1 2381   5.287   2.180   7.002 -0.6173  0.7627  0.4948
  601SOL    HW2 2382   5.143   2.190   6.957 -0.6774 -1.4796  0.0697
  602SOL     OW 2383   1.626   0.278   1.763 -0.0823 -0.1999 -0.3271
  602SOL    HW1 2384   1.600   0.366   1.734  0.5149  0.5266  1.2239
  602SOL    HW2 2385   1.710   0.291   1.806 -1.2097 -1.0271  2.3278
  603SOL     OW 2386   6.459   7.204   8.016  0.0309  0.2937  0.2491
  603SOL    HW1 2387   6.499   7.257   8.085  1.9628 -0.2272 -0.4204
  603SOL    HW2 2388   6.516   7.217   7.940 -1.2511 -0.2744 -0.8429
  604SOL     OW 2389   7.538   9.248   3.611  0.7020 -0.4186 -0.4835
  604SOL    HW1 2390   7.449   9.254   3.647 -0.2093 -1.1661 -2.4510
  604SOL    HW2 2391   7.572   9.337   3.618 -0.6722  0.1650 -0.7989
  605SOL     OW 2392   3.535   8.207   8.649  0.1365 -0.7401  0.1615
  605SOL    HW1 2393   3.539   8.282   8.708  0.4694 -1.5529  1.2177
  605SOL    HW2 2394   3.624   8.198   8.615  0.2628 -1.0392  0.5557
  606SOL     OW 2395   9.746   7.076   5.641  0.2420 -0.2635  0.7594
  606SOL    HW1 2396   9.763   7.057   5.734  0.7561  0.2944  0.7817
  606SOL    HW2 2397   9.799   7.012   5.594  0.0337 -0.5026  0.8417
  607SOL     OW 2398   3.743   7.788   2.718 -0.6404 -0.2776  0.1165
  607SOL    HW1 2399   3.724   7.845   2.644  0.2106  0.5961  0.5472
  607SOL    HW2 2400   3.779   7.846   2.784  2.7119 -1.5895 -0.3473
  608SOL     OW 2401   9.848   7.914   6.595  0.3332  0.0689 -0.6108
  608SOL    HW1 2402   9.762   7.905   6.555  0.4728  0.3869 -0.9837
  608SOL    HW2 2403   9.849   8.002   6.631 -0.5771 -0.8898  1.9823
  609SOL     OW 2404   1.868   3.875   7.076  0.2465 -0.1347  0.5330
  609SOL    HW1 2405   1.911   3.955   7.046 -0.9582  1.3979  2.5811
  609SOL    HW2 2406   1.912   3.854   7.159 -1.6173  0.4402  1.7412
  610SOL     OW 2407   3.300   6.019   4.686 -0.6619 -0.5841 -0.1086
  610SOL    HW1 2408   3.278   5.951   4.750 -1.4869 -1.5334 -1.3580
  610SOL    HW2 2409   3.333   6.092   4.739  0.0720 -1.8643  1.2858
  611SOL     OW 2410   4.440   7.893   6.233  0.1282  0.5147  0.2285
  611SOL    HW1 2411   4.405   7.981   6.237  2.0636  1.3494  0.0955
  611SOL    HW2 2412   4.528   7.900   6.270  0.7269 -1.1364 -0.7269
  612SOL     OW 2413   3.940   2.002   4.419  0.7302  0.0894 -0.5691
  612SOL    HW1 2414   4.028   1.974   4.395  0.9952 -0.8971  1.3521
  612SOL    HW2 2415   3.883   1.931   4.390  0.7128  0.1413 -0.6644
  613SOL     OW 2416   5.838   3.058   1.388 -0.2450  0.1592  0.3628
  613SOL    HW1 2417   5.832   3.099   1.301 -0.3817 -0.2432  0.1801
  613SOL    HW2 2418   5.868   3.128   1.445  0.1985  0.3364 -0.0793
  614SOL     OW 2419   8.016   1.945   9.143  0.5824  0.3858  0.2914
  614SOL    HW1 2420   8.062   1.866   9.172  0.8310  0.5668  0.3948
  614SOL    HW2 2421   7.964   1.916   9.067  1.9822  0.4826 -0.7479
  615SOL     OW 2422   2.403   5.217   8.352 -0.5794  0.2771  0.3991
  615SOL    HW1 2423   2.419   5.189   8.442  0.4035 -0.2454  0.0828
  615SOL    HW2 2424   2.358   5.301   8.361  0.6058  0.8495  1.4050
  616SOL     OW 2425   0.156   0.568   7.653  0.1429 -0.5339  0.7646
  616SOL    HW1 2426   0.101   0.492   7.632 -0.0817  0.1885 -1.5679
  616SOL    HW2 2427   0.097   0.629   7.696 -0.8467  0.0324 -1.2683
  617SOL     OW 2428   8.071   8.438   2.022  0.0189 -0.9434 -0.6176
  617SOL    HW1 2429   7.999   8.451   1.961  0.3412 -0.1435 -0.8428
  617SOL    HW2 2430   8.036   8.467   2.107  0.1507 -0.2958 -0.7781
  618SOL     OW 2431   4.223   1.427   8.881  0.6265 -0.1206  0.4006
  618SOL    HW1 2432   4.168   1.506   8.877  1.3277  0.4531  1.4490
  618SOL    HW2 2433   4.186   1.375   8.952 -1.0258 -1.7284 -1.5149
  619SOL     OW 2434   6.301   3.277   1.953  0.1187 -0.0695 -0.5897
  619SOL    HW1 2435   6.372   3.281   2.017  0.5389 -0.7055 -1.0060
  619SOL    HW2 2436   6.343   3.249   1.872 -0.8116 -1.8757 -0.5054
  620SOL     OW 2437   6.269   4.708   6.032 -0.2167  0.2579  0.5188
  620SOL    HW1 2438   6.257   4.775   6.099  2.2029 -0.7881  2.1334
  620SOL    HW2 2439   6.301   4.632   6.079 -1.7452 -1.7106 -1.4302
  621SOL     OW 2440   4.871   4.395   4.161 -0.1923 -0.5982 -0.7613
  621SOL    HW1 2441   4.932   4.340   4.111 -0.2774  0.0057 -1.5616
  621SOL    HW2 2442   4.789   4.390   4.111 -0.5725 -0.7786 -0.1214
  622SOL     OW 2443   3.302   8.756   3.386 -0.1501 -0.1033  0.0347
  622SOL    HW1 2444   3.314   8.833   3.331  0.9220 -0.1641  0.1587
  622SOL    HW2 2445   3.321   8.682   3.328  2.4600 -0.1192  0.7963
  623SOL     OW 2446   4.015   2.098   3.168 -0.1455 -0.3530  0.4375
  623SOL    HW1 2447   4.000   2.110   3.261 -2.7396 -0.1579  0.0643
  623SOL    HW2 2448   3.931   2.065   3.134  0.3856  0.5932 -1.9924
  624SOL     OW 2449   8.680   8.515   1.593 -0.2803 -0.4760  0.0043
  624SOL    HW1 2450   8.737   8.593   1.591  0.6328 -1.1396 -0.6142
  624SOL    HW2 2451   8.600   8.543   1.548 -0.0643  0.1773  0.0028
  625SOL     OW 2452   3.437   1.421   0.512 -0.5959 -0.8369  0.2983
  625SOL    HW1 2453   3.397   1.443   0.428 -0.5627 -2.0355 -0.0425
  625SOL    HW2 2454   3.377   1.458   0.577 -0.2869  0.6826 -0.2241
  626SOL     OW 2455   9.267   8.880   6.429  0.3471 -0.5756 -0.3528
  626SOL    HW1 2456   9.359   8.856   6.434  0.8454  1.0928 -0.7843
  626SOL    HW2 2457   9.254   8.910   6.339  0.1293  1.8534  0.4234
  627SOL     OW 2458   5.678   4.164   8.222 -0.1683 -0.0238  0.0545
  627SOL    HW1 2459   5.742   4.093   8.230  0.7402  0.8450  0.6784
  627SOL    HW2 2460   5.605   4.124   8.175  0.3849 -1.3313  0.2440
  628SOL     OW 2461   8.861   5.934   3.036 -0.2321 -0.1205  0.0055
  628SOL    HW1 2462   8.766   5.917   3.037 -0.2776 -0.3048 -2.5336
  628SOL    HW2 2463   8.894   5.883   3.111 -1.9279 -1.4542 -0.0685
  629SOL     OW 2464   6.720   2.622   9.780  0.0774  0.8602  0.0650
  629SOL    HW1 2465   6.807   2.661   9.790  1.2216 -0.0656 -4.2062
  629SOL    HW2 2466   6.660   2.697   9.787  1.2878  1.7323  1.7227
  630SOL     OW 2467   7.091   2.788   6.269  0.1531 -0.1856 -0.3505
  630SOL    HW1 2468   7.130   2.868   6.234  0.4783 -0.5128 -0.7483
  630SOL    HW2 2469   7.014   2.818   6.318  0.2951  0.3703 -0.4600
  631SOL     OW 2470   3.818   6.502   6.346  0.0433  0.3306 -0.2311
  631SOL    HW1 2471   3.808   6.525   6.254  0.2537  0.3766 -0.2416
  631SOL    HW2 2472   3.796   6.408   6.350 -1.7194  0.7047 -0.0451
  632SOL     OW 2473   5.552   6.700   9.669  0.2155  0.2756 -0.4422
  632SOL    HW1 2474   5.536   6.608   9.689 -1.2969  0.8144  1.0081
  632SOL    HW2 2475   5.633   6.699   9.618 -0.6013 -1.9942 -1.8666
  633SOL     OW 2476   6.581   5.016   8.021 -0.1327 -0.3625  0.1497
  633SOL    HW1 2477   6.502   4.960   8.022  1.2117 -2.3721  0.5517
  633SOL    HW2 2478   6.620   4.999   7.935  1.0468 -1.2249  0.8229
  634SOL     OW 2479   2.776   0.358   5.578  0.5169 -0.9594 -0.6175
  634SOL    HW1 2480   2.804   0.328   5.492  0.8257 -2.1075 -0.1300
  634SOL    HW2 2481   2.857   0.381   5.623  0.3003  0.4836 -0.9177
  635SOL     OW 2482   1.581   3.474   1.314 -0.1386  0.2662  0.2184
  635SOL    HW1 2483   1.606   3.455   1.223  0.2157 -0.5768  0.4820
  635SOL    HW2 2484   1.648   3.533   1.346  0.4986 -0.5150  0.3472
  636SOL     OW 2485   2.214   9.244   2.789 -0.5976  0.3749  0.3087
  636SOL    HW1 2486   2.176   9.268   2.705 -0.6206 -0.2595  0.1319
  636SOL    HW2 2487   2.271   9.170   2.770 -0.0654  0.6607  0.7431
  637SOL     OW 2488   7.528   9.483   2.568 -0.0019  0.4286 -0.9289
  637SOL    HW1 2489   7.495   9.496   2.656 -1.2536  0.2222 -1.3496
  637SOL    HW2 2490   7.609   9.534   2.565  1.2622 -1.2867  0.9980
  638SOL     OW 2491   8.429   1.887   7.627 -0.4963  0.1246 -0.0097
  638SOL    HW1 2492   8.471   1.973   7.622 -1.4542  0.5741 -0.7061
  638SOL    HW2 2493   8.437   1.861   7.718 -1.2940  1.5258  0.4847
  639SOL     OW 2494   4.941   8.753   1.938  0.3878 -0.0386  0.6822
  639SOL    HW1 2495   4.961   8.686   2.003  0.0862  1.0528  1.9370
  639SOL    HW2 2496   4.845   8.759   1.938  0.2232 -1.5478 -1.4853
  640SOL     OW 2497   5.824   1.079   0.247  0.1853  0.0617 -0.5753
  640SOL    HW1 2498   5.889   1.044   0.307 -1.3905 -1.1161  0.5356
  640SOL    HW2 2499   5.823   1.173   0.263 -0.6361 -0.2954  1.7454
  641SOL     OW 2500   3.359   4.437   8.113  0.8320  0.3801 -0.1894
  641SOL    HW1 2501   3.325   4.432   8.023  0.2585  1.1783 -0.0240
  641SOL    HW2 2502   3.315   4.367   8.160 -1.9222  2.3576  0.4319
  642SOL     OW 2503   7.112   0.153   0.375  0.1945 -0.0262 -0.5936
  642SOL    HW1 2504   7.107   0.166   0.470  0.0574  0.5549 -0.6810
  642SOL    HW2 2505   7.188   0.204   0.348  0.2669 -0.2375 -0.7917
  643SOL     OW 2506   3.304   2.524   3.041  0.0248 -0.1322 -0.5615
  643SOL    HW1 2507   3.353   2.462   3.095  0.3558  0.2437 -0.4234
  643SOL    HW2 2508   3.243   2.469   2.991  2.1296 -0.8749 -2.4546
  644SOL     OW 2509   7.405   4.423   6.169  0.2446 -0.2459  0.1101
  644SOL    HW1 2510   7.358   4.376   6.238 -0.3266  1.1520  0.7191
  644SOL    HW2 2511   7.486   4.453   6.210  0.7426 -0.9221 -0.3572
  645SOL     OW 2512   1.199   0.425   8.949 -0.5050 -0.1513 -0.1694
  645SOL    HW1 2513   1.268   0.435   9.015 -0.4384  1.5314 -0.4527
  645SOL    HW2 2514   1.118   0.419   9.000 -0.4113  0.7085  0.0880
  646SOL     OW 2515   6.666   9.055   7.738  0.1383 -0.6595 -0.0284
  646SOL    HW1 2516   6.675   8.972   7.784 -0.0656 -0.8786 -0.3814
  646SOL    HW2 2517   6.646   9.031   7.648 -0.0870 -0.2249 -0.0972
  647SOL     OW 2518   2.784   8.940   6.778 -0.2658 -0.2801  0.1727
  647SOL    HW1 2519   2.829   8.975   6.854 -0.4103 -0.5437  0.3826
  647SOL    HW2 2520   2.833   8.861   6.756 -0.1532 -0.1399 -0.0799
  648SOL     OW 2521   1.416   7.201   4.913  0.4503 -0.6539  0.1264
  648SOL    HW1 2522   1.387   7.291   4.931 -0.5370 -0.9171 -0.1304
  648SOL    HW2 2523   1.342   7.146   4.939  0.7184 -1.3396 -0.5445
  649SOL     OW 2524   2.001   4.044   3.278 -0.0777 -0.1883  0.2342
  649SOL    HW1 2525   1.972   4.125   3.236  1.2881 -1.0408 -2.6229
  649SOL    HW2 2526   1.954   3.975   3.231  0.5626 -1.1631  0.9972
  650SOL     OW 2527   9.648   4.365   6.981 -0.7940 -0.4191  0.3072
  650SOL    HW1 2528   9.727   4.330   7.021  1.6484  1.7156 -2.1620
  650SOL    HW2 2529   9.668   4.366   6.887 -3.3883  1.1144 -0.3247
  651SOL     OW 2530   1.755   3.256   7.969 -0.2614 -0.5441 -0.5949
  651SOL    HW1 2531   1.746   3.281   8.061 -2.6829 -0.6543 -0.7268
  651SOL    HW2 2532   1.750   3.161   7.969 -4.2472 -0.5136 -1.0035
  652SOL     OW 2533   9.718   7.629   7.281  0.1192 -0.1381 -0.4989
  652SOL    HW1 2534   9.717   7.567   7.208 -2.9505 -0.6994 -0.1335
  652SOL    HW2 2535   9.756   7.579   7.353  0.0577 -0.7269 -0.8571
  653SOL     OW 2536   0.346   3.404   2.546 -0.1140  0.1910 -0.3094
  653SOL    HW1 2537   0.351   3.338   2.476  0.9783 -0.2228  0.1492
  653SOL    HW2 2538   0.319   3.484   2.501  1.5101  0.1720 -1.3979
  654SOL     OW 2539   7.849   5.594   2.244  0.4340  0.6898  0.3388
  654SOL    HW1 2540   7.870   5.536   2.171 -0.0699 -0.1867  0.8785
  654SOL    HW2 2541   7.858   5.539   2.322 -2.6512  0.5516  0.6955
  655SOL     OW 2542   2.539   4.549   5.742 -0.0110  0.7174  0.1908
  655SOL    HW1 2543   2.491   4.615   5.693 -1.2831  0.8656  1.5515
  655SOL    HW2 2544   2.573   4.489   5.676 -2.1587  0.5613 -0.8608
  656SOL     OW 2545   3.192   0.762   4.074  0.5031  0.1268 -0.1797
  656SOL    HW1 2546   3.104   0.757   4.036  0.2031  0.3148  0.4645
  656SOL    HW2 2547   3.182   0.723   4.161  1.2398 -0.5593 -0.3969
  657SOL     OW 2548   2.195   8.225   5.506  0.0129 -0.0844 -0.0295
  657SOL    HW1 2549   2.152   8.160   5.562  1.0517  0.3910  1.3875
  657SOL    HW2 2550   2.241   8.282   5.567  2.8872 -0.7164 -1.4253
  658SOL     OW 2551   5.911   9.185   7.006 -0.0087  1.0533  0.5826
  658SOL    HW1 2552   5.974   9.125   7.046  0.3360  2.3412  2.0869
  658SOL    HW2 2553   5.911   9.261   7.064 -2.3514  1.4395  0.1570
  659SOL     OW 2554   6.306   2.947   8.737  0.7460 -0.4596 -0.3295
  659SOL    HW1 2555   6.234   2.896   8.699  1.0207 -0.7622 -0.4526
  659SOL    HW2 2556   6.381   2.929   8.679  0.7585  0.3734 -0.5862
  660SOL     OW 2557   4.230   6.779   0.945  0.6143  0.2357 -0.3891
  660SOL    HW1 2558   4.305   6.729   0.976  1.2238  0.9662 -0.6652
  660SOL    HW2 2559   4.209   6.837   1.018 -1.1610 -1.5347  0.6106
  661SOL     OW 2560   4.099   6.114   1.084 -0.0011  0.0668  0.0497
  661SOL    HW1 2561   4.185   6.078   1.103  0.1871  0.8566  0.7547
  661SOL    HW2 2562   4.080   6.172   1.158 -1.9499 -1.4911  0.8459
  662SOL     OW 2563   0.330   4.458   8.020  0.1013  1.5040 -0.2732
  662SOL    HW1 2564   0.301   4.535   7.970  0.0381  0.2930 -2.1733
  662SOL    HW2 2565   0.312   4.384   7.963  2.0040  0.2216  0.6896
  663SOL     OW 2566   0.367   1.930   8.396 -0.7235 -0.0785 -0.3941
  663SOL    HW1 2567   0.306   2.004   8.397  0.0094  0.6684 -2.8962
  663SOL    HW2 2568   0.451   1.968   8.423 -0.7254 -0.4276  0.1169
  664SOL     OW 2569   5.469   0.634   6.211  0.5946 -0.3042 -0.1357
  664SOL    HW1 2570   5.538   0.645   6.146  1.2980 -0.0084  0.6432
  664SOL    HW2 2571   5.511   0.584   6.281 -0.4773 -1.6386 -0.3997
  665SOL     OW 2572   9.409   0.496   1.454 -0.4579  0.2147  0.2577
  665SOL    HW1 2573   9.316   0.477   1.438  0.0120 -3.9072  1.2996
  665SOL    HW2 2574   9.453   0.468   1.375  0.0027  1.5130  0.0352
  666SOL     OW 2575   6.903   2.336   9.569  0.0767  0.0972 -0.1495
  666SOL    HW1 2576   6.864   2.253   9.541  0.1184  0.2465 -0.6547
  666SOL    HW2 2577   6.860   2.402   9.515 -0.8655  0.5551  1.1020
  667SOL     OW 2578   4.863   8.359   9.643  0.7682  0.8594  0.2398
  667SOL    HW1 2579   4.778   8.335   9.679  0.8025  2.3557  1.4042
  667SOL    HW2 2580   4.903   8.276   9.619 -1.2230  0.1381 -0.8870
  668SOL     OW 2581   8.356   8.760   3.748 -1.0414  0.3556 -0.0393
  668SOL    HW1 2582   8.344   8.799   3.661  0.3481 -0.4916 -0.6496
  668SOL    HW2 2583   8.333   8.668   3.737 -0.8436  0.2367  0.4860
  669SOL     OW 2584   0.357   3.003   5.045 -0.7214  0.3704  0.3083
  669SOL    HW1 2585   0.320   2.930   5.095  0.1706  0.4933  1.1679
  669SOL    HW2 2586   0.304   3.078   5.070 -0.6833  0.3060  0.5908
  670SOL     OW 2587   1.514   3.240   5.979  0.3339  0.1592 -0.4469
  670SOL    HW1 2588   1.588   3.202   5.931  1.6206  1.0463  0.7357
  670SOL    HW2 2589   1.453   3.168   5.990  3.0824 -1.9893  2.5196
  671SOL     OW 2590   9.665   4.888   1.473 -0.1598  0.3295  0.9346
  671SOL    HW1 2591   9.688   4.795   1.478  1.7796  0.8036  1.4375
  671SOL    HW2 2592   9.705   4.918   1.391  0.1544  0.9604  1.3153
  672SOL     OW 2593   5.551   9.426   8.563  0.2442  0.1803 -0.0926
  672SOL    HW1 2594   5.597   9.488   8.507  0.1528  0.0909 -0.2663
  672SOL    HW2 2595   5.464   9.419   8.525 -0.3483  1.3263  0.9607
  673SOL     OW 2596   8.265   3.308   3.330 -0.2760  0.0200  0.3832
  673SOL    HW1 2597   8.304   3.242   3.273  0.8828 -0.4183  1.6301
  673SOL    HW2 2598   8.171   3.307   3.309 -0.1748 -1.5673 -0.0668
  674SOL     OW 2599   8.918   6.510   6.036 -0.0997 -0.0181 -0.5580
  674SOL    HW1 2600   8.845   6.448   6.041  0.0087 -0.2717 -1.7368
  674SOL    HW2 2601   8.993   6.460   6.070 -0.1825 -0.2552 -0.7179
  675SOL     OW 2602   9.805   3.294   0.455 -0.1851  0.2467  0.3020
  675SOL    HW1 2603   9.711   3.313   0.464 -0.8084 -2.3820  0.3800
  675SOL    HW2 2604   9.819   3.286   0.360  0.1813  1.4893  0.2413
  676SOL     OW 2605   8.387   0.292   3.443  0.3145  0.0551  0.2616
  676SOL    HW1 2606   8.352   0.210   3.406  0.4045 -0.5679  1.5111
  676SOL    HW2 2607   8.310   0.340   3.471  0.1950  0.8428 -1.2767
  677SOL     OW 2608   3.603   9.152   6.924  0.5271 -0.2583 -0.7460
  677SOL    HW1 2609   3.523   9.141   6.976  0.6674 -0.2607 -0.5274
  677SOL    HW2 2610   3.586   9.228   6.868  0.7090  0.3016 -0.0528
  678SOL     OW 2611   7.950   4.096   4.476  0.1111  0.2616  0.1750
  678SOL    HW1 2612   8.040   4.123   4.459  0.2379 -0.2160  0.0697
  678SOL    HW2 2613   7.949   4.075   4.570 -0.4777  2.4746  0.7073
  679SOL     OW 2614   8.543   5.035   4.473  0.0518  0.2195  0.7180
  679SOL    HW1 2615   8.454   5.069   4.460 -1.1776 -2.6471  1.0913
  679SOL    HW2 2616   8.566   5.062   4.561 -0.1685  1.4900  0.4125
  680SOL     OW 2617   6.612   5.109   9.734  0.1809 -0.2226 -0.4902
  680SOL    HW1 2618   6.659   5.045   9.681  0.3440  1.0292 -1.9106
  680SOL    HW2 2619   6.594   5.182   9.674  0.3498  1.2411  1.1612
  681SOL     OW 2620   4.322   8.053   5.864  0.2086  0.2518  0.2280
  681SOL    HW1 2621   4.331   8.070   5.958 -1.9090  1.0482  0.3345
  681SOL    HW2 2622   4.412   8.059   5.830  0.9541  0.4162  2.1028
  682SOL     OW 2623   1.017   7.303   3.582 -0.0444 -0.3877 -0.0474
  682SOL    HW1 2624   1.099   7.301   3.533  1.0270  0.0773  1.6285
  682SOL    HW2 2625   1.013   7.219   3.626 -0.0060 -0.0759  0.5676
  683SOL     OW 2626   3.642   6.507   9.925  0.5020  0.5724  0.8343
  683SOL    HW1 2627   3.719   6.450   9.931  0.6078  0.3925 -1.4122
  683SOL    HW2 2628   3.660   6.564   9.851 -1.8214  0.0116 -0.2595
  684SOL     OW 2629   7.079   4.459   6.917  0.0869 -0.3856  0.0482
  684SOL    HW1 2630   7.067   4.507   6.998  0.6805 -1.4180  0.7717
  684SOL    HW2 2631   6.990   4.437   6.889 -0.1133 -0.1942  0.5168
  685SOL     OW 2632   2.887   7.980   9.116  0.4955  0.9676  0.3967
  685SOL    HW1 2633   2.894   8.047   9.048 -0.1958  0.9176  0.2709
  685SOL    HW2 2634   2.890   8.029   9.198  1.1509  1.0429  0.3360
  686SOL     OW 2635   6.120   0.073   1.288  0.4840 -0.1699  0.4532
  686SOL    HW1 2636   6.035   0.074   1.331  0.1863  1.3228 -0.1491
  686SOL    HW2 2637   6.128   0.158   1.245  1.5801 -0.8972 -0.8792
  687SOL     OW 2638   2.189   2.115   8.923  0.4781  0.2389 -0.5043
  687SOL    HW1 2639   2.094   2.108   8.919  0.3843  1.3349 -0.7035
  687SOL    HW2 2640   2.221   2.044   8.868 -0.0840 -2.3834  2.2953
  688SOL     OW 2641   6.584   6.602   6.215 -0.3518  0.1143  0.1906
  688SOL    HW1 2642   6.505   6.553   6.236  0.6874 -2.3701 -1.2874
  688SOL    HW2 2643   6.645   6.537   6.181  1.9667  2.1084  0.2217
  689SOL     OW 2644   1.080   3.362   9.015  0.1436 -0.7743  0.6535
  689SOL    HW1 2645   1.103   3.269   9.018 -1.0435 -1.0703  0.9355
  689SOL    HW2 2646   1.107   3.390   8.927 -0.5188 -1.6763  0.1357
  690SOL     OW 2647   9.222   8.365   6.160 -0.2031 -0.4391 -0.1908
  690SOL    HW1 2648   9.138   8.322   6.177 -0.7869 -0.1542 -2.0904
  690SOL    HW2 2649   9.200   8.458   6.152  0.7211 -0.0076  1.8059
  691SOL     OW 2650   2.622   8.688   2.343 -0.2552  0.4393  0.0934
  691SOL    HW1 2651   2.573   8.666   2.423  1.3610  0.2768  1.0716
  691SOL    HW2 2652   2.711   8.661   2.361  0.2633  0.9154 -1.5856
  692SOL     OW 2653   5.355   8.837   0.259 -0.4712 -0.1621  0.3426
  692SOL    HW1 2654   5.390   8.755   0.223 -1.1013  0.3032 -1.4249
  692SOL    HW2 2655   5.289   8.809   0.323 -0.4474 -1.0212  0.0031
  693SOL     OW 2656   0.649   1.158   4.173 -0.4792  0.0311 -0.0601
  693SOL    HW1 2657   0.745   1.151   4.175 -0.4869 -0.0327  0.2583
  693SOL    HW2 2658   0.625   1.171   4.265 -0.7290  0.7473 -0.2201
  694SOL     OW 2659   2.976   9.922   6.850 -0.4194 -1.1355  0.1968
  694SOL    HW1 2660   3.065   9.950   6.870  0.1353 -2.6819  0.0236
  694SOL    HW2 2661   2.923   9.953   6.923  0.3646 -0.7469  0.6062
  695SOL     OW 2662   4.911   5.170   7.241  1.1627  0.2524  0.3227
  695SOL    HW1 2663   4.967   5.132   7.308 -0.2388  0.6519  1.7773
  695SOL    HW2 2664   4.877   5.250   7.280  0.5551  0.6728 -0.9934
  696SOL     OW 2665   6.938   6.334   7.149 -0.4080  0.3024 -0.0259
  696SOL    HW1 2666   6.951   6.246   7.184  0.4790  0.3549 -0.1911
  696SOL    HW2 2667   6.852   6.361   7.180 -0.7531 -0.6897 -0.1133
  697SOL     OW 2668   3.634   0.166   3.684 -0.6577  0.6333  0.1558
  697SOL    HW1 2669   3.728   0.175   3.698 -0.6687 -0.3409  1.0060
  697SOL    HW2 2670   3.605   0.253   3.654  0.5138  0.9090 -0.2092
  698SOL     OW 2671   5.591   8.647   6.738  0.0083  0.5256 -0.2645
  698SOL    HW1 2672   5.607   8.681   6.826  0.3779  1.7272 -0.7716
  698SOL    HW2 2673   5.515   8.696   6.707  0.2561  0.5604 -0.8337
  699SOL     OW 2674   4.580   1.375   2.437  0.2476  0.0430 -0.2848
  699SOL    HW1 2675   4.529   1.389   2.357  0.3377  1.4258 -0.1163
  699SOL    HW2 2676   4.518   1.338   2.499  0.3743 -1.8888 -1.2275
  700SOL     OW 2677   0.361   4.056   5.358 -0.0360  0.4449 -0.0812
  700SOL    HW1 2678   0.357   3.966   5.326 -2.6532  0.5365 -0.1686
  700SOL    HW2 2679   0.337   4.109   5.281  0.8753  1.1996  0.1347
  701SOL     OW 2680   8.505   5.728   3.065 -0.0850  0.0799 -0.2977
  701SOL    HW1 2681   8.497   5.708   3.158  0.8080  1.5888  0.1343
  701SOL    HW2 2682   8.590   5.692   3.040 -0.4345 -0.5521 -0.6166
  702SOL     OW 2683   4.360   6.470   2.997  0.0586  0.1316 -0.2709
  702SOL    HW1 2684   4.442   6.442   3.038 -0.0164  1.3343  0.7638
  702SOL    HW2 2685   4.331   6.546   3.049 -2.7974 -1.4810  0.7434
  703SOL     OW 2686   4.403   3.044   6.782  0.3344 -0.0652  0.7363
  703SOL    HW1 2687   4.473   2.981   6.765  0.2788 -0.0753  0.5364
  703SOL    HW2 2688   4.422   3.117   6.723  0.7967  0.4217  1.4701
  704SOL     OW 2689   6.780   0.195   4.300 -0.5948  0.8312  0.4643
  704SOL    HW1 2690   6.794   0.290   4.295 -0.6309  0.9164  1.5785
  704SOL    HW2 2691   6.865   0.157   4.281 -0.7988  1.0374 -0.9697
  705SOL     OW 2692   0.004   5.482   8.024  0.2378 -0.0388 -0.5915
  705SOL    HW1 2693   0.061   5.550   8.061  1.0361  0.3954 -2.5047
  705SOL    HW2 2694   0.063   5.424   7.978 -0.8430  0.7866 -3.2052
  706SOL     OW 2695   1.172   0.956   6.873  0.1953 -0.7569 -0.0520
  706SOL    HW1 2696   1.094   1.006   6.899  1.8531  1.7583  0.4835
  706SOL    HW2 2697   1.137   0.881   6.825 -2.5320  0.6803 -0.5646
  707SOL     OW 2698   4.733   7.681   3.429  0.4131  0.4235  0.2776
  707SOL    HW1 2699   4.658   7.741   3.432  1.4359  1.7586  0.3379
  707SOL    HW2 2700   4.768   7.682   3.518  0.1468 -0.6800  0.4018
  708SOL     OW 2701   3.300   3.695   1.615 -0.3392 -0.4512 -0.3104
  708SOL    HW1 2702   3.395   3.702   1.625 -0.3862 -0.1685 -0.0374
  708SOL    HW2 2703   3.282   3.601   1.618 -0.1712 -0.4611  0.6399
  709SOL     OW 2704   3.265   8.556   5.804  0.2325  0.3299 -0.4633
  709SOL    HW1 2705   3.314   8.480   5.773  0.1398 -0.9380  2.2469
  709SOL    HW2 2706   3.313   8.585   5.882 -0.5702  2.1566 -0.5935
  710SOL     OW 2707   5.785   4.818   9.928 -0.0808 -0.2525 -0.1055
  710SOL    HW1 2708   5.791   4.724   9.946 -1.0689 -0.5435 -1.2235
  710SOL    HW2 2709   5.840   4.831   9.851  0.6193  0.2306  0.4555
  711SOL     OW 2710   8.736   1.740   0.648  0.2703  0.2274 -0.3232
  711SOL    HW1 2711   8.662   1.800   0.647  0.5896  0.6162 -0.8784
  711SOL    HW2 2712   8.754   1.723   0.556  0.6096 -0.1933 -0.1814
  712SOL     OW 2713   7.677   5.895   6.556 -0.1722 -0.1978 -0.2373
  712SOL    HW1 2714   7.592   5.852   6.570 -0.1545 -0.4143 -0.7816
  712SOL    HW2 2715   7.668   5.942   6.474 -1.3258  3.6833  1.8489
  713SOL     OW 2716   7.840   6.551   3.389 -0.0024  0.8383  0.0642
  713SOL    HW1 2717   7.907   6.587   3.448  0.4335 -0.4750  0.3922
  713SOL    HW2 2718   7.764   6.608   3.401 -0.0874  0.3387  2.2575
  714SOL     OW 2719   5.988   2.249   9.916 -0.2934 -0.0634 -0.1210
  714SOL    HW1 2720   5.988   2.335   9.873  0.7454  0.0120 -0.0043
  714SOL    HW2 2721   6.001   2.269  10.008  0.5185 -0.3665 -0.1644
  715SOL     OW 2722   8.695   1.060   0.137  0.0620 -0.3498 -0.2383
  715SOL    HW1 2723   8.734   1.019   0.060  0.0826 -0.0340 -0.4004
  715SOL    HW2 2724   8.608   1.088   0.107  0.6279  1.1091 -0.5941
  716SOL     OW 2725   4.116   7.787   7.728 -0.2045  0.3694 -0.2641
  716SOL    HW1 2726   4.137   7.732   7.652  2.0287  0.8047 -0.0304
  716SOL    HW2 2727   4.184   7.855   7.727 -0.4374  0.6863  1.8272
  717SOL     OW 2728   7.851   5.683   0.677  0.1454  0.3999  0.2956
  717SOL    HW1 2729   7.841   5.690   0.582 -0.3138 -2.1722  0.0925
  717SOL    HW2 2730   7.779   5.626   0.705  0.9889  0.1083  2.0227
  718SOL     OW 2731   5.215   7.934   8.984  0.4663  0.3565  0.1870
  718SOL    HW1 2732   5.247   7.978   9.063  0.2170 -0.5877  0.8318
  718SOL    HW2 2733   5.173   7.854   9.016 -3.5253  1.9524 -0.4641
  719SOL     OW 2734   6.347   2.710   0.054  0.1823 -0.1926  0.1519
  719SOL    HW1 2735   6.288   2.646   0.015 -1.1527  0.6502  0.7374
  719SOL    HW2 2736   6.355   2.779  -0.011 -0.0816  0.0441  0.3665
  720SOL     OW 2737   2.502   7.586   2.434 -0.0937 -0.7672  0.2203
  720SOL    HW1 2738   2.536   7.533   2.361 -1.1697  0.6003 -1.3476
  720SOL    HW2 2739   2.411   7.556   2.445 -0.3159 -0.1276  0.1636
  721SOL     OW 2740   3.302   2.863   6.163  0.3838 -0.0687 -0.0313
  721SOL    HW1 2741   3.304   2.959   6.169  1.4349 -0.0884  0.2084
  721SOL    HW2 2742   3.393   2.838   6.151 -0.0245 -0.9832 -1.4231
  722SOL     OW 2743   8.923   6.126   8.512 -0.2527  0.2074  0.7218
  722SOL    HW1 2744   9.013   6.158   8.515 -0.0977  0.0777 -1.1008
  722SOL    HW2 2745   8.873   6.199   8.475 -0.6301 -0.2221  0.3737
  723SOL     OW 2746   9.642   3.834   9.995  0.6894 -0.1174 -0.3364
  723SOL    HW1 2747   9.635   3.814   9.902  1.3056  1.1303 -0.6812
  723SOL    HW2 2748   9.560   3.804  10.033 -0.1333  0.5584 -1.5203
  724SOL     OW 2749   6.704   7.383   5.309  0.5584 -0.0921  0.6785
  724SOL    HW1 2750   6.670   7.339   5.388  0.4187 -1.6537 -0.2102
  724SOL    HW2 2751   6.626   7.410   5.262  0.6095 -0.3239  0.4573
  725SOL     OW 2752   1.921   5.832   1.625 -0.2539 -0.2892 -0.3971
  725SOL    HW1 2753   1.856   5.798   1.686 -0.6228 -0.8329 -1.0820
  725SOL    HW2 2754   1.978   5.757   1.606  0.3707  0.0954 -0.0663
  726SOL     OW 2755   0.225   5.863   7.804  0.4430  0.4942 -0.3021
  726SOL    HW1 2756   0.269   5.929   7.752 -0.0151  1.4739  0.5267
  726SOL    HW2 2757   0.173   5.813   7.741 -1.0956  2.4445 -0.6465
  727SOL     OW 2758   6.298   3.047   0.249 -0.4449  0.1211 -0.0168
  727SOL    HW1 2759   6.333   3.122   0.297 -0.2590  0.6245 -0.9099
  727SOL    HW2 2760   6.232   3.085   0.192 -0.6374 -0.4594 -0.1807
  728SOL     OW 2761   9.005   9.816   0.085 -0.2578 -0.6863 -0.0091
  728SOL    HW1 2762   9.003   9.843   0.177  0.0312 -0.0011 -0.1979
  728SOL    HW2 2763   9.035   9.894   0.038  1.6006 -1.6125 -0.4732
  729SOL     OW 2764   2.188   1.294   6.616  0.1010  0.3502 -0.3146
  729SOL    HW1 2765   2.172   1.317   6.525  0.2140 -0.2752 -0.4966
  729SOL    HW2 2766   2.241   1.366   6.650  1.8884 -0.4245 -1.3372
  730SOL     OW 2767   1.804   7.216   8.474  0.6756  0.2264 -0.4909
  730SOL    HW1 2768   1.796   7.289   8.413  2.9551  0.6737 -0.3507
  730SOL    HW2 2769   1.795   7.138   8.420 -0.1039  0.6027 -0.9165
  731SOL     OW 2770   2.470   8.578   9.076 -0.0636 -0.4904 -0.0620
  731SOL    HW1 2771   2.434   8.619   9.154 -0.3016 -0.2176 -0.3135
  731SOL    HW2 2772   2.485   8.487   9.101 -2.6335 -1.1100 -0.4590
  732SOL     OW 2773   4.034   2.496   5.241 -0.5420  0.1807  0.6503
  732SOL    HW1 2774   4.125   2.503   5.269 -0.6979 -0.6152  1.3815
  732SOL    HW2 2775   4.025   2.405   5.211 -0.9148  0.4512 -0.0931
  733SOL     OW 2776   1.995   2.617   1.155  0.1986 -0.6618 -0.0559
  733SOL    HW1 2777   2.031   2.704   1.170 -0.3972 -0.4488  0.1742
  733SOL    HW2 2778   2.051   2.559   1.207  0.7152 -0.4437 -0.3633
  734SOL     OW 2779   9.382   2.109   4.574 -0.8009 -0.3497  0.0151
  734SOL    HW1 2780   9.460   2.158   4.600  0.2669 -1.7791 -0.4170
  734SOL    HW2 2781   9.329   2.105   4.654 -0.1316  0.0577  0.4909
  735SOL     OW 2782   8.480   9.541   5.832  0.0016  0.1354  0.3413
  735SOL    HW1 2783   8.565   9.570   5.799 -0.5082  1.1524 -0.0932
  735SOL    HW2 2784   8.495   9.529   5.926  1.0875 -1.4442  0.0153
  736SOL     OW 2785   6.137   4.540   8.446  0.2787  0.0694  0.1672
  736SOL    HW1 2786   6.130   4.629   8.412  0.6511 -0.1302 -0.4312
  736SOL    HW2 2787   6.133   4.484   8.369  0.8524 -0.3970  0.4698
  737SOL     OW 2788   1.469   2.826   8.529 -0.3387 -0.2831 -0.0968
  737SOL    HW1 2789   1.479   2.904   8.585 -0.8596  0.3159 -0.8235
  737SOL    HW2 2790   1.557   2.811   8.493  0.0575 -0.8086  1.0354
  738SOL     OW 2791   7.253   5.676   2.593  0.2585 -0.4012 -0.1466
  738SOL    HW1 2792   7.337   5.640   2.566  0.8639  1.4759 -0.8996
  738SOL    HW2 2793   7.250   5.661   2.687  1.2562 -0.8370 -0.1682
  739SOL     OW 2794   6.389   4.167   5.801  0.1338 -0.2979  0.0226
  739SOL    HW1 2795   6.409   4.195   5.711  1.3951 -3.4399 -0.8074
  739SOL    HW2 2796   6.297   4.139   5.797 -0.0297  0.2529 -0.1055
  740SOL     OW 2797   4.523   1.974   7.960 -0.2708 -0.0585  0.4256
  740SOL    HW1 2798   4.602   1.941   8.003 -1.4557 -2.9386  0.6678
  740SOL    HW2 2799   4.489   1.899   7.911 -1.1404  1.9837 -2.3820
  741SOL     OW 2800   5.372   6.872   6.168  0.3564  0.3565 -0.2970
  741SOL    HW1 2801   5.305   6.817   6.209 -0.8475  0.7986 -1.6085
  741SOL    HW2 2802   5.395   6.827   6.087  1.1580  0.5544 -0.1875
  742SOL     OW 2803   4.613   1.888   0.794 -0.6287  0.7623  0.4676
  742SOL    HW1 2804   4.680   1.827   0.763 -1.3890 -0.8777  1.8795
  742SOL    HW2 2805   4.663   1.963   0.828  0.6029 -0.7794  2.2477
  743SOL     OW 2806   4.195   9.864   4.046 -0.2358  0.3522  0.1253
  743SOL    HW1 2807   4.160   9.843   4.133  0.3492  1.4188  0.6309
  743SOL    HW2 2808   4.204   9.959   4.045  3.6267  0.1583  0.4548
  744SOL     OW 2809   3.191   4.595   1.805 -0.2526 -0.1353 -0.2479
  744SOL    HW1 2810   3.114   4.561   1.758  0.0453 -2.3850  0.7225
  744SOL    HW2 2811   3.159   4.610   1.894  0.1874 -0.1398 -0.0866
  745SOL     OW 2812   4.112   2.910   9.327 -0.0381 -0.5471 -0.4272
  745SOL    HW1 2813   4.148   2.862   9.253  1.7788  0.8735 -0.5353
  745SOL    HW2 2814   4.065   2.844   9.378  0.8564 -2.0694 -1.4955
  746SOL     OW 2815   6.424   9.135   4.864  0.5656 -0.4818  0.1821
  746SOL    HW1 2816   6.505   9.098   4.830 -0.7586 -2.2184 -1.3169
  746SOL    HW2 2817   6.401   9.080   4.938  0.6970 -0.0486  0.5499
  747SOL     OW 2818   8.433   8.665   1.502 -0.1327  0.5282  0.2515
  747SOL    HW1 2819   8.351   8.700   1.466  1.1314  0.1587 -3.3461
  747SOL    HW2 2820   8.472   8.739   1.550 -0.9767  1.7516 -0.8818
  748SOL     OW 2821   0.637   8.522   7.436 -0.5302 -0.5415  0.1369
  748SOL    HW1 2822   0.646   8.436   7.477  0.1977 -0.7674 -0.4790
  748SOL    HW2 2823   0.699   8.521   7.364  1.5035  1.4980  1.7259
  749SOL     OW 2824   8.946   2.379   1.708 -0.2232  0.3622 -0.1841
  749SOL    HW1 2825   8.994   2.318   1.652 -0.8313  1.9438 -2.5905
  749SOL    HW2 2826   8.858   2.341   1.713  0.2548 -0.6338  1.1484
  750SOL     OW 2827   5.133   5.713   6.009 -0.4142  0.1582 -0.0934
  750SOL    HW1 2828   5.120   5.668   6.093 -0.6661  1.3860  0.5503
  750SOL    HW2 2829   5.046   5.748   5.987 -0.6469 -1.2023 -1.5198
  751SOL     OW 2830   4.401   4.609   0.889  0.2223 -0.5416  0.4017
  751SOL    HW1 2831   4.337   4.559   0.837  0.8305 -1.6998  0.7411
  751SOL    HW2 2832   4.411   4.692   0.842  1.4246 -1.8935 -1.8585
  752SOL     OW 2833   6.479   0.749   1.691 -0.3563  0.3429 -0.7097
  752SOL    HW1 2834   6.425   0.817   1.652 -1.3394 -0.0665 -0.1046
  752SOL    HW2 2835   6.493   0.686   1.621  0.8402  1.2909 -1.3703
  753SOL     OW 2836   7.303   7.753   0.776 -0.0322 -0.0589 -0.1762
  753SOL    HW1 2837   7.244   7.696   0.826 -0.3818 -0.4069 -0.9697
  753SOL    HW2 2838   7.275   7.841   0.798 -0.6975 -0.2177 -0.3490
  754SOL     OW 2839   6.317   5.802   7.297  0.2766 -0.2241  0.5047
  754SOL    HW1 2840   6.345   5.780   7.386  1.5763 -1.4543 -0.1624
  754SOL    HW2 2841   6.233   5.846   7.308  0.2037 -0.7420  2.3050
  755SOL     OW 2842   6.247   4.586   1.616 -0.6703  0.2340 -0.3611
  755SOL    HW1 2843   6.184   4.582   1.689  1.9415  0.2190  2.0875
  755SOL    HW2 2844   6.230   4.506   1.566 -0.9241 -1.1727  1.7875
  756SOL     OW 2845   2.847   2.181   0.747  0.0116  0.0369  0.2905
  756SOL    HW1 2846   2.827   2.126   0.671  1.0918  3.6492 -2.9593
  756SOL    HW2 2847   2.769   2.174   0.803 -0.8675 -2.7555 -1.1250
  757SOL     OW 2848   4.154   3.710   8.596  0.2888 -0.1644  0.1330
  757SOL    HW1 2849   4.199   3.793   8.617  1.0517 -0.6032  0.2864
  757SOL    HW2 2850   4.211   3.643   8.633  0.0502 -0.7982 -0.6367
  758SOL     OW 2851   4.834   5.171   2.317 -0.3354  0.0888  0.6392
  758SOL    HW1 2852   4.857   5.079   2.324  0.2569  0.1680 -0.1413
  758SOL    HW2 2853   4.740   5.174   2.337 -0.7870 -0.9524 -1.1629
  759SOL     OW 2854   3.832   2.516   4.176 -0.3628  0.2436 -0.0259
  759SOL    HW1 2855   3.902   2.515   4.241  1.7491  3.8516 -1.9030
  759SOL    HW2 2856   3.753   2.535   4.226  0.7284  0.3903  1.7391
  760SOL     OW 2857   6.135   1.613   3.384 -0.2528 -0.3968 -0.4824
  760SOL    HW1 2858   6.152   1.525   3.420  1.3268  0.7201  1.8161
  760SOL    HW2 2859   6.051   1.639   3.422 -0.0686 -0.4135 -0.0572
  761SOL     OW 2860   1.149   6.163   5.010  0.3323  0.3803 -0.0094
  761SOL    HW1 2861   1.141   6.139   4.918 -1.5578  2.5420 -0.5133
  761SOL    HW2 2862   1.218   6.230   5.011  0.7444 -0.0421  0.2539
  762SOL     OW 2863   9.320   8.556   2.884  0.2268 -0.0353 -0.5298
  762SOL    HW1 2864   9.372   8.634   2.905 -0.3190  0.5587 -1.3377
  762SOL    HW2 2865   9.235   8.572   2.926 -0.4765  0.6270 -2.1410
  763SOL     OW 2866   2.604   8.305   9.066  0.3241  0.5082  0.4494
  763SOL    HW1 2867   2.520   8.282   9.026  0.8767 -0.4748 -0.1966
  763SOL    HW2 2868   2.591   8.289   9.159  0.0195 -0.4005  0.2656
  764SOL     OW 2869   6.412   0.779   3.217 -0.3484 -0.5582 -0.1365
  764SOL    HW1 2870   6.392   0.729   3.296 -1.2230 -1.3477 -0.8361
  764SOL    HW2 2871   6.449   0.715   3.156  0.1209 -0.0031 -0.4531
  765SOL     OW 2872   1.596   2.560   0.754  0.5406 -0.1372 -0.4950
  765SOL    HW1 2873   1.529   2.622   0.723  0.7625  0.1597 -0.3902
  765SOL    HW2 2874   1.599   2.574   0.848  0.9659  0.0684 -0.5376
  766SOL     OW 2875   3.159   4.364   3.719  0.1970 -0.0753  0.0905
  766SOL    HW1 2876   3.205   4.281   3.724  1.2738  0.4294 -0.9517
  766SOL    HW2 2877   3.126   4.379   3.808 -0.8226 -2.0306  0.0782
  767SOL     OW 2878   2.190   7.322   8.948 -0.5488 -0.4939 -0.0906
  767SOL    HW1 2879   2.200   7.230   8.974  1.3098 -0.0750  0.8466
  767SOL    HW2 2880   2.275   7.361   8.964 -1.1032  1.2676 -1.1251
  768SOL     OW 2881   4.461   7.731   5.889 -0.2346 -0.4292  0.1473
  768SOL    HW1 2882   4.469   7.636   5.884  1.3334 -0.3695  0.8202
  768SOL    HW2 2883   4.490   7.762   5.803 -1.4226 -0.5679 -0.3196
  769SOL     OW 2884   6.790   1.933   0.111 -0.3705  0.0051 -0.4303
  769SOL    HW1 2885   6.733   1.960   0.183  0.3473 -1.3185  0.6700
  769SOL    HW2 2886   6.740   1.866   0.064 -0.6446  0.5268 -0.8981
  770SOL     OW 2887   9.618   8.688   8.082  0.1379  0.5131 -0.3713
  770SOL    HW1 2888   9.627   8.654   8.171 -0.0279  1.7083  0.1168
  770SOL    HW2 2889   9.549   8.634   8.043  0.5046 -0.2985  0.0723
  771SOL     OW 2890   4.028   5.998   8.460 -0.4608 -0.0521 -0.0259
  771SOL    HW1 2891   4.024   5.969   8.551  0.6921  0.8115  0.3097
  771SOL    HW2 2892   4.086   5.936   8.417 -0.8443 -0.3388 -0.1404
  772SOL     OW 2893   2.224   0.878   5.708 -0.1888  0.0483  0.0695
  772SOL    HW1 2894   2.275   0.850   5.784  0.6839 -0.5213 -0.7014
  772SOL    HW2 2895   2.225   0.802   5.650 -1.6926  0.1197 -0.1037
  773SOL     OW 2896   4.643   7.427   3.725 -0.2924  0.1143  0.2220
  773SOL    HW1 2897   4.662   7.383   3.643 -1.1186  0.6839 -0.2905
  773SOL    HW2 2898   4.643   7.520   3.703 -0.8996  0.2567  0.7830
  774SOL     OW 2899   0.283   0.396   6.313  0.5784 -0.5542  0.3075
  774SOL    HW1 2900   0.315   0.310   6.338  1.2797 -0.3832  0.0102
  774SOL    HW2 2901   0.188   0.391   6.327  0.5257 -1.5854 -0.3303
  775SOL     OW 2902   1.187   2.146   0.337  0.0819  0.5396 -0.1467
  775SOL    HW1 2903   1.232   2.224   0.302 -0.1548 -0.2841 -2.4482
  775SOL    HW2 2904   1.254   2.078   0.339 -0.2243  0.2309 -0.2319
  776SOL     OW 2905   2.684   5.036   5.132  0.1703  0.6006 -0.4008
  776SOL    HW1 2906   2.696   5.127   5.161 -2.8126  1.0825 -0.3787
  776SOL    HW2 2907   2.648   4.991   5.208 -0.0095 -0.1610 -0.9217
  777SOL     OW 2908   2.758   1.945   1.082 -0.2754 -0.1481 -0.2301
  777SOL    HW1 2909   2.836   1.890   1.088 -1.3784 -1.9063 -0.9298
  777SOL    HW2 2910   2.790   2.034   1.090  2.2399 -0.5601 -3.4494
  778SOL     OW 2911   6.599   5.218   5.310 -0.0259  0.1367  0.2750
  778SOL    HW1 2912   6.687   5.255   5.300  0.6248 -1.8876 -3.8799
  778SOL    HW2 2913   6.614   5.125   5.327 -1.2154 -0.4985 -1.7742
  779SOL     OW 2914   9.085   8.684   2.984 -0.2817  0.2793  0.1985
  779SOL    HW1 2915   9.058   8.752   2.922 -0.4902 -1.5889 -1.8704
  779SOL    HW2 2916   9.017   8.685   3.051 -0.9280  1.2863 -0.4325
  780SOL     OW 2917   4.160   5.837   5.500  0.3238 -0.2742 -0.1588
  780SOL    HW1 2918   4.092   5.804   5.441 -0.7765  0.4219  0.6743
  780SOL    HW2 2919   4.213   5.760   5.521 -2.4210 -1.7245  2.0810
  781SOL     OW 2920   1.264   8.374   9.130  0.0080 -0.5549 -0.1721
  781SOL    HW1 2921   1.289   8.435   9.061 -2.7560  1.2510  0.2887
  781SOL    HW2 2922   1.288   8.288   9.096  0.7457  0.4652 -2.4044
  782SOL     OW 2923   5.079   3.420   4.180  0.0637  0.5456  0.7899
  782SOL    HW1 2924   5.173   3.438   4.180  0.3547 -0.7542  2.2006
  782SOL    HW2 2925   5.067   3.355   4.111  0.5168 -0.5559  1.7115
  783SOL     OW 2926   8.112   8.372   5.340  0.2303  0.4911 -0.2480
  783SOL    HW1 2927   8.159   8.411   5.267  0.2258 -0.0501 -0.5410
  783SOL    HW2 2928   8.155   8.288   5.356 -0.5207  0.0615 -0.4161
  784SOL     OW 2929   9.117   3.168   3.767 -0.6232 -0.6778  0.1412
  784SOL    HW1 2930   9.207   3.135   3.775 -0.2559  0.2976  0.1033
  784SOL    HW2 2931   9.072   3.101   3.715 -0.1475 -1.5901  0.8754
  785SOL     OW 2932   1.452   1.642   5.408  0.4137  0.1011  0.0875
  785SOL    HW1 2933   1.390   1.608   5.472 -0.2818  0.8747 -0.1565
  785SOL    HW2 2934   1.403   1.644   5.326  1.0349 -0.0828 -0.2972
  786SOL     OW 2935   8.325   6.949   5.967  0.2618  0.3251  0.3399
  786SOL    HW1 2936   8.293   6.938   6.057  3.0373  0.4067  1.4498
  786SOL    HW2 2937   8.290   6.875   5.919 -0.7499 -0.0836  1.6574
  787SOL     OW 2938   5.439   8.016   2.373  0.1843 -0.4808  0.1941
  787SOL    HW1 2939   5.393   8.007   2.289 -0.6275 -2.4160  0.7778
  787SOL    HW2 2940   5.374   7.988   2.438  0.2375  2.5439  1.6872
  788SOL     OW 2941   8.456   9.913   6.714 -0.0552 -0.5198  0.1381
  788SOL    HW1 2942   8.427  10.003   6.699 -0.5625 -0.6157  0.5290
  788SOL    HW2 2943   8.522   9.920   6.783 -1.5559 -0.6527  1.6418
  789SOL     OW 2944   0.740   5.458   2.324  0.8619 -0.1049  0.4952
  789SOL    HW1 2945   0.829   5.494   2.326  1.1143 -0.5521 -1.3596
  789SOL    HW2 2946   0.752   5.367   2.299 -0.0868 -0.3296  0.8243
  790SOL     OW 2947   0.866   8.424   8.323  0.3437  0.3068 -1.1365
  790SOL    HW1 2948   0.817   8.345   8.299 -1.2301  0.8555  0.0645
  790SOL    HW2 2949   0.930   8.434   8.253  0.3797 -1.8426 -1.4875
  791SOL     OW 2950   9.716   9.512   4.587 -0.4064  0.2779 -0.2186
  791SOL    HW1 2951   9.809   9.509   4.609 -0.2592 -3.0207 -0.8972
  791SOL    HW2 2952   9.713   9.557   4.502  0.3134  1.9484  0.5876
  792SOL     OW 2953   3.682   2.933   4.398  0.2927  0.3120 -0.9382
  792SOL    HW1 2954   3.733   3.000   4.443  0.3162 -0.0304 -0.4403
  792SOL    HW2 2955   3.727   2.919   4.316  3.2320 -2.6032  0.9359
  793SOL     OW 2956   1.378   8.629   3.684  0.1503 -0.1974  0.1703
  793SOL    HW1 2957   1.444   8.631   3.753 -0.4448 -1.7263  0.8303
  793SOL    HW2 2958   1.304   8.679   3.719  0.5017  0.5240 -0.0961
  794SOL     OW 2959   3.364   0.426   9.651  0.0027 -0.3787 -0.1870
  794SOL    HW1 2960   3.338   0.347   9.699 -1.2611 -1.2042 -2.1163
  794SOL    HW2 2961   3.341   0.498   9.710 -0.0096 -1.3914  1.0967
  795SOL     OW 2962   5.023   7.997   3.566  0.2797 -0.6410 -0.0242
  795SOL    HW1 2963   5.056   7.951   3.643 -0.2261 -0.4472  0.3122
  795SOL    HW2 2964   4.928   7.994   3.574  0.2192 -0.6465 -0.6626
  796SOL     OW 2965   1.828   5.773   2.970 -0.3725  0.0989  0.3670
  796SOL    HW1 2966   1.818   5.777   2.875 -0.3853  0.1693  0.3715
  796SOL    HW2 2967   1.838   5.679   2.989  0.7132  0.1693  0.1840
  797SOL     OW 2968   0.175   7.720   3.806 -0.4302 -0.1820  0.0537
  797SOL    HW1 2969   0.244   7.681   3.752  0.3620  1.3853 -0.1353
  797SOL    HW2 2970   0.096   7.671   3.783  0.1915 -0.5718 -1.3830
  798SOL     OW 2971   6.833   2.046   9.562  0.0249  0.4057 -0.1102
  798SOL    HW1 2972   6.759   1.991   9.536 -0.5398  1.4387 -0.7674
  798SOL    HW2 2973   6.868   2.003   9.640  0.3823 -1.5657 -1.2754
  799SOL     OW 2974   0.169   0.318   1.577  0.7263  0.3065  0.4958
  799SOL    HW1 2975   0.075   0.320   1.593  0.7902  0.1275  0.8914
  799SOL    HW2 2976   0.177   0.274   1.492  0.4030  1.1478  0.0087
  800SOL     OW 2977   4.949   7.075   4.562  0.2045 -0.5934 -0.0099
  800SOL    HW1 2978   4.880   7.014   4.588  0.3932 -1.8983 -2.2677
  800SOL    HW2 2979   5.018   7.020   4.526  2.9793  0.5930  3.0369
  801SOL     OW 2980   3.022   9.840   6.060 -0.6275 -0.2038 -0.0199
  801SOL    HW1 2981   3.020   9.884   6.145  2.0417  0.7623 -0.3440
  801SOL    HW2 2982   3.041   9.748   6.081  0.5290  0.1220  0.4577
  802SOL     OW 2983   6.410   2.145   7.523  0.7952  0.5213  0.0057
  802SOL    HW1 2984   6.370   2.232   7.532  0.8481  0.5810 -0.3503
  802SOL    HW2 2985   6.350   2.096   7.468  0.2847  0.0266  0.9692
  803SOL     OW 2986   4.077   0.779   8.777 -0.4336 -0.2669  0.1622
  803SOL    HW1 2987   4.124   0.860   8.794 -3.8285  1.3592  3.4612
  803SOL    HW2 2988   4.117   0.715   8.836  0.7101 -0.3622 -0.6880
  804SOL     OW 2989   5.577   5.494   1.434 -0.3213 -0.1950 -0.1009
  804SOL    HW1 2990   5.549   5.407   1.407 -0.3647  0.2139 -1.4621
  804SOL    HW2 2991   5.619   5.531   1.356  1.7190  0.1765  1.0989
  805SOL     OW 2992   2.686   2.444   5.386  0.2078 -0.3276 -0.6723
  805SOL    HW1 2993   2.770   2.462   5.343  0.6804  1.5077  0.8897
  805SOL    HW2 2994   2.625   2.506   5.346  0.2803  0.2957  0.1611
  806SOL     OW 2995   8.599   6.795   9.625  0.5723 -0.0792  0.0175
  806SOL    HW1 2996   8.688   6.759   9.622  0.8472  0.5099  0.8102
  806SOL    HW2 2997   8.574   6.788   9.717  0.3967  1.1720  0.0771
  807SOL     OW 2998   9.347   3.020   8.681  0.0316  0.3498  0.1226
  807SOL    HW1 2999   9.388   3.105   8.663 -0.0101  0.4279  0.3913
  807SOL    HW2 3000   9.314   2.991   8.596  2.4878 -0.7040 -0.5721
  808SOL     OW 3001   0.828   1.680   1.626 -0.2909 -0.3794 -0.3915
  808SOL    HW1 3002   0.837   1.692   1.531  0.5456  1.2632 -0.1437
  808SOL    HW2 3003   0.769   1.750   1.653  0.8812  0.2845  0.5266
  809SOL     OW 3004   1.053   5.582   7.367 -0.1741  0.2854 -0.1744
  809SOL    HW1 3005   0.962   5.609   7.360 -0.1793  0.1537 -0.6394
  809SOL    HW2 3006   1.054   5.519   7.440 -0.7294 -0.8335 -1.0989
  810SOL     OW 3007   4.339   0.944   4.323  0.0686 -0.0036 -0.3818
  810SOL    HW1 3008   4.282   0.871   4.297 -0.2635  0.2030 -0.2531
  810SOL    HW2 3009   4.380   0.913   4.404 -0.4253  0.1264 -0.0754
  811SOL     OW 3010   3.128   1.195   9.736 -0.0980 -0.2814  0.4555
  811SOL    HW1 3011   3.104   1.129   9.801  0.6002 -0.2546  0.7483
  811SOL    HW2 3012   3.089   1.164   9.655 -0.0655 -0.8819  0.6629
  812SOL     OW 3013   2.982   9.057   0.384  0.0135 -0.2754  0.3057
  812SOL    HW1 3014   2.957   8.968   0.410  1.1488 -0.6221  0.2743
  812SOL    HW2 3015   2.943   9.113   0.451  1.2752 -1.0054  1.7224
  813SOL     OW 3016   5.680   2.412   3.040 -0.6497 -0.4177 -0.1950
  813SOL    HW1 3017   5.625   2.336   3.059 -2.9808  1.3724  0.7231
  813SOL    HW2 3018   5.625   2.469   2.987  0.5555  1.1696  0.1792
  814SOL     OW 3019   2.126   0.993   0.870 -0.0134 -0.6051  0.4004
  814SOL    HW1 3020   2.213   1.032   0.875  0.3423 -1.3348 -0.0215
  814SOL    HW2 3021   2.119   0.938   0.948  0.6437 -2.0187 -0.4998
  815SOL     OW 3022   1.375   7.847   4.036  0.1102  0.0584 -0.7406
  815SOL    HW1 3023   1.419   7.861   3.953  2.7154 -0.4081  0.4632
  815SOL    HW2 3024   1.429   7.783   4.082 -0.5414  1.1910  1.8065
  816SOL     OW 3025   4.016   3.210   5.086 -0.5729  0.1275  0.4094
  816SOL    HW1 3026   3.925   3.183   5.073 -0.3583  0.1182 -1.3201
  816SOL    HW2 3027   4.016   3.304   5.071 -0.1418 -0.0300 -0.7015
  817SOL     OW 3028   5.696   1.889   5.688  0.3330  0.2089 -0.0931
  817SOL    HW1 3029   5.679   1.795   5.693  1.3248  0.0677  1.1346
  817SOL    HW2 3030   5.782   1.900   5.727  0.5312  1.5629 -0.8539
  818SOL     OW 3031   1.954   0.310   0.169  0.1377 -0.4070  0.4793
  818SOL    HW1 3032   2.041   0.272   0.180 -0.0277 -0.5491  1.3763
  818SOL    HW2 3033   1.971   0.404   0.161  0.4081 -0.4840  0.0717
  819SOL     OW 3034   6.837   5.454   8.708  0.4057  0.3522 -0.3453
  819SOL    HW1 3035   6.914   5.445   8.652  0.5007  0.7742 -0.2875
  819SOL    HW2 3036   6.805   5.542   8.690  0.2998  0.4057  0.0876
  820SOL     OW 3037   8.112   8.530   0.345  0.6745  0.2166 -0.1991
  820SOL    HW1 3038   8.131   8.443   0.379 -0.8056 -0.7905 -1.8058
  820SOL    HW2 3039   8.030   8.555   0.388  1.0001  0.7584  0.1183
  821SOL     OW 3040   5.383   2.365   5.941 -0.3026 -0.1782 -0.1451
  821SOL    HW1 3041   5.289   2.374   5.954 -0.0274  0.0089  2.2693
  821SOL    HW2 3042   5.402   2.275   5.965  0.1176 -0.2655 -0.7874
  822SOL     OW 3043   3.496   9.488   6.873  0.0087 -0.5652  0.3275
  822SOL    HW1 3044   3.406   9.457   6.875  0.5467 -2.3527 -0.5989
  822SOL    HW2 3045   3.529   9.476   6.962 -0.9855  1.3033  1.0050
  823SOL     OW 3046   0.209   1.366   7.369 -0.7044  0.0594 -0.0843
  823SOL    HW1 3047   0.172   1.427   7.304 -0.0902  1.9487  1.2365
  823SOL    HW2 3048   0.304   1.381   7.363 -0.7306  1.9914  2.7430
  824SOL     OW 3049   4.484   2.264   4.392  0.5905  0.0561  0.5308
  824SOL    HW1 3050   4.472   2.253   4.298  2.5806  0.4290  0.1744
  824SOL    HW2 3051   4.397   2.286   4.425 -0.0325  0.5969 -1.3192
  825SOL     OW 3052   8.701   1.517   5.014  0.3860  0.0617  0.1518
  825SOL    HW1 3053   8.649   1.565   4.950 -2.1717  0.3069  2.2129
  825SOL    HW2 3054   8.744   1.585   5.066  1.2822 -0.0864 -0.3868
  826SOL     OW 3055   3.665   9.832   4.692 -0.1516 -0.0875 -0.3343
  826SOL    HW1 3056   3.708   9.791   4.618  0.8357 -0.2590  0.3236
  826SOL    HW2 3057   3.576   9.850   4.661  0.0585 -0.7275 -1.3387
  827SOL     OW 3058   3.969   9.330   1.620 -0.4528 -0.3257  0.3801
  827SOL    HW1 3059   3.995   9.421   1.637  1.1203 -0.7960  0.6852
  827SOL    HW2 3060   3.973   9.288   1.705  0.4411 -1.0425  0.0036
  828SOL     OW 3061   4.372   8.623   0.237 -0.4303  0.0190 -0.3949
  828SOL    HW1 3062   4.407   8.556   0.178  0.3998  0.3125 -0.2529
  828SOL    HW2 3063   4.445   8.684   0.251 -1.4459  1.5274 -1.3353
  829SOL     OW 3064   4.153   0.684   2.172  0.0546  0.2008  0.6088
  829SOL    HW1 3065   4.214   0.730   2.114 -0.3495 -0.8027 -0.6783
  829SOL    HW2 3066   4.066   0.705   2.137 -0.1195 -2.2201 -0.6630
  830SOL     OW 3067   0.103   4.404   7.245  0.3148 -0.4051  0.4385
  830SOL    HW1 3068   0.100   4.452   7.163 -0.2213  1.2737  1.3908
  830SOL    HW2 3069   0.170   4.337   7.231  1.5669  1.0157 -0.7514
  831SOL     OW 3070   0.392   3.377   6.247  0.3276  0.1222 -0.1073
  831SOL    HW1 3071   0.483   3.349   6.246  0.1942 -0.3339 -1.3453
  831SOL    HW2 3072   0.346   3.306   6.292  0.5935  0.4683  0.7462
  832SOL     OW 3073   4.628   4.399   6.943 -0.3446  0.7002  0.0749
  832SOL    HW1 3074   4.682   4.476   6.963 -0.1980  0.5598  0.2189
  832SOL    HW2 3075   4.616   4.402   6.848 -1.6857  1.8062  0.2318
  833SOL     OW 3076   3.831   1.295   1.780 -0.0356  0.1149  0.0718
  833SOL    HW1 3077   3.849   1.245   1.860 -0.5172  1.3442  0.9830
  833SOL    HW2 3078   3.737   1.311   1.783  0.0096  0.5021 -0.5407
  834SOL     OW 3079   9.228   1.046   5.268 -0.0941 -0.0754 -0.8468
  834SOL    HW1 3080   9.207   1.109   5.337 -1.9085 -1.5789  0.0717
  834SOL    HW2 3081   9.191   1.084   5.189  2.5901  1.9979 -1.2797
  835SOL     OW 3082   9.961   6.088   0.817 -0.6623 -0.0677  0.0387
  835SOL    HW1 3083   9.916   6.016   0.862 -1.3113 -0.0281 -0.5375
  835SOL    HW2 3084   9.900   6.162   0.824  0.0012  0.4323  0.6245
  836SOL     OW 3085   4.243   0.293   2.521  0.5184 -0.1471 -0.2085
  836SOL    HW1 3086   4.249   0.350   2.445 -1.1634 -1.0174 -1.0395
  836SOL    HW2 3087   4.279   0.209   2.491 -0.0140 -0.4545  0.0085
  837SOL     OW 3088   7.823   5.014   5.891 -0.2070 -0.2937  0.4262
  837SOL    HW1 3089   7.812   4.950   5.821 -0.8196 -1.5126  1.5879
  837SOL    HW2 3090   7.735   5.048   5.907 -0.3132 -1.0309  1.4969
  838SOL     OW 3091   0.266   5.672   6.774 -0.0056  0.2714 -0.2675
  838SOL    HW1 3092   0.302   5.630   6.852  1.1346 -1.2956 -1.5825
  838SOL    HW2 3093   0.310   5.757   6.770  0.1961  0.2191  0.5807
  839SOL     OW 3094   9.816   4.982   6.932  0.1102 -0.2875  0.0994
  839SOL    HW1 3095   9.902   5.020   6.911 -0.3023 -0.4813 -2.2512
  839SOL    HW2 3096   9.821   4.892   6.898 -1.6082  0.2880 -1.9066
  840SOL     OW 3097   4.676   0.524   4.529 -0.7141  0.2987 -0.4779
  840SOL    HW1 3098   4.667   0.608   4.573 -0.8135 -0.0684  0.2136
  840SOL    HW2 3099   4.586   0.492   4.519 -0.6299 -0.1544  0.1239
  841SOL     OW 3100   5.494   0.314   4.992  0.3487 -0.2024 -0.7859
  841SOL    HW1 3101   5.426   0.266   4.944  1.2452 -0.8026 -1.4809
  841SOL    HW2 3102   5.445   0.373   5.050 -0.7639  0.1370 -2.0333
  842SOL     OW 3103   2.023   5.871   5.419  0.4883  0.0253 -0.2020
  842SOL    HW1 3104   2.044   5.813   5.493 -0.7334  1.1933  1.1285
  842SOL    HW2 3105   2.108   5.899   5.386  1.0706 -0.8802  0.4802
  843SOL     OW 3106   3.373   7.193   5.313 -0.2733  0.0379 -0.5533
  843SOL    HW1 3107   3.375   7.121   5.250 -0.5118 -0.0885 -0.4163
  843SOL    HW2 3108   3.419   7.264   5.269  2.8526 -1.1698  0.5263
  844SOL     OW 3109   2.826   3.981   9.989  0.3105  0.0977 -0.5024
  844SOL    HW1 3110   2.776   4.057  10.018 -1.1305 -0.3262 -1.7372
  844SOL    HW2 3111   2.818   3.982   9.894  3.4952  0.5288 -0.8762
  845SOL     OW 3112   1.823   3.116   1.697  0.1712 -0.5736 -0.0294
  845SOL    HW1 3113   1.766   3.155   1.629  0.5292  0.0482  0.0194
  845SOL    HW2 3114   1.794   3.157   1.778  1.7150  0.9525 -0.2032
  846SOL     OW 3115   5.294   4.299   3.762  0.0795  0.2343  0.2057
  846SOL    HW1 3116   5.298   4.388   3.728 -0.9907  0.6614  1.1017
  846SOL    HW2 3117   5.367   4.253   3.720 -1.0570  0.7238 -2.5577
  847SOL     OW 3118   6.793   4.376   2.316 -0.4919  0.2744 -0.4740
  847SOL    HW1 3119   6.765   4.465   2.296 -1.4068 -0.3973 -2.4403
  847SOL    HW2 3120   6.810   4.336   2.231 -2.3602 -2.1273  0.1736
  848SOL     OW 3121   7.389   8.596   0.366 -0.7527  0.1850 -0.3833
  848SOL    HW1 3122   7.439   8.668   0.406 -0.5001  0.5562 -1.3157
  848SOL    HW2 3123   7.312   8.639   0.328 -2.5974 -0.5769  2.2590
  849SOL     OW 3124   6.621   2.345   3.284  0.3093  0.3193 -0.0261
  849SOL    HW1 3125   6.668   2.370   3.205  0.0011  1.0964  0.0215
  849SOL    HW2 3126   6.663   2.395   3.354  1.3499 -1.2460  0.5120
  850SOL     OW 3127   2.259   1.004   4.533  0.0271  0.5665  0.6716
  850SOL    HW1 3128   2.274   1.050   4.615 -1.2283  1.0867  0.6336
  850SOL    HW2 3129   2.246   0.913   4.559 -0.0975  0.6831  1.0321
  851SOL     OW 3130   8.952   9.398   7.384  0.2668 -0.7041  0.5558
  851SOL    HW1 3131   9.044   9.377   7.402  0.4837 -2.2294 -1.8081
  851SOL    HW2 3132   8.909   9.313   7.376 -1.0299 -0.0445  0.2139
  852SOL     OW 3133   2.642   6.596   2.828 -0.4761 -0.0034 -0.6220
  852SOL    HW1 3134   2.548   6.597   2.843 -0.6127  0.4272 -1.4523
  852SOL    HW2 3135   2.671   6.684   2.851  0.0376 -0.6302  1.3715
  853SOL     OW 3136   8.582   3.143   3.876  0.6983 -0.3064  0.3121
  853SOL    HW1 3137   8.675   3.132   3.895  0.7462 -2.5218 -0.9666
  853SOL    HW2 3138   8.580   3.194   3.795  0.8262 -0.7954 -0.0013
  854SOL     OW 3139   2.974   4.185   0.456  0.3017  0.1781  0.2651
  854SOL    HW1 3140   3.016   4.102   0.476  0.7575  0.9088  2.6740
  854SOL    HW2 3141   2.888   4.180   0.497 -0.6256  0.0655 -1.5773
  855SOL     OW 3142   6.965   6.401   5.729  0.0028 -0.2967  0.2260
  855SOL    HW1 3143   6.996   6.320   5.769  0.2269 -1.0273 -1.3666
  855SOL    HW2 3144   7.029   6.421   5.661  0.0688  1.3483  0.7173
  856SOL     OW 3145   2.019   3.498   8.093  0.1933  0.3676 -0.4266
  856SOL    HW1 3146   1.930   3.530   8.105 -0.9306 -1.8215 -2.1238
  856SOL    HW2 3147   2.021   3.467   8.003  2.7059  0.3555 -0.4286
  857SOL     OW 3148   7.617   9.577   9.539  0.4879  0.2491  0.5112
  857SOL    HW1 3149   7.674   9.604   9.466  0.4288 -0.8856  0.0227
  857SOL    HW2 3150   7.591   9.659   9.580  3.0921  0.7848  1.2475
  858SOL     OW 3151   9.960   3.575   3.386  0.1972 -0.2461  0.1352
  858SOL    HW1 3152   9.884   3.522   3.361 -0.0476 -0.0674  0.4828
  858SOL    HW2 3153   9.993   3.534   3.465 -0.8123  0.8773  1.1920
  859SOL     OW 3154   1.800   0.301   0.750  0.3051 -0.3920 -0.3549
  859SOL    HW1 3155   1.719   0.274   0.707 -0.8532  1.5035  0.5047
  859SOL    HW2 3156   1.786   0.393   0.772  2.0471 -0.4597  1.3099
  860SOL     OW 3157   1.597   6.663   8.553  0.2797  0.4347  0.1420
  860SOL    HW1 3158   1.543   6.632   8.480 -2.2524 -0.3695  2.2149
  860SOL    HW2 3159   1.632   6.747   8.523 -0.3817 -0.0269 -2.0962
  861SOL     OW 3160   9.384   3.158   2.986 -0.7309 -0.0332  0.9737
  861SOL    HW1 3161   9.335   3.131   3.063  0.3708 -0.5806  1.5099
  861SOL    HW2 3162   9.378   3.083   2.926 -2.3324  0.7276  0.1180
  862SOL     OW 3163   4.362   7.857   9.181 -0.0270 -0.1654  0.7237
  862SOL    HW1 3164   4.313   7.902   9.111  0.3326  0.4010  0.8296
  862SOL    HW2 3165   4.447   7.837   9.142 -0.0099 -0.3119  0.8356
  863SOL     OW 3166   5.417   6.809   2.521 -0.5004  0.2340  0.1730
  863SOL    HW1 3167   5.358   6.874   2.482 -2.3717 -1.8134 -0.5978
  863SOL    HW2 3168   5.449   6.759   2.446  2.4726  1.3815  0.5461
  864SOL     OW 3169   4.321   5.160   7.035 -0.2757 -0.0586  0.0312
  864SOL    HW1 3170   4.247   5.099   7.034 -0.9081  0.6939 -1.7268
  864SOL    HW2 3171   4.287   5.238   7.079  0.6110 -0.9729  2.5199
  865SOL     OW 3172   3.707   1.413   7.621 -0.1625 -0.2573 -0.6660
  865SOL    HW1 3173   3.659   1.489   7.654 -0.0981 -0.1937 -0.7174
  865SOL    HW2 3174   3.648   1.339   7.635  0.3558 -0.4298  0.7420
  866SOL     OW 3175   3.363   5.566   7.836 -0.6715 -0.3055 -0.2238
  866SOL    HW1 3176   3.385   5.546   7.745 -0.6941 -1.0046 -0.0775
  866SOL    HW2 3177   3.443   5.605   7.872 -1.3634  2.2120 -1.1770
  867SOL     OW 3178   7.972   2.229   2.433 -0.2742  0.1942  0.5600
  867SOL    HW1 3179   8.055   2.274   2.446  0.1129  0.0621 -1.2534
  867SOL    HW2 3180   7.921   2.251   2.511  2.0023 -1.0329  2.5262
  868SOL     OW 3181   2.060   5.150   8.203 -0.4647 -0.2157 -0.1265
  868SOL    HW1 3182   2.105   5.151   8.118 -0.7109 -0.4384 -0.2647
  868SOL    HW2 3183   2.005   5.071   8.199  0.6667 -1.0965  0.8387
  869SOL     OW 3184   6.398   8.253   0.537  0.2474 -0.4310 -0.0799
  869SOL    HW1 3185   6.404   8.160   0.560  1.4375  0.3216  3.2536
  869SOL    HW2 3186   6.379   8.297   0.620 -1.4914  2.2694 -1.7330
  870SOL     OW 3187   4.773   7.549   7.468 -0.3523 -0.1138 -0.3061
  870SOL    HW1 3188   4.721   7.582   7.541  0.9996 -1.4634  1.3420
  870SOL    HW2 3189   4.715   7.557   7.392 -2.0313  0.7580  1.0059
  871SOL     OW 3190   3.013   3.601   0.028  0.2246  0.2353  0.4962
  871SOL    HW1 3191   2.928   3.643   0.043  0.1908  0.6210 -0.6643
  871SOL    HW2 3192   3.004   3.515   0.069 -1.0371 -0.0601 -0.3230
  872SOL     OW 3193   4.824   6.592   6.678  0.0147  0.8357  0.3213
  872SOL    HW1 3194   4.813   6.573   6.585 -1.6316  1.7379  0.2920
  872SOL    HW2 3195   4.775   6.522   6.723 -0.0647  0.9829  0.4657
  873SOL     OW 3196   8.676   9.429   7.126  0.1927  0.4590  0.5707
  873SOL    HW1 3197   8.759   9.461   7.090  0.2078  0.7428  0.8496
  873SOL    HW2 3198   8.609   9.471   7.073  0.2314 -0.2035 -0.0144
  874SOL     OW 3199   9.078   0.923   2.025 -0.4709 -0.0365 -0.5515
  874SOL    HW1 3200   9.129   0.963   2.095  0.6919  0.9027 -1.8821
  874SOL    HW2 3201   9.019   0.863   2.070  0.7413 -0.0141  1.1734
  875SOL     OW 3202   5.667   1.569   7.886 -0.7201  0.0241  0.1673
  875SOL    HW1 3203   5.749   1.556   7.934 -1.7434 -1.7976  1.5308
  875SOL    HW2 3204   5.689   1.633   7.818  1.1108  1.7628  2.2281
  876SOL     OW 3205   9.717   8.573   6.404 -0.1062 -0.2720  0.1243
  876SOL    HW1 3206   9.651   8.549   6.338  1.4827  0.4790 -1.8494
  876SOL    HW2 3207   9.739   8.664   6.383  3.5042 -1.2701 -1.1606
  877SOL     OW 3208   6.536   6.438   4.574 -0.6725 -0.4694  0.3134
  877SOL    HW1 3209   6.603   6.455   4.641 -1.0922  0.2920  0.5506
  877SOL    HW2 3210   6.475   6.511   4.582 -0.9832 -0.6135 -0.5908
  878SOL     OW 3211   0.306   5.115   7.002 -0.5040  0.4462  0.0084
  878SOL    HW1 3212   0.314   5.024   6.974 -1.7330  0.2266  0.3102
  878SOL    HW2 3213   0.231   5.116   7.061  0.2450  1.4389  0.9876
  879SOL     OW 3214   0.086   0.683   1.916 -0.0394  0.4071  0.5259
  879SOL    HW1 3215   0.138   0.734   1.978 -0.0906  0.4248  0.5547
  879SOL    HW2 3216   0.054   0.608   1.967  0.8101 -0.1601  0.2461
  880SOL     OW 3217   2.910   9.515   2.292 -0.2080  0.2636  0.5614
  880SOL    HW1 3218   2.895   9.428   2.328 -0.4855 -0.8359 -1.9966
  880SOL    HW2 3219   2.861   9.516   2.210  2.8753  1.3689 -1.4561
  881SOL     OW 3220   0.822   9.785   3.118  0.5181 -0.4652 -0.2093
  881SOL    HW1 3221   0.737   9.743   3.107  0.3774 -0.5745  1.1390
  881SOL    HW2 3222   0.803   9.879   3.115  0.5281 -0.4820 -1.0668
  882SOL     OW 3223   4.597   3.308   6.907 -0.0672  0.2443 -0.2650
  882SOL    HW1 3224   4.620   3.260   6.986 -2.4910  0.2654  0.5301
  882SOL    HW2 3225   4.670   3.370   6.895  0.0362  0.7698  2.4058
  883SOL     OW 3226   9.729   6.286   9.013 -0.2452 -0.5119 -0.4891
  883SOL    HW1 3227   9.814   6.311   9.048 -0.5242  0.2634 -0.3470
  883SOL    HW2 3228   9.692   6.227   9.079 -0.9823  1.3246  0.8269
  884SOL     OW 3229   4.922   1.647   7.528 -0.9399  0.2501 -0.1596
  884SOL    HW1 3230   4.891   1.585   7.462  0.3561 -1.6078  0.8657
  884SOL    HW2 3231   4.981   1.705   7.480 -1.2190 -0.1036 -0.9415
  885SOL     OW 3232   8.102   6.574   9.557 -0.9042 -0.5620  0.3007
  885SOL    HW1 3233   8.068   6.615   9.478  0.6411 -0.8949 -0.5737
  885SOL    HW2 3234   8.144   6.645   9.605  0.5957 -0.8201 -0.5640
  886SOL     OW 3235   4.766   6.600   2.601 -0.5516 -0.3876  0.0954
  886SOL    HW1 3236   4.744   6.565   2.515  0.3248  1.0334 -0.7520
  886SOL    HW2 3237   4.687   6.588   2.653 -1.9166  0.7729 -1.5995
  887SOL     OW 3238   2.389   9.400   5.646  0.0760  0.0407 -0.2492
  887SOL    HW1 3239   2.408   9.306   5.638 -1.7589 -0.4155  0.2823
  887SOL    HW2 3240   2.382   9.430   5.556 -1.6661 -0.8849 -0.4640
  888SOL     OW 3241   9.401   1.191   9.476 -0.0009 -0.3826 -0.0068
  888SOL    HW1 3242   9.431   1.282   9.477 -1.1334  0.0042 -0.3461
  888SOL    HW2 3243   9.379   1.172   9.568  0.4305 -0.3977  0.0998
  889SOL     OW 3244   6.760   4.610   9.365 -0.0989 -0.5906  0.8559
  889SOL    HW1 3245   6.695   4.585   9.431 -0.5659 -1.9517 -0.0942
  889SOL    HW2 3246   6.843   4.611   9.413 -0.3728 -1.9639  1.4008
  890SOL     OW 3247   0.751   7.224   7.516  0.0746 -0.4873  0.4675
  890SOL    HW1 3248   0.752   7.212   7.422 -0.4067 -2.8324  0.7044
  890SOL    HW2 3249   0.844   7.223   7.541  0.2428  0.8650 -0.0118
  891SOL     OW 3250   8.365   6.792   8.473  0.5312 -0.1649  0.1610
  891SOL    HW1 3251   8.417   6.797   8.392  0.1784 -1.8795 -0.2207
  891SOL    HW2 3252   8.340   6.700   8.478 -0.2052  0.1081  1.7725
  892SOL     OW 3253   4.285   7.417   0.896 -0.2970 -0.3530  0.7174
  892SOL    HW1 3254   4.373   7.456   0.901  0.6240 -2.0322 -1.0415
  892SOL    HW2 3255   4.247   7.454   0.817 -0.8545 -0.2941  1.0060
  893SOL     OW 3256   7.778   9.653   4.090  0.2337  0.1064 -0.0586
  893SOL    HW1 3257   7.744   9.730   4.136 -3.1733 -0.7339 -0.8282
  893SOL    HW2 3258   7.853   9.625   4.141 -0.6075  1.8612  2.3189
  894SOL     OW 3259   1.014   6.389   1.441 -0.1532  0.0245  0.3191
  894SOL    HW1 3260   1.030   6.483   1.431 -2.4824  0.4956  0.3599
  894SOL    HW2 3261   0.937   6.372   1.386 -2.4553 -0.9344  3.5048
  895SOL     OW 3262   0.554   1.384   0.664 -0.0087 -0.6465  0.1545
  895SOL    HW1 3263   0.504   1.344   0.593  0.5552 -0.6476 -0.2471
  895SOL    HW2 3264   0.624   1.321   0.682  0.6355 -0.0330 -0.1920
  896SOL     OW 3265   3.961   8.313   0.122  0.1423 -0.4796 -0.2422
  896SOL    HW1 3266   3.903   8.259   0.069 -0.8439 -0.1477  0.4597
  896SOL    HW2 3267   3.936   8.293   0.213  1.5235 -0.7482  0.0894
  897SOL     OW 3268   4.651   8.332   7.788  0.2271  0.1235  0.0987
  897SOL    HW1 3269   4.602   8.253   7.810  2.8727 -0.8931  3.2245
  897SOL    HW2 3270   4.721   8.301   7.730 -0.2070  0.6969 -0.7450
  898SOL     OW 3271   5.894   1.639   2.743  0.6349 -0.5949  0.2059
  898SOL    HW1 3272   5.887   1.644   2.839 -0.4774  0.1581  0.1073
  898SOL    HW2 3273   5.961   1.572   2.727  0.6687 -0.8983  1.5072
  899SOL     OW 3274   1.295   3.322   7.095  0.0301 -0.0284  0.3402
  899SOL    HW1 3275   1.336   3.306   7.179 -0.4153  2.2106  1.0439
  899SOL    HW2 3276   1.355   3.380   7.049  0.3983 -1.4208 -1.0556
  900SOL     OW 3277   3.310   8.176   7.673  0.2201 -0.2872  0.6345
  900SOL    HW1 3278   3.310   8.248   7.610  1.6981 -1.3735 -0.6952
  900SOL    HW2 3279   3.224   8.135   7.662 -0.2608  0.6935  0.7085
  901SOL     OW 3280   8.163   7.158   9.467 -0.6824  0.0455 -0.1488
  901SOL    HW1 3281   8.075   7.131   9.492 -1.4016  1.0611 -1.4604
  901SOL    HW2 3282   8.150   7.229   9.405  1.0365 -0.4068 -1.1053
  902SOL     OW 3283   8.540   6.781   3.610  0.0439  0.4508  0.0104
  902SOL    HW1 3284   8.567   6.867   3.643  1.5541  0.4187 -1.0459
  902SOL    HW2 3285   8.592   6.768   3.531 -1.3057 -0.7670 -0.7330
  903SOL     OW 3286   8.352   8.981   6.364  0.8059  0.4317  0.0452
  903SOL    HW1 3287   8.380   9.068   6.335  1.7672  0.0639 -0.1640
  903SOL    HW2 3288   8.379   8.977   6.456 -0.0038  0.6621  0.3012
  904SOL     OW 3289   2.895   5.707   5.623 -0.1485 -0.1031  0.1531
  904SOL    HW1 3290   2.953   5.650   5.674 -1.0644 -0.6711  0.5718
  904SOL    HW2 3291   2.865   5.651   5.551 -2.4315 -0.7517  1.5250
  905SOL     OW 3292   1.411   0.696   5.850  0.4823  0.0793 -0.0760
  905SOL    HW1 3293   1.456   0.743   5.780  0.8675 -0.4653 -0.1946
  905SOL    HW2 3294   1.415   0.757   5.925  0.3903  0.5101 -0.4164
  906SOL     OW 3295   1.945   5.469   6.060  0.0486  0.0803 -0.5223
  906SOL    HW1 3296   1.969   5.542   6.002 -0.3399  1.5490  1.0802
  906SOL    HW2 3297   1.850   5.476   6.069 -0.0525 -0.9313 -0.7115
  907SOL     OW 3298   1.852   9.125   0.966  0.0893 -0.4022  0.5037
  907SOL    HW1 3299   1.899   9.208   0.959  1.3835 -1.0572  1.0260
  907SOL    HW2 3300   1.833   9.116   1.059 -0.6045 -0.4075  0.3676
  908SOL     OW 3301   0.624   7.218   8.447 -0.2401  0.1488 -0.1030
  908SOL    HW1 3302   0.710   7.243   8.413 -0.6919  0.4079 -1.1044
  908SOL    HW2 3303   0.641   7.188   8.537  0.8412  0.4914 -0.1795
  909SOL     OW 3304   8.630   6.151   5.827 -0.4087 -0.3625  0.0937
  909SOL    HW1 3305   8.624   6.224   5.765  0.5659 -1.2407 -1.0663
  909SOL    HW2 3306   8.722   6.148   5.852 -0.2803 -1.6666 -0.4718
  910SOL     OW 3307   7.225   0.633   6.189 -1.1291  0.0368  0.6119
  910SOL    HW1 3308   7.293   0.595   6.244 -1.5140  0.0380  1.0918
  910SOL    HW2 3309   7.265   0.712   6.152 -0.0611 -1.1796 -0.9797
  911SOL     OW 3310   6.856   3.860   0.426  1.0555  0.1296  0.1767
  911SOL    HW1 3311   6.822   3.788   0.478 -0.5648  0.1731 -0.7556
  911SOL    HW2 3312   6.832   3.839   0.336  4.4688 -0.3492 -0.7707
  912SOL     OW 3313   9.491   6.995   2.419 -0.5308 -0.2234  0.4063
  912SOL    HW1 3314   9.513   7.084   2.394 -1.0873 -0.0203  0.6353
  912SOL    HW2 3315   9.396   6.994   2.426 -0.6480 -1.1704 -0.8666
  913SOL     OW 3316   8.461   4.550   4.825 -0.1066 -0.2227  0.1193
  913SOL    HW1 3317   8.480   4.636   4.864  0.6501 -1.0799  1.7410
  913SOL    HW2 3318   8.544   4.523   4.785  0.5803 -1.4527  2.2118
  914SOL     OW 3319   8.740   8.622   4.830 -0.0541  0.1663  0.3464
  914SOL    HW1 3320   8.752   8.627   4.925 -2.6779  2.3533  0.6862
  914SOL    HW2 3321   8.769   8.707   4.797  0.1787 -0.3113 -0.7358
  915SOL     OW 3322   4.408   0.322   7.300  0.2881  0.4940 -0.0764
  915SOL    HW1 3323   4.488   0.326   7.352  0.9186 -0.2973 -0.9482
  915SOL    HW2 3324   4.435   0.348   7.212 -0.7748  1.8895 -0.0215
  916SOL     OW 3325   7.834   9.892   5.922  0.1200 -0.4999 -0.1752
  916SOL    HW1 3326   7.890   9.866   5.995  1.6552  0.3554 -0.9911
  916SOL    HW2 3327   7.839   9.819   5.861 -1.0414 -1.1476  0.4557
  917SOL     OW 3328   5.250   3.271   5.948 -0.6433  0.0689  0.3042
  917SOL    HW1 3329   5.291   3.185   5.933  0.2905  0.4800  0.4833
  917SOL    HW2 3330   5.296   3.308   6.023  0.0151  1.3825 -0.7058
  918SOL     OW 3331   9.479   6.472   0.192  0.5080  0.3880  0.3934
  918SOL    HW1 3332   9.549   6.510   0.139  0.8024 -0.5990  0.0449
  918SOL    HW2 3333   9.448   6.398   0.140  0.4859 -0.3158  1.3798
  919SOL     OW 3334   8.810   4.293   5.626  0.5497 -0.6632 -0.8727
  919SOL    HW1 3335   8.808   4.252   5.539 -1.5278 -0.3183 -1.0468
  919SOL    HW2 3336   8.871   4.240   5.676  1.2727 -1.2832 -2.3538
  920SOL     OW 3337   0.021   3.490   1.677 -0.1274  0.0578 -0.8358
  920SOL    HW1 3338   0.075   3.568   1.689  0.4059 -0.0507 -2.3320
  920SOL    HW2 3339   0.051   3.452   1.595 -1.9625 -0.4420 -1.3245
  921SOL     OW 3340   0.445   8.498   4.836  0.4240  0.0032 -0.3194
  921SOL    HW1 3341   0.373   8.441   4.861  1.9833 -1.4076  1.1571
  921SOL    HW2 3342   0.476   8.536   4.918  1.7855  0.0442 -0.8219
  922SOL     OW 3343   4.590   4.320   8.674 -0.4119 -0.0921 -0.0779
  922SOL    HW1 3344   4.588   4.244   8.617  0.5488  0.1932 -0.5222
  922SOL    HW2 3345   4.535   4.385   8.631 -2.9665 -1.1876  1.3409
  923SOL     OW 3346   7.869   1.662   5.939  0.1856  0.2351  0.8002
  923SOL    HW1 3347   7.915   1.736   5.898 -1.8280  2.0370  1.6088
  923SOL    HW2 3348   7.939   1.603   5.966  1.9426  2.0998  0.6182
  924SOL     OW 3349   3.599   6.110   0.745 -0.5399 -0.4335 -0.1412
  924SOL    HW1 3350   3.692   6.127   0.760 -0.7296  0.2500  0.3040
  924SOL    HW2 3351   3.597   6.026   0.699  0.1875 -1.9087  2.3013
  925SOL     OW 3352   8.318   8.494   3.697 -0.3211  0.1551 -0.1528
  925SOL    HW1 3353   8.367   8.462   3.621 -1.1881  0.7719 -1.0078
  925SOL    HW2 3354   8.302   8.416   3.750 -0.2428 -0.4028 -0.9337
  926SOL     OW 3355   2.215   0.763   6.298 -0.1238 -0.4256 -0.4753
  926SOL    HW1 3356   2.163   0.844   6.299  0.3394 -0.1281  0.4768
  926SOL    HW2 3357   2.151   0.694   6.315 -0.0750  0.0547  2.0569
  927SOL     OW 3358   5.375   5.130   9.664  0.1712  0.0078 -0.1000
  927SOL    HW1 3359   5.416   5.213   9.642  1.0596 -0.9412 -2.3389
  927SOL    HW2 3360   5.439   5.085   9.719  1.2540 -0.5532 -1.7460
  928SOL     OW 3361   6.918   3.439   5.640 -0.2738  0.0823 -0.2036
  928SOL    HW1 3362   6.912   3.352   5.679  1.4495 -0.2842 -0.6569
  928SOL    HW2 3363   6.985   3.430   5.572  1.2950  2.1894  0.9448
  929SOL     OW 3364   6.516   0.747   9.710  0.1896  0.4323  0.0790
  929SOL    HW1 3365   6.582   0.696   9.663  1.0260  1.4933  0.0745
  929SOL    HW2 3366   6.480   0.805   9.643 -0.4572  0.1604  0.1842
  930SOL     OW 3367   3.084   2.488   7.737  0.3766 -0.0320  0.1703
  930SOL    HW1 3368   3.175   2.508   7.759  0.0852  0.9011  0.5701
  930SOL    HW2 3369   3.087   2.399   7.702  1.5641  0.3017 -0.6312
  931SOL     OW 3370   0.686   4.672   8.618  0.1495 -0.4016 -0.1271
  931SOL    HW1 3371   0.777   4.686   8.643 -0.2799  0.2455  1.1974
  931SOL    HW2 3372   0.635   4.708   8.691 -1.1755 -0.3265 -1.0358
  932SOL     OW 3373   1.115   8.370   0.558  0.5111 -0.2289 -0.4461
  932SOL    HW1 3374   1.085   8.296   0.506 -1.4925 -1.3915  2.1217
  932SOL    HW2 3375   1.079   8.447   0.514 -3.6409 -1.3340  0.5629
  933SOL     OW 3376   5.978   8.723   8.107 -0.2965  0.5306  0.3187
  933SOL    HW1 3377   5.984   8.649   8.047 -3.2275  0.4857 -0.0912
  933SOL    HW2 3378   5.998   8.686   8.193  0.8926 -0.1100 -0.2180
  934SOL     OW 3379   4.568   4.210   0.533 -0.4885  0.2255  0.1394
  934SOL    HW1 3380   4.571   4.128   0.483 -1.6993  0.0800  0.2853
  934SOL    HW2 3381   4.531   4.185   0.617 -0.5716  0.8676  0.2954
  935SOL     OW 3382   0.246   8.332   9.262  0.2703 -0.0886 -0.2493
  935SOL    HW1 3383   0.153   8.320   9.239  0.2375 -1.3554  0.4317
  935SOL    HW2 3384   0.290   8.342   9.177 -0.2413 -1.5748 -0.7264
  936SOL     OW 3385   7.140   9.863   9.901  0.7550  0.4579 -0.3921
  936SOL    HW1 3386   7.069   9.801   9.919  0.5921  0.7727  0.0685
  936SOL    HW2 3387   7.137   9.925   9.974  1.3807  0.5880 -0.4744
  937SOL     OW 3388   6.161   0.280   6.381  0.5387  0.0472  0.6223
  937SOL    HW1 3389   6.117   0.365   6.387  1.4737  0.4778  1.6367
  937SOL    HW2 3390   6.175   0.254   6.471 -0.0566 -1.3801  0.3249
  938SOL     OW 3391   3.817   6.880   5.733  0.0607 -0.5767  1.3371
  938SOL    HW1 3392   3.851   6.896   5.821  2.1340 -1.6909  0.7936
  938SOL    HW2 3393   3.892   6.894   5.676 -1.4342  0.9275 -0.3909
  939SOL     OW 3394   0.935   7.403   4.629  0.2865 -0.0852  0.3533
  939SOL    HW1 3395   0.949   7.309   4.642 -2.6667 -0.7394 -0.5845
  939SOL    HW2 3396   0.895   7.410   4.542 -0.0019  2.0006  0.5936
  940SOL     OW 3397   4.038   0.846   5.736  0.2680  0.7873 -0.0893
  940SOL    HW1 3398   4.120   0.808   5.702 -0.6906 -1.9173  0.3462
  940SOL    HW2 3399   4.025   0.803   5.820 -1.4769  1.3482 -0.0345
  941SOL     OW 3400   3.911   4.370   0.491  0.2086 -0.0180 -0.2112
  941SOL    HW1 3401   3.902   4.464   0.481 -1.2434 -0.1306 -0.3199
  941SOL    HW2 3402   3.970   4.343   0.421 -1.5336  0.4950 -1.9579
  942SOL     OW 3403   4.870   3.897   1.171 -0.2811 -0.3194  0.2399
  942SOL    HW1 3404   4.925   3.819   1.167  0.9063  0.4594  0.9440
  942SOL    HW2 3405   4.865   3.918   1.264  1.3122  1.7319 -0.0791
  943SOL     OW 3406   6.080   1.790   6.247 -0.0407 -0.2239  0.1505
  943SOL    HW1 3407   6.140   1.766   6.318  0.1817 -1.6178 -0.4629
  943SOL    HW2 3408   6.136   1.830   6.180  0.2930 -1.6665 -0.4888
  944SOL     OW 3409   9.234   1.408   1.058  0.9878 -0.1615 -0.5707
  944SOL    HW1 3410   9.275   1.408   0.971  2.5065  1.0762  0.1155
  944SOL    HW2 3411   9.282   1.340   1.107 -1.1180 -2.2470 -1.1832
  945SOL     OW 3412   3.156   8.899   3.790  0.3694  0.3293  0.7779
  945SOL    HW1 3413   3.124   8.825   3.841  1.1805 -0.5230  0.0722
  945SOL    HW2 3414   3.083   8.923   3.733  0.2863 -0.2555  0.6418
  946SOL     OW 3415   0.817   1.976   7.062 -0.2575  0.8045 -0.1092
  946SOL    HW1 3416   0.827   1.888   7.099 -2.6190  0.2332 -0.7062
  946SOL    HW2 3417   0.775   1.962   6.977  0.4908  2.4450 -0.7874
  947SOL     OW 3418   2.158   9.498   6.453  0.2005 -0.2210 -0.0125
  947SOL    HW1 3419   2.181   9.511   6.545 -1.6487  1.8230  0.2403
  947SOL    HW2 3420   2.239   9.515   6.405  0.8645  0.0374  1.1594
  948SOL     OW 3421   1.556   6.891   8.159 -0.0576 -0.2991  0.5824
  948SOL    HW1 3422   1.468   6.888   8.196 -0.2974 -0.9526 -0.0162
  948SOL    HW2 3423   1.584   6.800   8.155 -0.2280 -0.3221 -1.2520
  949SOL     OW 3424   4.187   2.831   5.300  0.0413  0.0876 -0.6057
  949SOL    HW1 3425   4.265   2.776   5.299  0.5247  0.6183  1.8320
  949SOL    HW2 3426   4.213   2.912   5.257  1.2310  0.6742  1.1223
  950SOL     OW 3427   3.347   3.605   5.642  0.0971  0.0028  0.0638
  950SOL    HW1 3428   3.300   3.686   5.663 -1.8843 -0.8390 -0.7758
  950SOL    HW2 3429   3.391   3.580   5.723  1.6019  2.4035  0.0692
  951SOL     OW 3430   5.049   7.272   4.276 -0.1482 -0.1910 -0.8447
  951SOL    HW1 3431   5.094   7.322   4.208 -2.4394  0.5237 -1.9322
  951SOL    HW2 3432   4.958   7.303   4.273 -0.6509 -1.1551  1.6100
  952SOL     OW 3433   3.270   8.480   3.480 -0.5229 -0.4957  0.0009
  952SOL    HW1 3434   3.276   8.575   3.491 -1.2148 -0.4451 -0.0406
  952SOL    HW2 3435   3.248   8.447   3.568  2.4458 -0.9026  0.7186
  953SOL     OW 3436   3.561   4.653   8.814  0.3592 -0.0696  0.2953
  953SOL    HW1 3437   3.592   4.588   8.877  1.9684 -0.1775 -0.5333
  953SOL    HW2 3438   3.477   4.618   8.783  1.0779 -1.6865  0.0269
  954SOL     OW 3439   9.383   7.746   1.432  0.3802  0.0942 -0.2297
  954SOL    HW1 3440   9.346   7.781   1.513  0.7766 -1.5744  0.7274
  954SOL    HW2 3441   9.452   7.808   1.408  0.6803  0.2926  1.0701
  955SOL     OW 3442   5.885   7.216   8.506 -0.2580 -0.6752  0.0353
  955SOL    HW1 3443   5.797   7.191   8.535 -0.7201  0.7025 -0.0653
  955SOL    HW2 3444   5.889   7.310   8.523  0.5452 -0.3864 -1.5926
  956SOL     OW 3445   3.277   7.369   0.369  1.2929  0.0940 -0.3396
  956SOL    HW1 3446   3.239   7.317   0.297 -1.0994  0.3761  0.6401
  956SOL    HW2 3447   3.368   7.340   0.373  1.2847 -0.5509 -2.9092
  957SOL     OW 3448   5.224   2.290   3.107  0.2209  0.4681 -1.1080
  957SOL    HW1 3449   5.310   2.321   3.138 -0.3001  0.9394 -0.0506
  957SOL    HW2 3450   5.244   2.237   3.031  1.4044  1.1145 -1.2862
  958SOL     OW 3451   1.296   7.153   6.016 -0.2376  0.0952  0.1000
  958SOL    HW1 3452   1.356   7.161   5.942  1.3826 -0.7568  1.2691
  958SOL    HW2 3453   1.311   7.232   6.068 -1.4409  0.7377 -0.4796
  959SOL     OW 3454   1.328   8.071   2.700  0.2967 -0.1243  0.2581
  959SOL    HW1 3455   1.335   8.023   2.782 -0.2788 -2.3095 -0.8923
  959SOL    HW2 3456   1.419   8.083   2.671  0.5702  1.5610  1.6248
  960SOL     OW 3457   3.824   2.923   8.474  0.1991  0.1420  0.1588
  960SOL    HW1 3458   3.743   2.882   8.504  1.4938 -1.3808  1.8583
  960SOL    HW2 3459   3.808   2.946   8.383 -1.1789 -2.8215 -0.4631
  961SOL     OW 3460   3.660   7.619   3.075  0.0190  0.0281  0.1464
  961SOL    HW1 3461   3.616   7.624   3.160 -0.3256 -0.8956  0.0358
  961SOL    HW2 3462   3.609   7.676   3.018 -1.0766 -1.0340  0.0187
  962SOL     OW 3463   6.359   9.726   0.246  0.0316 -0.0214  0.2512
  962SOL    HW1 3464   6.428   9.772   0.293 -0.5926  0.9386  0.2610
  962SOL    HW2 3465   6.349   9.643   0.293  0.7825  0.0779  0.5965
  963SOL     OW 3466   7.504   6.125   5.774  0.4532 -0.0013  0.7025
  963SOL    HW1 3467   7.441   6.085   5.715  0.3108  1.2346 -0.0214
  963SOL    HW2 3468   7.451   6.170   5.840  0.6060 -1.7627  2.1085
  964SOL     OW 3469   4.980   5.332   8.577 -0.3629  0.1990 -0.0533
  964SOL    HW1 3470   5.027   5.250   8.592  0.4638  0.0012 -3.0234
  964SOL    HW2 3471   4.984   5.378   8.661  3.1850 -0.8497  0.5259
  965SOL     OW 3472   4.325   5.737   3.907 -0.3190  0.2962 -0.0404
  965SOL    HW1 3473   4.238   5.773   3.919 -0.5476 -0.6004  1.1180
  965SOL    HW2 3474   4.317   5.679   3.831 -0.6481  0.4566 -0.1285
  966SOL     OW 3475   3.669   8.250   9.311 -0.5026 -0.5425 -0.0759
  966SOL    HW1 3476   3.671   8.336   9.354 -1.3752 -0.6071  0.1025
  966SOL    HW2 3477   3.664   8.270   9.218  0.7582 -0.4032 -0.1269
  967SOL     OW 3478   2.742   7.935   3.012  0.1810 -0.2386  0.2135
  967SOL    HW1 3479   2.646   7.927   3.012  0.2448 -1.4650 -0.8241
  967SOL    HW2 3480   2.760   8.007   2.952 -0.0576 -1.3177 -1.1989
  968SOL     OW 3481   2.339   8.951   3.676 -0.2697 -0.6303  0.0061
  968SOL    HW1 3482   2.284   9.001   3.616 -1.1918 -0.2587  1.1233
  968SOL    HW2 3483   2.287   8.943   3.755  1.5676  0.3541  1.3914
  969SOL     OW 3484   5.302   3.220   4.473  0.3147  0.0224  0.0611
  969SOL    HW1 3485   5.342   3.149   4.524 -0.6956  0.0496  0.9210
  969SOL    HW2 3486   5.234   3.176   4.421  1.4120 -0.0256 -1.3998
  970SOL     OW 3487   5.518   1.185   2.707 -0.3931  0.1129  0.3254
  970SOL    HW1 3488   5.519   1.101   2.753 -0.6165 -0.8544 -1.3380
  970SOL    HW2 3489   5.538   1.250   2.774  0.6388 -1.3568  1.5030
  971SOL     OW 3490   9.450   0.837   4.632  0.2304 -0.4419  0.5170
  971SOL    HW1 3491   9.479   0.782   4.559  1.8219  1.4678 -0.3709
  971SOL    HW2 3492   9.368   0.876   4.603 -0.4609 -1.6108  0.8138
  972SOL     OW 3493   6.861   1.949   1.010 -0.0107  0.1323 -0.3650
  972SOL    HW1 3494   6.809   1.872   0.990  2.6819 -1.7978 -0.4869
  972SOL    HW2 3495   6.873   1.993   0.926  1.3741 -1.3656 -1.0097
  973SOL     OW 3496   5.720   8.051   2.347 -0.5300  0.0317 -0.4204
  973SOL    HW1 3497   5.628   8.025   2.352 -0.5193 -0.0179 -0.4785
  973SOL    HW2 3498   5.753   8.037   2.436 -0.0538 -1.9215 -0.8627
  974SOL     OW 3499   3.251   4.231   0.526 -0.6737  0.3220  0.6170
  974SOL    HW1 3500   3.164   4.234   0.487 -0.2322  0.2461 -0.4173
  974SOL    HW2 3501   3.270   4.137   0.535 -0.0455  0.2968 -0.7255
  975SOL     OW 3502   0.032   0.905   0.424  0.1424  0.5646 -0.2111
  975SOL    HW1 3503   0.031   0.819   0.467 -0.1332  2.0926  3.1103
  975SOL    HW2 3504   0.115   0.944   0.451  0.2840  1.3809 -1.7169
  976SOL     OW 3505   7.747   2.923   7.688  0.0047 -0.0570  0.5121
  976SOL    HW1 3506   7.806   2.882   7.624 -1.2761 -1.3783  0.1080
  976SOL    HW2 3507   7.789   2.908   7.773  1.4138  1.1594  0.0580
  977SOL     OW 3508   4.274   3.035   0.060 -0.0824 -0.1668 -1.0920
  977SOL    HW1 3509   4.218   2.959   0.045 -0.5716 -0.3815  1.3899
  977SOL    HW2 3510   4.360   3.009   0.028 -0.7888 -0.8498 -2.4644
  978SOL     OW 3511   5.564   3.401   5.878  0.3275 -0.2302  0.4848
  978SOL    HW1 3512   5.588   3.312   5.903 -1.3651 -0.9599 -0.3546
  978SOL    HW2 3513   5.551   3.396   5.783  1.3277  1.2005  0.2436
  979SOL     OW 3514   0.998   4.091   6.059  0.4581 -0.4048  0.0075
  979SOL    HW1 3515   1.053   4.013   6.051  0.2976 -0.7927  2.1365
  979SOL    HW2 3516   1.024   4.131   6.142 -1.8767 -0.1425  0.6845
  980SOL     OW 3517   9.697   2.760   2.352 -0.3393 -0.8180  0.2422
  980SOL    HW1 3518   9.726   2.798   2.269  0.7167 -0.7469  0.6340
  980SOL    HW2 3519   9.733   2.671   2.350 -0.0449 -0.7131  0.7514
  981SOL     OW 3520   4.161   9.743   5.511 -0.0443  0.1452 -0.0977
  981SOL    HW1 3521   4.136   9.820   5.562 -1.1373 -0.6018  0.5363
  981SOL    HW2 3522   4.080   9.717   5.466  0.9849  1.0618 -2.6565
  982SOL     OW 3523   8.289   7.783   4.259 -0.0319 -0.0860  0.2238
  982SOL    HW1 3524   8.226   7.731   4.208  0.5159 -1.8097  1.2297
  982SOL    HW2 3525   8.295   7.738   4.343  0.8771  1.3477  0.9695
  983SOL     OW 3526   7.676   2.360   2.264  0.7376  1.0965 -0.3641
  983SOL    HW1 3527   7.720   2.441   2.290  2.2738  0.8467 -1.9536
  983SOL    HW2 3528   7.738   2.291   2.288  0.2154  0.5358 -0.5979
  984SOL     OW 3529   9.842   5.041   2.086 -0.1270 -0.3142  0.0610
  984SOL    HW1 3530   9.895   5.013   2.012 -0.4095 -0.1596 -0.2019
  984SOL    HW2 3531   9.901   5.093   2.140  0.1589 -0.6770  0.0995
  985SOL     OW 3532   1.838   2.915   7.999 -0.4049  0.0229 -0.1557
  985SOL    HW1 3533   1.868   2.825   8.013 -0.7290 -0.2221 -0.9842
  985SOL    HW2 3534   1.763   2.924   8.057 -0.4599 -0.2919 -0.1730
  986SOL     OW 3535   2.439   4.088   8.928 -0.3272 -0.5507 -0.2805
  986SOL    HW1 3536   2.402   4.099   8.840 -0.4934  2.5496  0.0949
  986SOL    HW2 3537   2.362   4.076   8.984 -0.3739 -0.1760 -0.2637
  987SOL     OW 3538   2.668   8.911   7.304  0.0604  0.7131  0.3722
  987SOL    HW1 3539   2.582   8.914   7.344 -0.9635  0.0111 -1.6238
  987SOL    HW2 3540   2.711   8.992   7.332 -0.9068  0.6852  2.0589
  988SOL     OW 3541   3.918   1.228   2.858 -0.1537 -0.7710  0.0197
  988SOL    HW1 3542   3.955   1.145   2.829  0.0282 -1.0579  1.0375
  988SOL    HW2 3543   3.835   1.205   2.899  0.4511 -0.6213  1.3927
  989SOL     OW 3544   5.534   0.460   0.463 -0.1186  0.1173  0.5124
  989SOL    HW1 3545   5.490   0.497   0.540  0.5330  1.5556  0.2146
  989SOL    HW2 3546   5.463   0.442   0.401 -0.4585  0.7863  0.6990
  990SOL     OW 3547   3.747   6.932   3.624  0.0354 -0.4475  0.2791
  990SOL    HW1 3548   3.746   6.935   3.528 -0.0507 -1.0077  0.2616
  990SOL    HW2 3549   3.755   6.839   3.645  0.4830 -0.2911  0.8164
  991SOL     OW 3550   4.666   0.716   9.548 -0.3113  0.7096  0.6977
  991SOL    HW1 3551   4.644   0.724   9.641  3.0428  1.4159  1.5610
  991SOL    HW2 3552   4.726   0.642   9.544 -0.3150  0.7635 -0.9142
  992SOL     OW 3553   5.567   2.464   0.205  0.6342  0.5843 -0.3539
  992SOL    HW1 3554   5.540   2.478   0.114 -1.1120 -0.4923 -0.0532
  992SOL    HW2 3555   5.576   2.370   0.213  0.6869  0.6688  0.6207
  993SOL     OW 3556   5.772   9.249   1.297  0.4934  0.8487  0.4317
  993SOL    HW1 3557   5.687   9.215   1.269  0.7962 -1.2413  1.8470
  993SOL    HW2 3558   5.785   9.212   1.384  3.3313  0.1777 -0.1882
  994SOL     OW 3559   9.753   1.734   5.880 -0.4091  0.4377  0.4145
  994SOL    HW1 3560   9.795   1.728   5.966 -2.0680 -0.8083  1.1952
  994SOL    HW2 3561   9.690   1.806   5.890 -0.5847  0.3091  0.2557
  995SOL     OW 3562   6.884   3.104   4.787 -0.3583  0.0644  0.5797
  995SOL    HW1 3563   6.914   3.168   4.722 -1.6986 -1.5694 -1.7944
  995SOL    HW2 3564   6.963   3.076   4.832  0.8285  0.4009 -1.1926
  996SOL     OW 3565   5.647   6.180   3.386 -0.4226  0.2740  0.0079
  996SOL    HW1 3566   5.732   6.221   3.400 -1.1398  1.1117  2.3229
  996SOL    HW2 3567   5.662   6.088   3.405  0.2314  0.1785 -0.8981
  997SOL     OW 3568   2.198   9.194   7.380  0.0160 -0.3004 -0.4047
  997SOL    HW1 3569   2.246   9.194   7.463  1.6557 -0.5618 -1.3044
  997SOL    HW2 3570   2.200   9.102   7.352 -0.3369 -0.1776 -0.8357
  998SOL     OW 3571   6.434   7.672   4.044  0.9764 -0.4054 -0.0105
  998SOL    HW1 3572   6.373   7.709   4.108  1.5540  0.6055 -0.0213
  998SOL    HW2 3573   6.422   7.726   3.966  0.4069 -1.5173 -0.7128
  999SOL     OW 3574   8.224   6.676   1.146 -0.4462 -0.5703  0.0730
  999SOL    HW1 3575   8.201   6.740   1.213 -1.0357  0.9808 -1.5085
  999SOL    HW2 3576   8.214   6.591   1.188  1.5294  0.3400  2.6328
 1000SOL     OW 3577   0.262   3.786   6.406 -0.1095  0.5030 -0.0187
 1000SOL    HW1 3578   0.227   3.729   6.338 -0.8974 -0.0729  0.8463
 1000SOL    HW2 3579   0.201   3.777   6.479  0.0762  2.0100  0.3560
 1001SOL     OW 3580   5.110   6.501   5.285  0.2882  0.3293  0.5538
 1001SOL    HW1 3581   5.133   6.415   5.320 -1.1395  0.4725  1.9783
 1001SOL    HW2 3582   5.021   6.491   5.251 -0.0146  1.2974  1.0052
 1002SOL     OW 3583   4.810   2.712   4.763 -0.0033  0.4122  0.6324
 1002SOL    HW1 3584   4.721   2.681   4.746 -0.1101  0.0709  1.7784
 1002SOL    HW2 3585   4.834   2.758   4.682 -0.5899 -0.9115 -0.3471
 1003SOL     OW 3586   7.358   8.969   0.637  0.6030  0.3304  0.1945
 1003SOL    HW1 3587   7.362   8.884   0.681  0.8263  0.8516  1.2033
 1003SOL    HW2 3588   7.307   8.952   0.557  0.0119 -0.5920  0.7488
 1004SOL     OW 3589   2.279   7.052   8.518 -0.2601 -0.1462 -0.1968
 1004SOL    HW1 3590   2.349   7.112   8.546  0.0579 -0.3025 -0.6342
 1004SOL    HW2 3591   2.303   6.968   8.557 -0.4733 -0.0909  0.0583
 1005SOL     OW 3592   1.967   4.051   1.214  1.0298  0.3181 -0.0090
 1005SOL    HW1 3593   2.043   4.102   1.185  0.6472 -0.3145 -2.3232
 1005SOL    HW2 3594   1.914   4.040   1.135 -0.6266 -0.7106  1.1869
 1006SOL     OW 3595   7.229   3.435   0.730 -0.0222  0.2031 -0.2120
 1006SOL    HW1 3596   7.248   3.373   0.800 -0.1498  1.2260  0.7516
 1006SOL    HW2 3597   7.142   3.409   0.698 -0.8731  0.9264  1.3849
 1007SOL     OW 3598   7.447   5.718   0.235 -0.4893 -0.2101 -0.3322
 1007SOL    HW1 3599   7.454   5.813   0.230 -1.3800 -0.0725  0.5909
 1007SOL    HW2 3600   7.359   5.702   0.268  0.7204 -1.1935  2.9090
 1008SOL     OW 3601   4.173   6.229   2.184 -0.2793 -0.4860  0.2137
 1008SOL    HW1 3602   4.080   6.252   2.180  0.2343  1.5582 -1.8150
 1008SOL    HW2 3603   4.207   6.281   2.256 -0.2635  0.6933 -0.6213
 1009SOL     OW 3604   2.879   1.409   0.877  0.8492 -0.1572 -0.1240
 1009SOL    HW1 3605   2.861   1.502   0.863 -0.7016 -0.4631 -0.4131
 1009SOL    HW2 3606   2.922   1.405   0.962  0.2971  0.7726  0.2176
 1010SOL     OW 3607   1.127   0.893   6.093  0.0027  0.3057  0.2357
 1010SOL    HW1 3608   1.173   0.820   6.135 -0.1276  0.2361  0.2602
 1010SOL    HW2 3609   1.037   0.862   6.085 -0.1167  0.5712  0.5063
 1011SOL     OW 3610   0.609   9.846   7.825  0.0949  0.2350 -0.5446
 1011SOL    HW1 3611   0.573   9.794   7.896  0.6946 -0.1566 -0.5159
 1011SOL    HW2 3612   0.580   9.801   7.745 -0.3897  0.5452 -0.5432
 1012SOL     OW 3613   6.025   0.379   9.931 -0.5493  0.2696 -0.3996
 1012SOL    HW1 3614   6.001   0.361  10.022  0.8210  1.2515  0.1922
 1012SOL    HW2 3615   6.118   0.400   9.935 -0.4325  0.1706 -2.0659
 1013SOL     OW 3616   5.913   2.811   1.640 -0.2974  0.1638 -0.4502
 1013SOL    HW1 3617   5.838   2.808   1.580 -0.5035 -1.5550 -0.1570
 1013SOL    HW2 3618   5.875   2.793   1.726  0.3702 -0.1579 -0.2151
 1014SOL     OW 3619   1.635   5.037   7.037  0.6514  0.7042  0.0428
 1014SOL    HW1 3620   1.708   4.980   7.061 -0.8641 -1.1593  0.4547
 1014SOL    HW2 3621   1.601   5.068   7.121  0.4550  0.8981 -0.1098
 1015SOL     OW 3622   8.146   3.025   4.361 -0.0645 -0.0483 -0.8292
 1015SOL    HW1 3623   8.066   2.979   4.387  0.7750 -0.6859  0.6949
 1015SOL    HW2 3624   8.216   2.983   4.410  0.9367  1.8639 -0.5144
 1016SOL     OW 3625   7.942   0.717   2.442  0.1825 -0.6347  0.6912
 1016SOL    HW1 3626   8.024   0.668   2.453 -0.5930 -1.5760  2.7731
 1016SOL    HW2 3627   7.969   0.809   2.437  1.4450 -1.0256 -0.1245
 1017SOL     OW 3628   8.887   8.658   3.176 -0.4328  0.2454 -0.3395
 1017SOL    HW1 3629   8.958   8.601   3.207 -0.4980 -0.8129 -1.9924
 1017SOL    HW2 3630   8.862   8.709   3.252  0.1933 -1.3744  1.0181
 1018SOL     OW 3631   0.625   6.993   9.204 -0.2033  0.5652  0.0399
 1018SOL    HW1 3632   0.619   7.076   9.252  0.4775  0.9392 -0.4892
 1018SOL    HW2 3633   0.573   7.008   9.125 -0.0326  0.5046 -0.0840
 1019SOL     OW 3634   3.780   5.654   3.258  0.3635 -0.1966 -0.1849
 1019SOL    HW1 3635   3.819   5.593   3.196  1.5582  0.3414  0.0079
 1019SOL    HW2 3636   3.790   5.612   3.344 -0.3246 -0.4626 -0.2271
 1020SOL     OW 3637   6.317   6.257   1.373  0.1882  0.8860 -0.0870
 1020SOL    HW1 3638   6.383   6.312   1.330  0.0228  1.3259  0.2221
 1020SOL    HW2 3639   6.339   6.168   1.344  0.2726  1.1362 -0.8333
 1021SOL     OW 3640   3.910   4.987   2.646 -0.0649  0.1694 -0.1479
 1021SOL    HW1 3641   3.883   4.971   2.555  1.0673  0.6627 -0.6050
 1021SOL    HW2 3642   3.879   4.912   2.695 -1.8156  0.4946 -0.6990
 1022SOL     OW 3643   8.975   2.667   6.546 -0.0452 -0.1978 -0.3041
 1022SOL    HW1 3644   9.016   2.707   6.469  0.3421 -1.2585 -0.6565
 1022SOL    HW2 3645   9.005   2.720   6.620 -0.7222  1.0699 -0.9043
 1023SOL     OW 3646   0.328   1.941   0.185  0.8418  0.3179  0.2071
 1023SOL    HW1 3647   0.271   1.866   0.166  0.3860  1.0605 -1.5196
 1023SOL    HW2 3648   0.300   1.971   0.271 -0.4239 -0.1923 -0.0048
 1024SOL     OW 3649   9.844   1.742   7.987  0.3473 -0.6211  0.3714
 1024SOL    HW1 3650   9.847   1.810   8.054  1.9632 -0.5289  0.2450
 1024SOL    HW2 3651   9.891   1.668   8.025  1.8115 -0.3645 -0.8270
 1025SOL     OW 3652   1.184   0.592   3.924 -0.3647 -0.0400  0.0215
 1025SOL    HW1 3653   1.117   0.547   3.871  1.4910 -0.1992 -2.3626
 1025SOL    HW2 3654   1.144   0.676   3.946 -1.8202 -0.6381 -0.1860
 1026SOL     OW 3655   6.517   5.482   0.134  0.4473 -0.2091  0.2656
 1026SOL    HW1 3656   6.536   5.443   0.220 -0.3060  0.0627  0.5659
 1026SOL    HW2 3657   6.578   5.556   0.128 -0.4040  0.5904  1.1634
 1027SOL     OW 3658   0.537   3.944   9.096  0.8966  0.1345 -0.2321
 1027SOL    HW1 3659   0.564   3.853   9.105  0.0938 -0.2028 -1.0338
 1027SOL    HW2 3660   0.588   3.978   9.023  0.1653 -0.1023 -0.8622
 1028SOL     OW 3661   1.682   8.151   8.587  0.0865  0.4711 -0.1402
 1028SOL    HW1 3662   1.615   8.090   8.619  1.2371 -0.0908  1.2938
 1028SOL    HW2 3663   1.641   8.193   8.511 -1.4617 -0.6684  0.0059
 1029SOL     OW 3664   0.354   9.302   9.646 -0.5949  0.6787  0.0492
 1029SOL    HW1 3665   0.421   9.234   9.648  1.1064  2.2904  0.9896
 1029SOL    HW2 3666   0.327   9.307   9.554 -0.2114 -0.7314 -0.1480
 1030SOL     OW 3667   5.505   4.687   7.352 -0.3895  0.0291 -0.7049
 1030SOL    HW1 3668   5.454   4.670   7.432  0.4234  0.4032 -0.0855
 1030SOL    HW2 3669   5.467   4.767   7.315 -0.2131  0.3491 -0.2062
 1031SOL     OW 3670   6.470   9.156   5.429 -0.0971  0.0232  0.1065
 1031SOL    HW1 3671   6.392   9.196   5.467  0.6263  0.7244  0.9257
 1031SOL    HW2 3672   6.437   9.091   5.367 -1.3292 -0.2703  1.0345
 1032SOL     OW 3673   5.999   8.915   6.201  0.0053 -0.1119  0.3539
 1032SOL    HW1 3674   6.017   8.917   6.107 -1.3916 -0.4247  0.0508
 1032SOL    HW2 3675   5.959   8.829   6.215  0.2115 -0.0672  1.2331
 1033SOL     OW 3676   5.265   6.223   6.331  0.1126  0.1017  0.5333
 1033SOL    HW1 3677   5.358   6.206   6.346  0.4652  1.6655  0.3075
 1033SOL    HW2 3678   5.222   6.191   6.411  0.7757 -1.0387  0.4517
 1034SOL     OW 3679   2.216   0.480   2.075  0.0323 -0.1828 -0.1240
 1034SOL    HW1 3680   2.128   0.509   2.101  1.7451  3.3598  2.5977
 1034SOL    HW2 3681   2.229   0.520   1.989  0.5220  3.7127  1.5130
 1035SOL     OW 3682   6.368   0.599   7.680 -0.2778 -0.0304 -0.2028
 1035SOL    HW1 3683   6.391   0.507   7.663 -1.1603 -0.4077  0.5341
 1035SOL    HW2 3684   6.296   0.594   7.743  1.2185  1.2333  1.7072
 1036SOL     OW 3685   9.162   3.793   5.899 -0.4834 -0.3038 -0.3188
 1036SOL    HW1 3686   9.246   3.804   5.943 -0.3601 -0.5522 -0.4872
 1036SOL    HW2 3687   9.098   3.830   5.959 -0.5308 -2.1551  0.8385
 1037SOL     OW 3688   2.715   0.273   2.514 -0.5012  0.3824  0.7457
 1037SOL    HW1 3689   2.700   0.359   2.552  1.5229 -0.1812  3.0253
 1037SOL    HW2 3690   2.677   0.211   2.577 -0.7726 -0.4631 -0.2123
 1038SOL     OW 3691  -0.002   1.899   9.071  0.2664  0.3753 -0.2365
 1038SOL    HW1 3692   0.012   1.928   8.981  0.9083 -2.5370 -1.1809
 1038SOL    HW2 3693   0.084   1.909   9.113  0.2303  0.7386 -0.2445
 1039SOL     OW 3694   3.168   3.275   2.949 -0.0795 -0.5331 -0.0987
 1039SOL    HW1 3695   3.172   3.294   2.855  0.0222  0.7678  0.1524
 1039SOL    HW2 3696   3.087   3.316   2.978 -0.1480 -0.9947  0.3767
 1040SOL     OW 3697   3.741   8.304   2.459 -0.1863  0.1787  0.2461
 1040SOL    HW1 3698   3.819   8.292   2.405  0.2237  0.8604  0.6785
 1040SOL    HW2 3699   3.749   8.239   2.528 -1.2384 -1.4265 -1.0667
 1041SOL     OW 3700   3.838   7.471   0.730  0.2890  0.2669 -0.1102
 1041SOL    HW1 3701   3.881   7.390   0.700 -0.8376 -0.4571  0.1473
 1041SOL    HW2 3702   3.761   7.479   0.674 -0.5796  0.1690  1.0204
 1042SOL     OW 3703   6.742   9.577   3.967  0.4741  0.1823  0.4218
 1042SOL    HW1 3704   6.709   9.514   3.904 -1.7384  0.0418  1.6199
 1042SOL    HW2 3705   6.837   9.574   3.957  0.2216 -0.0856 -2.5956
 1043SOL     OW 3706   4.565   9.768   0.519  0.4569  0.1665  0.4989
 1043SOL    HW1 3707   4.581   9.714   0.442  0.6476  0.3204  0.4291
 1043SOL    HW2 3708   4.604   9.853   0.497 -1.0765  0.7833  0.0314
 1044SOL     OW 3709   0.760   0.694   5.205 -0.3560 -0.6896 -0.5696
 1044SOL    HW1 3710   0.786   0.701   5.113  0.9064  0.9940 -0.1403
 1044SOL    HW2 3711   0.827   0.638   5.245  0.8496  1.0090 -0.1150
 1045SOL     OW 3712   8.182   9.823   2.161  0.1174 -0.4459  0.1394
 1045SOL    HW1 3713   8.151   9.873   2.086  0.9832 -0.7412 -0.4195
 1045SOL    HW2 3714   8.102   9.799   2.208 -0.3407  1.1317  0.2159
 1046SOL     OW 3715   1.151   0.707   3.163  0.0704 -0.1781 -0.1869
 1046SOL    HW1 3716   1.119   0.685   3.076  0.4854  1.3733 -0.7658
 1046SOL    HW2 3717   1.095   0.656   3.222 -2.0639  0.7932 -1.2370
 1047SOL     OW 3718   7.455   0.145   8.852 -0.0347  0.4447 -0.3171
 1047SOL    HW1 3719   7.411   0.203   8.914  2.3375  0.9332  1.0367
 1047SOL    HW2 3720   7.460   0.061   8.898  1.0771  0.6129 -0.0863
 1048SOL     OW 3721   0.807   4.596  -0.003  0.5211  0.6554 -0.3297
 1048SOL    HW1 3722   0.847   4.512   0.017  0.8303  0.9699  0.4069
 1048SOL    HW2 3723   0.744   4.610   0.068  0.6771  1.1756 -0.2924
 1049SOL     OW 3724   2.270   1.113   2.267  0.0567  0.1473 -0.0820
 1049SOL    HW1 3725   2.244   1.204   2.282  1.6250  0.5587  0.2672
 1049SOL    HW2 3726   2.276   1.075   2.354 -0.5220 -0.2946 -0.2233
 1050SOL     OW 3727   4.571   6.111   2.832 -0.1279 -0.1335  0.9378
 1050SOL    HW1 3728   4.642   6.126   2.894 -0.0558 -0.1105  0.8495
 1050SOL    HW2 3729   4.612   6.063   2.760 -0.1268  0.1883  0.7226
 1051SOL     OW 3730   1.378   5.277   9.361  0.1321 -0.0546 -0.6264
 1051SOL    HW1 3731   1.442   5.244   9.298  0.9997  0.4705 -0.0429
 1051SOL    HW2 3732   1.304   5.306   9.307  0.3103 -0.8116 -1.2976
 1052SOL     OW 3733   1.874   6.771   6.137 -0.1362  0.0182 -0.7155
 1052SOL    HW1 3734   1.842   6.753   6.049 -0.6429 -1.0265 -0.3319
 1052SOL    HW2 3735   1.968   6.786   6.126  0.0861 -1.6369 -1.2397
 1053SOL     OW 3736   8.666   5.557   9.764 -0.8088 -0.5072  0.1368
 1053SOL    HW1 3737   8.638   5.533   9.675  0.4656 -2.4050  0.1961
 1053SOL    HW2 3738   8.588   5.596   9.803 -1.6741 -0.4805 -1.5112
 1054SOL     OW 3739   9.409   9.009   9.063  0.2345 -0.5642 -0.3456
 1054SOL    HW1 3740   9.412   8.934   9.123 -1.7852 -0.3587  0.0725
 1054SOL    HW2 3741   9.317   9.018   9.041  0.2005  2.6297  0.6608
 1055SOL     OW 3742   1.961   7.648   6.590 -0.2719  0.1433 -0.4596
 1055SOL    HW1 3743   1.994   7.609   6.509  1.1185  0.4639 -0.0679
 1055SOL    HW2 3744   2.000   7.595   6.659 -0.7608  0.4059  0.0197
 1056SOL     OW 3745   2.929   5.952   6.914 -0.0586  0.2313  0.2669
 1056SOL    HW1 3746   2.933   6.047   6.898  0.8099  0.3125  0.8795
 1056SOL    HW2 3747   2.947   5.943   7.008  0.7965 -0.5921  0.0407
 1057SOL     OW 3748   3.845   9.849   0.159 -0.5457 -0.3659 -0.3400
 1057SOL    HW1 3749   3.938   9.841   0.136 -0.6964 -0.1304 -1.0623
 1057SOL    HW2 3750   3.817   9.760   0.179  0.1753 -0.2627  1.2713
 1058SOL     OW 3751   5.542   2.001   0.475  0.2475  0.5774  0.0165
 1058SOL    HW1 3752   5.540   2.006   0.379  0.7046  0.5810  0.0024
 1058SOL    HW2 3753   5.538   2.092   0.504  1.2024  0.6489 -0.0355
 1059SOL     OW 3754   5.971   7.744   9.775  0.2143  0.3023  0.2321
 1059SOL    HW1 3755   5.914   7.692   9.830  0.0858  0.6168  0.4006
 1059SOL    HW2 3756   6.058   7.707   9.789  0.3257  0.9129  1.3134
 1060SOL     OW 3757   4.123   8.283   3.680  0.4147  0.4115  0.4130
 1060SOL    HW1 3758   4.168   8.307   3.761  2.0923 -0.8192 -0.0791
 1060SOL    HW2 3759   4.098   8.367   3.641 -0.2107  1.0241  2.0677
 1061SOL     OW 3760   4.494   3.070   7.052  0.2878 -0.2682  0.3804
 1061SOL    HW1 3761   4.570   3.016   7.032 -0.5256 -1.1916 -0.3037
 1061SOL    HW2 3762   4.472   3.113   6.969 -0.4859 -0.7229  0.3415
 1062SOL     OW 3763   3.651   7.552   8.542  0.2220  0.2250 -0.4569
 1062SOL    HW1 3764   3.707   7.480   8.571 -0.0925  0.5306  0.9500
 1062SOL    HW2 3765   3.631   7.531   8.450  4.1765  1.1052 -1.6914
 1063SOL     OW 3766   5.283   8.082   8.672  0.0845 -0.2669  0.1103
 1063SOL    HW1 3767   5.344   8.119   8.608  0.0629 -0.0886  0.1928
 1063SOL    HW2 3768   5.301   7.988   8.671  0.3080 -0.2241  0.0775
 1064SOL     OW 3769   1.453   5.111   3.865  0.5853 -0.0280 -0.3022
 1064SOL    HW1 3770   1.465   5.205   3.851  1.3391 -0.3122 -1.7200
 1064SOL    HW2 3771   1.384   5.105   3.931  0.7525  1.5190  0.0441
 1065SOL     OW 3772   6.445   7.059   8.716  0.3745 -0.3212  0.0223
 1065SOL    HW1 3773   6.367   7.007   8.697  0.0815 -0.4197  1.3889
 1065SOL    HW2 3774   6.419   7.116   8.788  2.5070 -2.8611  3.0544
 1066SOL     OW 3775   4.915   7.669   1.963 -0.1156 -0.1144 -0.6208
 1066SOL    HW1 3776   4.949   7.758   1.962 -1.3524  0.3687 -1.1208
 1066SOL    HW2 3777   4.937   7.636   2.050  0.7424  0.5192 -0.5930
 1067SOL     OW 3778   4.851   1.395   9.690  0.1004 -0.6900  0.1260
 1067SOL    HW1 3779   4.913   1.389   9.617  1.8165  1.0551  1.3512
 1067SOL    HW2 3780   4.851   1.308   9.729  2.4111 -0.5585  0.5394
 1068SOL     OW 3781   5.015   0.716   9.157 -0.6959  0.2724  0.1156
 1068SOL    HW1 3782   4.966   0.773   9.217 -1.2498  0.6614 -0.6810
 1068SOL    HW2 3783   4.980   0.738   9.071 -0.0671 -0.4367 -0.3250
 1069SOL     OW 3784   4.937   8.496   0.169 -0.5733 -0.2798 -0.2280
 1069SOL    HW1 3785   5.027   8.474   0.190  0.0043  2.9132  1.2192
 1069SOL    HW2 3786   4.894   8.411   0.154  2.3809 -1.9424  0.0007
 1070SOL     OW 3787   5.145   5.820   6.481 -0.6520  0.2950  0.8422
 1070SOL    HW1 3788   5.079   5.818   6.550 -1.6556  2.5591  0.0456
 1070SOL    HW2 3789   5.148   5.912   6.453 -0.7961 -0.6007 -2.5522
 1071SOL     OW 3790   8.292   1.719   3.695 -0.3970  0.0233 -0.4758
 1071SOL    HW1 3791   8.335   1.789   3.745  1.1507 -0.3977 -1.1571
 1071SOL    HW2 3792   8.237   1.764   3.632  1.4928  0.7108 -1.7077
 1072SOL     OW 3793   6.668   8.793   1.544  0.0898  0.2032  0.5864
 1072SOL    HW1 3794   6.590   8.740   1.561  0.6235 -0.2273  1.8126
 1072SOL    HW2 3795   6.738   8.749   1.592  1.2293  0.2515 -0.9598
 1073SOL     OW 3796   1.013   9.593   3.143  0.7658 -0.2078 -0.0719
 1073SOL    HW1 3797   0.953   9.667   3.152  0.0500 -0.5950 -1.4000
 1073SOL    HW2 3798   1.029   9.564   3.233 -1.8152 -0.6882  0.3121
 1074SOL     OW 3799   0.877   2.061   2.356 -0.2699  0.6601 -0.0141
 1074SOL    HW1 3800   0.972   2.070   2.359 -0.0780 -0.6615 -1.0345
 1074SOL    HW2 3801   0.861   1.971   2.386 -1.2658  1.1266  0.8918
 1075SOL     OW 3802   7.406   2.923   2.721 -0.2522 -0.3214  0.5041
 1075SOL    HW1 3803   7.443   2.982   2.788  0.5113  0.3221 -0.4463
 1075SOL    HW2 3804   7.398   2.978   2.643  0.9226 -1.5801 -0.5546
 1076SOL     OW 3805   8.937   8.459  -0.017  0.4039 -0.2066  0.0845
 1076SOL    HW1 3806   8.911   8.521   0.051 -0.9235  1.3062 -1.6747
 1076SOL    HW2 3807   9.032   8.474  -0.027  0.3159  0.7283  0.4949
 1077SOL     OW 3808   8.584   6.321   2.321 -0.1681 -0.3858 -0.2520
 1077SOL    HW1 3809   8.673   6.321   2.286 -0.6415 -0.1737 -1.5369
 1077SOL    HW2 3810   8.576   6.238   2.368  1.2520  0.3741  1.3981
 1078SOL     OW 3811   8.175   6.077   7.075  0.2637  0.4951  0.2452
 1078SOL    HW1 3812   8.160   6.171   7.077  0.9411  0.5939  1.0318
 1078SOL    HW2 3813   8.261   6.066   7.036  0.8039  0.3001  1.4369
 1079SOL     OW 3814   0.671   8.829   3.870  0.2665  0.1875  0.6135
 1079SOL    HW1 3815   0.650   8.844   3.962 -1.9936  1.1661  0.0224
 1079SOL    HW2 3816   0.724   8.905   3.845  0.6552  0.0594  1.0476
 1080SOL     OW 3817   9.695   3.724   7.116 -0.3591 -0.6435  0.0404
 1080SOL    HW1 3818   9.683   3.818   7.128 -0.4602 -0.5051 -1.0247
 1080SOL    HW2 3819   9.645   3.685   7.187 -0.5928  0.1021  0.3009
 1081SOL     OW 3820   7.485   9.453   0.443  0.4214  0.1582  0.0312
 1081SOL    HW1 3821   7.498   9.510   0.519  1.9199  1.5867 -1.2262
 1081SOL    HW2 3822   7.447   9.509   0.376  0.0807 -0.8245 -0.6333
 1082SOL     OW 3823   8.177   9.943   4.373 -0.2258  0.6380 -0.7882
 1082SOL    HW1 3824   8.118  10.000   4.423 -0.6634  0.0746 -0.6474
 1082SOL    HW2 3825   8.214   9.883   4.438 -1.3360 -0.5589 -1.2023
 1083SOL     OW 3826   3.975   0.062   7.056 -0.2882 -0.0630  0.0792
 1083SOL    HW1 3827   4.017   0.148   7.060 -0.6001  0.0860  0.2020
 1083SOL    HW2 3828   3.882   0.081   7.055 -0.3460 -0.3708 -0.7935
 1084SOL     OW 3829   5.735   3.364   6.926  0.2208  0.3501 -1.0743
 1084SOL    HW1 3830   5.737   3.457   6.950  2.5356  0.3094 -0.8545
 1084SOL    HW2 3831   5.827   3.342   6.908  0.0024 -2.3344  0.5295
 1085SOL     OW 3832   6.585   6.307   5.552 -0.2118 -0.4530  0.4735
 1085SOL    HW1 3833   6.597   6.256   5.472  0.3129  0.8102 -0.2820
 1085SOL    HW2 3834   6.556   6.393   5.521 -1.5531 -0.4103  1.7393
 1086SOL     OW 3835   5.795   5.403   5.972 -0.2567  0.0617  0.5446
 1086SOL    HW1 3836   5.825   5.328   6.024 -1.4203 -1.1516 -0.4671
 1086SOL    HW2 3837   5.863   5.415   5.906 -0.8338 -1.2384 -0.3425
 1087SOL     OW 3838   1.057   1.294   1.854  0.3103 -0.3330  0.0590
 1087SOL    HW1 3839   1.038   1.283   1.761  1.0320 -0.6385 -0.0562
 1087SOL    HW2 3840   0.974   1.275   1.898 -0.1695  0.3103 -0.5472
 1088SOL     OW 3841   8.098   0.278   1.869 -0.6633  0.1583 -0.0845
 1088SOL    HW1 3842   8.061   0.337   1.935  1.1824  2.1594 -0.7494
 1088SOL    HW2 3843   8.022   0.237   1.828 -1.9929  1.7092  0.7291
 1089SOL     OW 3844   9.735   0.302   6.089 -0.0510  0.2797  0.3487
 1089SOL    HW1 3845   9.705   0.323   6.000 -0.5430 -0.1860  0.3982
 1089SOL    HW2 3846   9.776   0.216   6.081  1.3889  0.9569  0.2678
 1090SOL     OW 3847   5.546   9.076   7.065 -0.1727  0.4788 -0.4988
 1090SOL    HW1 3848   5.547   9.172   7.060  1.3491  0.4782 -0.7544
 1090SOL    HW2 3849   5.609   9.048   6.998  2.8010 -0.4826  2.3889
 1091SOL     OW 3850   6.917   6.928   1.213  0.0693 -0.4361  0.3905
 1091SOL    HW1 3851   6.855   6.916   1.285 -0.1627 -0.3312  0.2089
 1091SOL    HW2 3852   6.906   7.019   1.186 -0.9267 -0.8703 -0.7650
 1092SOL     OW 3853   1.285   3.258   3.336 -0.0770 -0.6550  0.0112
 1092SOL    HW1 3854   1.298   3.349   3.363  1.1017 -1.0258  0.7440
 1092SOL    HW2 3855   1.248   3.215   3.413 -2.7670 -0.3672 -0.9953
 1093SOL     OW 3856   9.977   7.639   5.704 -0.2766 -0.3087 -0.8162
 1093SOL    HW1 3857  10.011   7.699   5.770  0.5043 -0.6831 -0.8624
 1093SOL    HW2 3858   9.899   7.600   5.744 -0.1845 -0.0501 -0.3805
 1094SOL     OW 3859   4.601   8.626   9.372  0.2735  0.4351 -0.5199
 1094SOL    HW1 3860   4.637   8.618   9.284 -0.7239  0.4131 -0.9396
 1094SOL    HW2 3861   4.506   8.632   9.359 -0.1701 -2.4192  0.6721
 1095SOL     OW 3862   5.831   4.777   0.851 -0.2684  0.2725  0.4718
 1095SOL    HW1 3863   5.746   4.733   0.857 -0.4231  0.4335 -0.4271
 1095SOL    HW2 3864   5.894   4.708   0.872 -0.6405  0.4182  2.2785
 1096SOL     OW 3865   1.113   3.645   6.526 -0.1043 -0.0513  0.6135
 1096SOL    HW1 3866   1.183   3.709   6.511  0.9305 -1.1164  0.7483
 1096SOL    HW2 3867   1.053   3.690   6.585 -0.4498  1.5047 -0.8385
 1097SOL     OW 3868   6.157   0.414   9.652 -0.3707 -0.2859  0.0656
 1097SOL    HW1 3869   6.140   0.381   9.740  0.8703  0.1104  0.4695
 1097SOL    HW2 3870   6.187   0.504   9.665  1.7900 -0.8601 -0.5804
 1098SOL     OW 3871   2.391   4.089   6.866 -0.1064  0.1316 -0.0319
 1098SOL    HW1 3872   2.383   4.106   6.960  1.5524 -0.0730  0.1718
 1098SOL    HW2 3873   2.322   4.142   6.826  0.3112  1.6405  1.1658
 1099SOL     OW 3874   9.617   9.257   8.669 -0.0827  0.2926  0.0913
 1099SOL    HW1 3875   9.550   9.315   8.705  2.0932  1.7300  2.0954
 1099SOL    HW2 3876   9.637   9.196   8.739  1.4188  0.5736 -0.0600
 1100SOL     OW 3877   5.908   3.531   8.472 -0.1509 -0.9331  0.1031
 1100SOL    HW1 3878   5.888   3.453   8.525 -1.5858 -0.1721  0.7685
 1100SOL    HW2 3879   5.822   3.564   8.447  0.3441  1.3433  1.2055
 1101SOL     OW 3880   7.980   0.707   1.841  0.2769 -0.5261  0.3457
 1101SOL    HW1 3881   8.020   0.792   1.861  0.8714 -0.5909 -0.5190
 1101SOL    HW2 3882   8.054   0.650   1.821 -0.0067 -1.6727  2.3435
 1102SOL     OW 3883   9.545   5.916   7.989 -0.0226  0.0989 -0.3719
 1102SOL    HW1 3884   9.602   5.918   8.066 -0.4933  0.3608 -0.0244
 1102SOL    HW2 3885   9.586   5.977   7.928  0.5058 -0.3197 -0.4430
 1103SOL     OW 3886   6.202   7.118   7.785  0.2732 -0.6957  0.1404
 1103SOL    HW1 3887   6.285   7.073   7.769  1.4927  2.4778 -4.6760
 1103SOL    HW2 3888   6.223   7.184   7.852  1.7019 -0.0779 -0.8589
 1104SOL     OW 3889   0.861   9.468   3.371 -0.0638 -0.1142  0.4098
 1104SOL    HW1 3890   0.842   9.550   3.417 -1.1060 -0.2980  0.3195
 1104SOL    HW2 3891   0.776   9.425   3.361  0.2980 -0.6205 -0.6624
 1105SOL     OW 3892   5.112   2.592   4.799 -0.4934  0.3334 -0.8039
 1105SOL    HW1 3893   5.114   2.496   4.795 -0.1055  0.3625 -1.6241
 1105SOL    HW2 3894   5.175   2.614   4.867 -1.6073 -0.0258  0.3878
 1106SOL     OW 3895   1.434   4.332   1.553  0.2538 -0.4291 -0.3545
 1106SOL    HW1 3896   1.432   4.380   1.470  1.0697 -0.5080 -0.4272
 1106SOL    HW2 3897   1.418   4.399   1.619 -1.8653 -0.5836 -0.6283
 1107SOL     OW 3898   7.371   8.936   8.705  0.1194 -0.2678  0.6547
 1107SOL    HW1 3899   7.313   8.861   8.718  1.2482 -1.4128 -0.5694
 1107SOL    HW2 3900   7.367   8.984   8.787 -4.8141  1.4442 -0.2416
 1108SOL     OW 3901   9.480   2.756   9.737 -0.1618 -0.1353 -0.0421
 1108SOL    HW1 3902   9.439   2.702   9.805  1.5640  0.5990  1.7061
 1108SOL    HW2 3903   9.466   2.846   9.767  0.9926  0.1916 -0.4297
 1109SOL     OW 3904   6.418   8.811   9.571  0.8860 -0.1686 -0.2968
 1109SOL    HW1 3905   6.506   8.774   9.580  1.0916  0.7058  1.6475
 1109SOL    HW2 3906   6.413   8.880   9.636 -1.0971  0.1455 -0.6945
 1110SOL     OW 3907   2.936   1.743   2.753 -0.3608 -1.0802 -0.0912
 1110SOL    HW1 3908   2.853   1.705   2.780 -0.8171 -0.6700 -0.9008
 1110SOL    HW2 3909   2.985   1.755   2.835 -1.0730 -1.3576  0.3822
 1111SOL     OW 3910   2.745   1.138   8.689  0.3944 -0.1295 -0.2867
 1111SOL    HW1 3911   2.699   1.210   8.644  0.8276 -0.0009 -0.5299
 1111SOL    HW2 3912   2.740   1.161   8.782  2.0664  1.1592 -0.4637
 1112SOL     OW 3913   2.106   3.122   3.032  0.3035  0.2891 -0.4918
 1112SOL    HW1 3914   2.128   3.180   3.104 -2.3098  0.4574  0.2844
 1112SOL    HW2 3915   2.175   3.136   2.967  1.9823  1.1378  1.3791
 1113SOL     OW 3916   1.806   9.589   9.366 -0.6841  0.7062 -0.3255
 1113SOL    HW1 3917   1.819   9.638   9.447 -0.2985  0.1933 -0.0704
 1113SOL    HW2 3918   1.711   9.593   9.351 -0.7245  1.0421 -0.0047
 1114SOL     OW 3919   0.642   7.739   3.967  0.9059 -0.0899  0.8969
 1114SOL    HW1 3920   0.569   7.737   4.028  1.5175 -0.3678  1.6386
 1114SOL    HW2 3921   0.632   7.659   3.915  0.4249  0.1129  0.6679
 1115SOL     OW 3922   2.188   4.556   6.626 -0.8971 -0.0472 -0.0847
 1115SOL    HW1 3923   2.206   4.505   6.547  1.0884 -0.0134  0.2977
 1115SOL    HW2 3924   2.128   4.501   6.677 -1.4182 -0.5041 -1.1609
 1116SOL     OW 3925   1.302   0.331   4.115 -0.1354 -0.7695 -0.5086
 1116SOL    HW1 3926   1.302   0.378   4.031  0.3954 -0.0265 -0.1115
 1116SOL    HW2 3927   1.214   0.294   4.122 -0.5170  0.0303 -0.9268
 1117SOL     OW 3928   0.904   9.555   0.329  0.0356  0.7799  0.2062
 1117SOL    HW1 3929   0.951   9.636   0.310 -0.3926  1.4355  1.8336
 1117SOL    HW2 3930   0.970   9.496   0.365 -0.0283  1.0561  0.7703
 1118SOL     OW 3931   0.507   4.561   4.282 -0.5038 -0.1810  0.1968
 1118SOL    HW1 3932   0.538   4.651   4.273 -2.3398  0.5754  0.7812
 1118SOL    HW2 3933   0.560   4.524   4.353 -1.0106  1.1125  1.3031
 1119SOL     OW 3934   4.675   6.727   3.186 -0.2783  0.4153 -0.1665
 1119SOL    HW1 3935   4.677   6.822   3.200 -1.1959  0.4592 -0.2750
 1119SOL    HW2 3936   4.705   6.716   3.096  0.6994  0.5219  0.1309
 1120SOL     OW 3937   2.918   3.182   6.944 -0.0963  0.1634 -1.1864
 1120SOL    HW1 3938   2.993   3.212   6.892  0.6821 -0.5310 -0.4893
 1120SOL    HW2 3939   2.904   3.091   6.918  1.6196 -0.8878  1.2029
 1121SOL     OW 3940   9.343   8.813   3.215  0.8384  0.2010 -0.0853
 1121SOL    HW1 3941   9.372   8.899   3.184 -0.6222  1.0545  0.7975
 1121SOL    HW2 3942   9.393   8.799   3.295 -0.4738  1.2651  0.9593
 1122SOL     OW 3943   6.305   8.265   8.097  0.0251  0.1087 -0.3810
 1122SOL    HW1 3944   6.298   8.300   8.008 -0.6291  2.7249  0.5965
 1122SOL    HW2 3945   6.220   8.286   8.137  0.5284 -0.4564  1.0373
 1123SOL     OW 3946   4.630   8.414   0.768 -0.1214  0.4092 -0.4964
 1123SOL    HW1 3947   4.665   8.325   0.771  4.4411  1.9168  2.6272
 1123SOL    HW2 3948   4.566   8.417   0.839 -1.7876 -0.7204 -1.8704
 1124SOL     OW 3949   9.470   2.228   5.941 -0.6349  0.3383 -0.2061
 1124SOL    HW1 3950   9.390   2.206   5.989  0.5985 -1.2034  1.2374
 1124SOL    HW2 3951   9.499   2.311   5.980 -1.2867  0.7051 -0.4721
 1125SOL     OW 3952   1.309   4.076   7.356 -0.1539 -0.3512 -0.0085
 1125SOL    HW1 3953   1.335   4.069   7.265  0.0975  1.9297 -0.1780
 1125SOL    HW2 3954   1.387   4.052   7.406  1.3886  3.0785 -0.4934
 1126SOL     OW 3955   3.271   9.195   0.651  0.4008 -0.2152 -0.2463
 1126SOL    HW1 3956   3.281   9.110   0.608  0.3808 -0.0113 -0.6513
 1126SOL    HW2 3957   3.215   9.245   0.592  0.8506  0.2671 -0.2676
 1127SOL     OW 3958   1.942   2.696   0.793 -0.5372 -0.1157 -0.5051
 1127SOL    HW1 3959   1.927   2.749   0.871 -0.0531  0.0925 -0.5501
 1127SOL    HW2 3960   1.932   2.606   0.823 -1.0545 -0.0144 -0.3616
 1128SOL     OW 3961   3.029   3.943   7.105  0.8299  0.1326 -0.1939
 1128SOL    HW1 3962   3.050   4.009   7.171  0.1534 -0.3665  0.5413
 1128SOL    HW2 3963   3.001   3.867   7.155  0.4333 -0.3079 -1.0528
 1129SOL     OW 3964   1.635   2.813   8.147  0.1472 -0.1582  0.0608
 1129SOL    HW1 3965   1.595   2.803   8.061 -0.8740  0.0549  0.5003
 1129SOL    HW2 3966   1.637   2.725   8.183 -0.8301 -0.0359  0.4277
 1130SOL     OW 3967   6.164   9.796   5.863 -0.3694  0.1758  0.4931
 1130SOL    HW1 3968   6.139   9.875   5.816  1.4583  0.9421  0.7336
 1130SOL    HW2 3969   6.239   9.761   5.815 -0.2551 -0.6080  1.2056
 1131SOL     OW 3970   2.220   6.183   6.619 -0.1713  1.1157  0.6927
 1131SOL    HW1 3971   2.176   6.264   6.593 -1.1058  0.2998 -0.3528
 1131SOL    HW2 3972   2.207   6.124   6.545  0.6331  0.0587  1.3702
 1132SOL     OW 3973   9.315   9.185   0.967  0.6156 -0.1158 -0.1094
 1132SOL    HW1 3974   9.322   9.210   0.875 -0.2791  2.1604  0.3784
 1132SOL    HW2 3975   9.318   9.089   0.966 -1.1094 -0.2350 -2.6566
 1133SOL     OW 3976   6.135   0.932   6.024 -0.1903  0.0149 -0.1602
 1133SOL    HW1 3977   6.171   0.922   5.936 -0.1416 -0.5747 -0.0774
 1133SOL    HW2 3978   6.130   1.027   6.038  2.2417  0.1372  0.2114
 1134SOL     OW 3979   6.040   6.858   0.987 -0.2287 -0.1810  0.2711
 1134SOL    HW1 3980   6.117   6.860   1.043  0.6185  1.2108 -0.8743
 1134SOL    HW2 3981   5.974   6.812   1.038  1.8890 -3.1484  0.6034
 1135SOL     OW 3982   6.276   0.989   5.773 -0.3735  0.0547  0.3077
 1135SOL    HW1 3983   6.328   1.066   5.795  0.3218 -0.4397  0.4159
 1135SOL    HW2 3984   6.312   0.957   5.690 -4.0314  2.8886 -2.7679
 1136SOL     OW 3985   0.168   6.969   6.305 -0.5741  0.2402  0.4327
 1136SOL    HW1 3986   0.229   6.920   6.360 -0.7062  0.1639  0.5117
 1136SOL    HW2 3987   0.207   6.966   6.218 -0.8710 -0.5031  0.3174
 1137SOL     OW 3988   4.519   8.428   5.388 -0.1211  0.6915 -0.2418
 1137SOL    HW1 3989   4.557   8.372   5.321  0.3765  1.4343 -0.5890
 1137SOL    HW2 3990   4.510   8.514   5.347 -0.0853  1.0859  0.5394
 1138SOL     OW 3991   2.985   0.521   5.934  0.3759 -0.8799  0.0801
 1138SOL    HW1 3992   3.044   0.580   5.981  1.5683 -2.5851  0.8462
 1138SOL    HW2 3993   2.904   0.522   5.985  0.7790 -0.7613  0.7331
 1139SOL     OW 3994   0.072   2.355   5.561 -0.3498  0.1323  0.1525
 1139SOL    HW1 3995   0.113   2.270   5.554  0.3016  0.4300  0.2873
 1139SOL    HW2 3996  -0.021   2.339   5.544 -0.0714 -0.4265 -0.8680
 1140SOL     OW 3997   1.877   2.599   2.954  0.3655  0.1939 -0.0534
 1140SOL    HW1 3998   1.950   2.661   2.952  1.5149 -1.0949 -0.2828
 1140SOL    HW2 3999   1.801   2.649   2.924  0.7600  2.0551  1.8463
 1141SOL     OW 4000   3.790   3.962   8.209  0.6692 -0.1244  0.5839
 1141SOL    HW1 4001   3.837   3.939   8.289 -0.0631  2.1813  1.7504
 1141SOL    HW2 4002   3.701   3.931   8.223  0.5584  0.2143  0.6459
 1142SOL     OW 4003   9.562   1.226   5.825 -0.0299 -0.2075 -0.0315
 1142SOL    HW1 4004   9.513   1.305   5.847  1.1756  0.2650  1.1329
 1142SOL    HW2 4005   9.616   1.209   5.903  1.0524 -1.1319 -0.9448
 1143SOL     OW 4006   1.170   9.146   3.558  0.4803  0.2312 -0.6849
 1143SOL    HW1 4007   1.225   9.094   3.499  0.3967 -1.1380  0.4191
 1143SOL    HW2 4008   1.108   9.191   3.500  1.0219 -0.3253 -1.7134
 1144SOL     OW 4009   2.246   0.234   1.956 -0.1254 -0.4548 -0.1514
 1144SOL    HW1 4010   2.254   0.298   2.026  1.1540  2.1660 -2.4931
 1144SOL    HW2 4011   2.336   0.207   1.937 -0.1410  0.7628 -2.3006
 1145SOL     OW 4012   9.461   2.136   8.302  0.0158  0.6197  0.1472
 1145SOL    HW1 4013   9.513   2.177   8.233  1.6993 -0.2673  0.8107
 1145SOL    HW2 4014   9.400   2.204   8.329  2.9531  2.9785  1.4943
 1146SOL     OW 4015   4.921   6.474   4.279  0.2143  0.2631  0.3215
 1146SOL    HW1 4016   4.959   6.557   4.306 -0.4209  0.0228  2.0824
 1146SOL    HW2 4017   4.991   6.429   4.231  0.1900  2.2653 -1.7732
 1147SOL     OW 4018   5.598   6.189   1.930 -0.0957 -0.0216 -0.1466
 1147SOL    HW1 4019   5.589   6.099   1.897 -1.1465 -0.5956  1.5280
 1147SOL    HW2 4020   5.623   6.241   1.854  3.2241 -2.1451 -0.6873
 1148SOL     OW 4021   9.416   9.079   3.199  0.0086  0.6481  1.0154
 1148SOL    HW1 4022   9.343   9.141   3.189  0.7053  1.6576  1.9016
 1148SOL    HW2 4023   9.491   9.123   3.158  0.2042 -0.2672  0.3431
 1149SOL     OW 4024   4.719   4.307   9.177  0.7621  0.3872  0.4067
 1149SOL    HW1 4025   4.735   4.355   9.096 -0.1603  1.1427  0.6543
 1149SOL    HW2 4026   4.799   4.256   9.191  1.6016  1.5199 -0.1008
 1150SOL     OW 4027   2.215   1.833   2.698 -0.6712  0.2291  0.2746
 1150SOL    HW1 4028   2.173   1.918   2.711  0.8054  1.1267 -0.4729
 1150SOL    HW2 4029   2.295   1.837   2.750 -1.6941 -1.6481  2.1087
 1151SOL     OW 4030   9.364   0.167   5.013 -0.0356  0.4279  0.1232
 1151SOL    HW1 4031   9.270   0.176   4.998 -0.1764  1.0142  1.2546
 1151SOL    HW2 4032   9.405   0.204   4.934 -0.7429  1.4706  0.2308
 1152SOL     OW 4033   9.020   8.217   9.304  0.3424 -0.2764 -0.0930
 1152SOL    HW1 4034   8.982   8.232   9.391 -1.5044 -2.9813 -0.2920
 1152SOL    HW2 4035   8.992   8.293   9.253 -1.4349 -0.2341  0.8432
 1153SOL     OW 4036   5.068   0.915   2.883  0.1126  0.2674  0.2845
 1153SOL    HW1 4037   4.992   0.943   2.832  0.0266  0.5612  0.5701
 1153SOL    HW2 4038   5.137   0.902   2.818 -0.1937 -0.0442  0.0185
 1154SOL     OW 4039   6.539   9.309   7.355 -0.1417  0.3066 -0.1066
 1154SOL    HW1 4040   6.473   9.365   7.316 -0.2822 -0.2497 -0.6887
 1154SOL    HW2 4041   6.564   9.353   7.436 -1.8862  0.0607  0.5912
 1155SOL     OW 4042   1.168   9.483   4.641 -0.0587  0.4989 -0.5739
 1155SOL    HW1 4043   1.107   9.529   4.699 -1.4221  0.2657 -1.7858
 1155SOL    HW2 4044   1.231   9.442   4.701 -1.2423  0.5172  0.7363
 1156SOL     OW 4045   8.086   5.813   9.967 -0.0791 -0.1336 -0.0042
 1156SOL    HW1 4046   7.990   5.814   9.961 -0.0543 -1.4018 -1.2616
 1156SOL    HW2 4047   8.108   5.721   9.979  0.9890  0.1795  0.5525
 1157SOL     OW 4048   3.597   6.129   6.820 -0.4770  0.5415  0.2097
 1157SOL    HW1 4049   3.539   6.200   6.791 -0.1068  0.8726  0.2645
 1157SOL    HW2 4050   3.613   6.077   6.742  2.0912  2.5185 -0.7497
 1158SOL     OW 4051   3.653   1.337   6.089  0.0609  0.4376 -0.2781
 1158SOL    HW1 4052   3.747   1.322   6.102 -0.0434  0.1541  0.1778
 1158SOL    HW2 4053   3.644   1.432   6.088  0.1304  0.4981  1.4771
 1159SOL     OW 4054   1.166   7.222   3.028  0.4983  0.3905  0.4155
 1159SOL    HW1 4055   1.222   7.159   2.982  0.6295  0.8825 -0.1102
 1159SOL    HW2 4056   1.228   7.276   3.078  0.6283  1.6157 -0.9847
 1160SOL     OW 4057   3.610   7.345   7.901  0.8975  0.0801  0.2351
 1160SOL    HW1 4058   3.515   7.362   7.904  0.7089 -0.8184 -0.3205
 1160SOL    HW2 4059   3.648   7.427   7.870  0.2650  0.3357  0.1141
 1161SOL     OW 4060   6.181   7.549   0.296  0.2900 -0.4343 -0.2487
 1161SOL    HW1 4061   6.172   7.590   0.382  1.0193  0.3983 -0.5607
 1161SOL    HW2 4062   6.265   7.580   0.262  0.2184 -1.1004 -1.0820
 1162SOL     OW 4063   7.193   8.849   4.545  0.1368 -0.0223  0.3188
 1162SOL    HW1 4064   7.187   8.866   4.451 -0.3711  0.4570  0.4356
 1162SOL    HW2 4065   7.263   8.907   4.576 -0.0222  0.1733  0.3155
 1163SOL     OW 4066   7.922   4.667   4.450  0.2171 -0.0987  0.0277
 1163SOL    HW1 4067   8.008   4.636   4.477 -0.6919 -1.4112  1.5752
 1163SOL    HW2 4068   7.896   4.728   4.520 -0.2945 -0.0545 -0.1981
 1164SOL     OW 4069   3.444   2.947   2.167  0.1271  0.1039 -0.4172
 1164SOL    HW1 4070   3.386   3.023   2.162  1.8047  1.4107 -0.7863
 1164SOL    HW2 4071   3.440   2.919   2.259 -2.5353 -1.0888 -0.7866
 1165SOL     OW 4072   6.496   5.492   8.469 -0.5694  0.3845  0.3531
 1165SOL    HW1 4073   6.520   5.547   8.544  1.4170 -0.4158  0.3670
 1165SOL    HW2 4074   6.509   5.548   8.393 -0.8311  0.6583  0.5117
 1166SOL     OW 4075   4.703   4.598   1.425  0.2583  0.0683  0.0971
 1166SOL    HW1 4076   4.669   4.613   1.337  1.5467  0.5818 -0.3497
 1166SOL    HW2 4077   4.721   4.504   1.429 -0.6990 -0.1145  0.1593
 1167SOL     OW 4078   1.146   2.764   0.582  0.3377  0.3546 -0.0778
 1167SOL    HW1 4079   1.126   2.675   0.553  0.4215 -0.0242  0.9824
 1167SOL    HW2 4080   1.062   2.799   0.613  0.4600  0.3343  0.2874
 1168SOL     OW 4081   9.875   0.343   2.773 -0.0545  0.1112 -0.2577
 1168SOL    HW1 4082   9.794   0.391   2.759 -0.6137 -0.4643  0.8777
 1168SOL    HW2 4083   9.933   0.407   2.815 -0.4591  0.0834  0.3527
 1169SOL     OW 4084   9.466   5.561   0.648 -0.2718  0.0925  0.1827
 1169SOL    HW1 4085   9.387   5.558   0.701  2.6092  1.5744  5.3018
 1169SOL    HW2 4086   9.518   5.485   0.677  1.1674  0.4895 -1.1785
 1170SOL     OW 4087   4.395   2.376   7.635  0.6496  0.0417  0.0051
 1170SOL    HW1 4088   4.302   2.361   7.616  0.0607 -1.7450  3.6046
 1170SOL    HW2 4089   4.426   2.294   7.672  3.3255  1.0682  0.2382
 1171SOL     OW 4090   5.730   5.050   0.464  0.1477  0.2088  0.0320
 1171SOL    HW1 4091   5.713   4.985   0.396  0.1159 -0.5278  0.7397
 1171SOL    HW2 4092   5.729   5.134   0.417 -0.1556 -0.2625 -0.8257
 1172SOL     OW 4093   3.342   3.910   7.337 -0.1236  0.1284 -0.0410
 1172SOL    HW1 4094   3.271   3.888   7.396 -0.3938 -0.7860 -0.6725
 1172SOL    HW2 4095   3.307   3.978   7.280 -1.1793 -1.6026 -1.5581
 1173SOL     OW 4096   5.974   5.681   6.929  0.8601  0.5139 -0.2109
 1173SOL    HW1 4097   5.918   5.709   6.856 -1.6640 -1.8920  0.6116
 1173SOL    HW2 4098   6.059   5.663   6.889  0.2397  1.4931 -2.1004
 1174SOL     OW 4099   0.210   7.523   7.817  0.0737 -0.1534  0.7980
 1174SOL    HW1 4100   0.187   7.610   7.784  1.9084  0.1428  0.2065
 1174SOL    HW2 4101   0.285   7.496   7.764 -0.6938 -2.2885  0.6927
 1175SOL     OW 4102   1.389   7.207   6.750 -0.6729 -0.5529 -0.1061
 1175SOL    HW1 4103   1.403   7.137   6.814  2.3648 -0.9623 -1.0303
 1175SOL    HW2 4104   1.322   7.174   6.691 -2.5089 -0.7512  1.9864
 1176SOL     OW 4105   3.931   7.574   5.154  0.0400 -0.0625 -0.1147
 1176SOL    HW1 4106   3.929   7.561   5.249 -0.8862  1.0948  0.0357
 1176SOL    HW2 4107   4.022   7.557   5.130  0.3490 -0.0794  1.0218
 1177SOL     OW 4108   7.503   2.959   5.934 -0.1611 -0.4910  0.3506
 1177SOL    HW1 4109   7.473   2.871   5.910  1.0224 -0.2892 -2.2252
 1177SOL    HW2 4110   7.433   3.018   5.906 -0.0717 -0.4670  0.1772
 1178SOL     OW 4111   3.244   0.479   6.678 -0.0348  1.1341  0.4494
 1178SOL    HW1 4112   3.169   0.431   6.712  0.7170  0.5376  1.2990
 1178SOL    HW2 4113   3.295   0.414   6.630  1.0485  1.0098  1.7046
 1179SOL     OW 4114   3.150   9.445   8.161  0.2214  0.5824 -0.2764
 1179SOL    HW1 4115   3.185   9.474   8.077 -0.1157 -0.3581 -0.7572
 1179SOL    HW2 4116   3.082   9.382   8.138  2.1217 -1.9950  0.6728
 1180SOL     OW 4117   1.099   5.796   2.339  0.3573 -0.0175 -0.0785
 1180SOL    HW1 4118   1.072   5.714   2.380  0.3661 -0.1309 -0.2961
 1180SOL    HW2 4119   1.141   5.769   2.257  0.5117  0.1945 -0.0700
 1181SOL     OW 4120   0.073   9.673   1.227 -0.3440  0.7972 -0.1269
 1181SOL    HW1 4121   0.108   9.752   1.268  0.3525  0.0350  0.7963
 1181SOL    HW2 4122   0.045   9.618   1.300  1.4542 -0.8575 -0.5706
 1182SOL     OW 4123   1.744   3.192   3.986  0.0940  0.4776  0.2376
 1182SOL    HW1 4124   1.703   3.250   4.050 -0.2636 -0.8741  1.2925
 1182SOL    HW2 4125   1.711   3.105   4.008 -0.1623 -0.0311 -1.9108
 1183SOL     OW 4126   5.708   7.322   3.737  0.3916  0.3940  0.8413
 1183SOL    HW1 4127   5.791   7.367   3.727  0.6409 -0.3810 -1.1626
 1183SOL    HW2 4128   5.664   7.334   3.652 -1.0134 -0.2144  1.4452
 1184SOL     OW 4129   0.251   5.427   4.584 -0.0095 -0.2448  0.1796
 1184SOL    HW1 4130   0.280   5.485   4.514 -1.3494 -0.1462 -0.3213
 1184SOL    HW2 4131   0.318   5.436   4.651  0.2496  1.2481 -0.2316
 1185SOL     OW 4132   2.027   6.244   7.504  0.5534 -0.1847 -1.0112
 1185SOL    HW1 4133   2.072   6.314   7.551  0.4530 -0.8475  0.1121
 1185SOL    HW2 4134   2.085   6.223   7.431  0.8813  0.6325 -1.0038
 1186SOL     OW 4135   8.330   3.512   0.448 -0.0934  0.3169 -0.5643
 1186SOL    HW1 4136   8.408   3.504   0.501  0.2685  0.7340 -1.0251
 1186SOL    HW2 4137   8.362   3.539   0.362 -0.9102  2.8031 -0.1587
 1187SOL     OW 4138   4.837   8.887   5.183 -0.1433 -0.4970 -0.1208
 1187SOL    HW1 4139   4.777   8.935   5.126  0.4356 -2.1344 -2.2388
 1187SOL    HW2 4140   4.786   8.867   5.261 -1.1750  1.2647 -0.2884
 1188SOL     OW 4141   2.743   0.592   6.171  0.2646 -0.2408  0.1363
 1188SOL    HW1 4142   2.649   0.598   6.186  0.1365 -0.0515 -0.7163
 1188SOL    HW2 4143   2.761   0.498   6.172  0.2938 -0.2501  1.5529
 1189SOL     OW 4144   6.874   3.145   3.341 -0.0457 -0.4660  0.0886
 1189SOL    HW1 4145   6.862   3.163   3.434  1.4631 -1.3566  0.4941
 1189SOL    HW2 4146   6.786   3.125   3.309 -1.1304  3.0030  0.5291
 1190SOL     OW 4147   2.361   3.019   1.571  0.1560  0.0362  0.4704
 1190SOL    HW1 4148   2.268   3.025   1.548 -0.2473 -2.4052  1.1319
 1190SOL    HW2 4149   2.370   3.076   1.648 -0.7712  0.3843  0.3386
 1191SOL     OW 4150   3.564   8.254   2.274 -0.1606 -0.5488 -0.4105
 1191SOL    HW1 4151   3.614   8.262   2.356 -0.8786 -0.6331  0.0423
 1191SOL    HW2 4152   3.564   8.159   2.257  0.2136 -0.5091 -0.6582
 1192SOL     OW 4153   1.457   0.267   2.031 -0.0768 -0.2616 -0.0242
 1192SOL    HW1 4154   1.416   0.200   1.977 -0.0218 -0.9116  0.7320
 1192SOL    HW2 4155   1.513   0.219   2.092 -0.4657  0.4327  0.9041
 1193SOL     OW 4156   3.539   4.061   7.446  0.4420 -0.2422  0.1543
 1193SOL    HW1 4157   3.502   4.066   7.534 -0.6560  1.2231 -0.3467
 1193SOL    HW2 4158   3.475   4.009   7.397 -0.7308  1.7669 -0.5609
 1194SOL     OW 4159   3.532   2.469   0.452  0.6165  0.0160 -0.3532
 1194SOL    HW1 4160   3.603   2.471   0.516  1.2279  1.7771 -1.0267
 1194SOL    HW2 4161   3.563   2.409   0.384 -0.1292 -2.0455  1.0054
 1195SOL     OW 4162   0.045   0.725   5.742 -0.2093 -0.3579 -0.1696
 1195SOL    HW1 4163  -0.002   0.787   5.686 -1.2837 -0.5743  0.4643
 1195SOL    HW2 4164   0.100   0.675   5.681 -0.7472 -0.0474 -0.9282
 1196SOL     OW 4165   6.978   9.391   0.036  0.0933  0.3833  0.3494
 1196SOL    HW1 4166   7.014   9.390   0.125 -1.6707  0.0262  1.1059
 1196SOL    HW2 4167   7.050   9.422  -0.019  0.6286  2.6347  2.1798
 1197SOL     OW 4168   5.717   4.871   4.469  0.2730  0.6104 -0.2648
 1197SOL    HW1 4169   5.728   4.964   4.453  2.3193  0.4863  0.2167
 1197SOL    HW2 4170   5.720   4.830   4.383  0.5877  0.8867 -0.3832
 1198SOL     OW 4171   2.033   6.323   6.444  0.0390 -0.4342 -0.0969
 1198SOL    HW1 4172   2.113   6.369   6.420 -0.2157 -0.6580 -1.4899
 1198SOL    HW2 4173   1.963   6.386   6.428 -0.0779 -0.2768  1.0030
 1199SOL     OW 4174   6.280   8.842   3.009 -0.2491 -0.0632  0.0277
 1199SOL    HW1 4175   6.283   8.809   3.099 -1.5298  1.2327  0.5959
 1199SOL    HW2 4176   6.209   8.793   2.968  1.1942 -1.6037 -0.7281
 1200SOL     OW 4177   1.938   8.609   2.505 -0.3893 -0.3074  0.1342
 1200SOL    HW1 4178   2.004   8.589   2.571  0.2168 -2.6381 -1.0366
 1200SOL    HW2 4179   1.855   8.586   2.547 -0.4835  2.0024  1.3791
 1201SOL     OW 4180   0.010   6.828   9.545  0.2458  0.5395  0.0815
 1201SOL    HW1 4181  -0.039   6.796   9.622  3.2179 -0.3128  1.7755
 1201SOL    HW2 4182   0.089   6.868   9.582  1.8694 -0.0266 -2.5511
 1202SOL     OW 4183   4.981   1.494   9.137  0.2683  0.2767 -0.3753
 1202SOL    HW1 4184   5.064   1.491   9.090 -0.0088  1.6131 -0.9892
 1202SOL    HW2 4185   4.922   1.541   9.079 -1.3265 -1.7508 -0.5233
 1203SOL     OW 4186   5.801   4.395   6.452  0.4711  0.0354  0.1870
 1203SOL    HW1 4187   5.888   4.429   6.471  0.8935 -0.3665 -0.9227
 1203SOL    HW2 4188   5.815   4.333   6.380 -0.9041  0.9547 -0.9212
 1204SOL     OW 4189   0.195   1.587   1.031 -0.0065 -0.3284 -0.2049
 1204SOL    HW1 4190   0.226   1.673   1.061  0.7843 -0.8430  0.4882
 1204SOL    HW2 4191   0.256   1.563   0.961  0.0379 -0.5144 -0.1025
 1205SOL     OW 4192   4.032   8.693   0.931  0.5326 -0.0165 -0.1172
 1205SOL    HW1 4193   4.000   8.605   0.951 -1.5642  0.6564 -0.2622
 1205SOL    HW2 4194   4.085   8.717   1.007  1.6057 -1.5822 -0.3183
 1206SOL     OW 4195   3.528   5.507   2.052  0.0002 -0.3145  0.4941
 1206SOL    HW1 4196   3.536   5.516   2.147 -1.4900 -1.5380  0.7698
 1206SOL    HW2 4197   3.434   5.503   2.036  0.2457 -1.7156 -0.8527
 1207SOL     OW 4198   1.696   1.115   8.902  0.3197  0.3200  0.0478
 1207SOL    HW1 4199   1.782   1.074   8.907  0.3460  0.4453  0.8227
 1207SOL    HW2 4200   1.683   1.134   8.809  0.7263 -0.5466 -0.1987
 1208SOL     OW 4201   5.341   0.785   8.351 -0.1681  0.3092  0.1785
 1208SOL    HW1 4202   5.372   0.807   8.263 -1.0466  0.7188 -0.0343
 1208SOL    HW2 4203   5.319   0.870   8.390 -1.2538  0.0091  0.2321
 1209SOL     OW 4204   7.425   8.094   7.163  0.3160 -0.5975 -0.1215
 1209SOL    HW1 4205   7.518   8.115   7.174  0.1865  0.1056 -0.3095
 1209SOL    HW2 4206   7.409   8.021   7.223  0.9532 -0.6195  0.0241
 1210SOL     OW 4207   3.286   8.118   7.263 -0.3684  0.1395 -0.2237
 1210SOL    HW1 4208   3.347   8.091   7.194 -2.0986 -0.0633 -1.7647
 1210SOL    HW2 4209   3.262   8.036   7.307 -1.0303 -0.0610 -0.9389
 1211SOL     OW 4210   2.331   1.128   3.861  0.3323  0.5466  0.1028
 1211SOL    HW1 4211   2.293   1.087   3.939 -0.3716  0.5358 -0.2435
 1211SOL    HW2 4212   2.256   1.150   3.806  0.7070  1.9161  0.0824
 1212SOL     OW 4213   4.412   2.060   7.432  0.1569 -0.1966 -0.3008
 1212SOL    HW1 4214   4.407   2.135   7.373  1.6540  0.2555  0.1160
 1212SOL    HW2 4215   4.488   2.011   7.402 -0.0141 -0.8253  0.2730
 1213SOL     OW 4216   3.628   2.201   6.174 -0.1396 -0.6559  0.2163
 1213SOL    HW1 4217   3.558   2.184   6.236 -0.9656 -0.9691 -0.7866
 1213SOL    HW2 4218   3.699   2.144   6.202 -0.2026 -0.2187  1.3359
 1214SOL     OW 4219   8.985   4.904   3.435 -0.1217 -0.1388 -0.4629
 1214SOL    HW1 4220   8.975   4.864   3.349 -1.9702  0.1527 -0.4214
 1214SOL    HW2 4221   8.930   4.851   3.493  0.6783 -0.0143  0.4373
 1215SOL     OW 4222   3.711   7.936   4.948  0.3632  0.1350  0.5917
 1215SOL    HW1 4223   3.748   8.023   4.931 -1.2053  0.4239 -1.8300
 1215SOL    HW2 4224   3.779   7.875   4.917  1.0702  0.4919  1.3943
 1216SOL     OW 4225   0.752   2.747   4.601  0.4316  0.4600  0.4214
 1216SOL    HW1 4226   0.732   2.809   4.671  2.2101  2.0034 -0.3422
 1216SOL    HW2 4227   0.717   2.787   4.522  0.1203 -0.3368  0.1455
 1217SOL     OW 4228   1.246   8.463   6.298  0.6921  0.3225 -0.6196
 1217SOL    HW1 4229   1.280   8.432   6.382 -0.3786  0.6992 -0.0175
 1217SOL    HW2 4230   1.312   8.438   6.234  1.5934  0.1392  0.3524
 1218SOL     OW 4231   2.935   7.458   0.983 -0.3823 -0.1817  0.1691
 1218SOL    HW1 4232   3.017   7.490   1.021 -1.0042  0.6732  0.8508
 1218SOL    HW2 4233   2.889   7.538   0.954 -1.1868 -0.5990  0.2622
 1219SOL     OW 4234   7.653   6.485   4.356 -0.2473 -0.5562  0.2825
 1219SOL    HW1 4235   7.631   6.465   4.264 -1.0156  0.7832  0.1440
 1219SOL    HW2 4236   7.748   6.490   4.357 -0.2812  1.1341 -0.8562
 1220SOL     OW 4237   6.652   1.152   0.891 -0.0768 -0.1715 -0.9748
 1220SOL    HW1 4238   6.633   1.186   0.804  4.7651  0.0959 -2.2033
 1220SOL    HW2 4239   6.604   1.069   0.895 -0.7733 -0.0022 -3.7103
 1221SOL     OW 4240   8.999   2.612   9.309  0.4289  0.1405  0.5447
 1221SOL    HW1 4241   9.060   2.678   9.276  0.6496 -0.1963  0.2876
 1221SOL    HW2 4242   9.016   2.610   9.404  1.4431 -0.5966  0.3520
 1222SOL     OW 4243   1.833   7.793   8.308 -0.9557 -0.2137  0.3432
 1222SOL    HW1 4244   1.832   7.859   8.377 -4.0092  0.0687  0.1587
 1222SOL    HW2 4245   1.908   7.817   8.253  0.3076  0.7570  2.3686
 1223SOL     OW 4246   3.622   4.617   1.752 -0.4753 -0.2275 -0.3386
 1223SOL    HW1 4247   3.673   4.697   1.757  0.6669 -0.9924  0.8956
 1223SOL    HW2 4248   3.634   4.586   1.663  0.5248  0.0610 -0.3151
 1224SOL     OW 4249   1.958   0.358   3.178 -0.0130 -0.2090 -0.3776
 1224SOL    HW1 4250   2.048   0.383   3.161  0.0659 -0.8971 -1.0463
 1224SOL    HW2 4251   1.906   0.415   3.121 -0.1023  1.0008  0.8599
 1225SOL     OW 4252   6.502   8.959   1.228  0.0118 -0.1263 -0.3896
 1225SOL    HW1 4253   6.571   8.928   1.287 -0.2766 -0.0636 -0.0151
 1225SOL    HW2 4254   6.493   9.052   1.249 -0.7357 -0.3025  0.1372
 1226SOL     OW 4255   6.042   1.869   1.587  0.1107  0.1670 -0.5654
 1226SOL    HW1 4256   6.060   1.962   1.595 -1.2184  0.4079 -0.1001
 1226SOL    HW2 4257   6.067   1.832   1.671  1.9209 -0.1540 -1.2058
 1227SOL     OW 4258   4.674   3.913   4.890  0.0263  1.1634  0.0150
 1227SOL    HW1 4259   4.657   3.996   4.935 -1.9166  1.4118 -1.0554
 1227SOL    HW2 4260   4.749   3.875   4.936 -0.3419  2.5333  1.8525
 1228SOL     OW 4261   9.770   2.760   1.537  0.2175  0.0427  0.3279
 1228SOL    HW1 4262   9.752   2.675   1.578 -0.5581 -0.7080 -1.4567
 1228SOL    HW2 4263   9.709   2.820   1.579 -0.7395 -0.7601  0.1304
 1229SOL     OW 4264   5.837   0.420   6.257  0.0629  0.3514  0.1789
 1229SOL    HW1 4265   5.773   0.451   6.320 -0.2064  0.1418  0.0088
 1229SOL    HW2 4266   5.921   0.453   6.290 -0.2292  1.3983 -0.0806
 1230SOL     OW 4267   9.679   6.224   7.608 -0.2638  0.4676  0.2862
 1230SOL    HW1 4268   9.603   6.228   7.666 -0.5926  0.9249 -0.1764
 1230SOL    HW2 4269   9.710   6.314   7.603  0.6662  0.2044  0.9311
 1231SOL     OW 4270   9.845   3.528   6.998 -0.5330  0.5389 -0.1241
 1231SOL    HW1 4271   9.791   3.589   7.049 -0.7116  0.9698 -0.8101
 1231SOL    HW2 4272   9.863   3.455   7.058 -0.4777  1.1741  0.6474
 1232SOL     OW 4273   9.407   6.536   3.578  0.0653  0.3540  0.2037
 1232SOL    HW1 4274   9.392   6.548   3.484  0.0758 -0.5781  0.0716
 1232SOL    HW2 4275   9.372   6.449   3.597  1.6814 -0.2218  0.7083
 1233SOL     OW 4276   9.205   2.141   7.198 -0.5197 -0.5157  0.2941
 1233SOL    HW1 4277   9.172   2.098   7.278 -0.6898  0.4563  0.7641
 1233SOL    HW2 4278   9.161   2.226   7.198  0.5614  0.0528 -0.0899
 1234SOL     OW 4279   7.742   7.082   0.520  0.1375  0.5413 -0.1277
 1234SOL    HW1 4280   7.786   7.162   0.550  2.7241 -0.9017  0.2514
 1234SOL    HW2 4281   7.774   7.071   0.430 -1.6884  0.8624 -0.8601
 1235SOL     OW 4282   9.487   1.810   5.667  0.4957 -0.2938  0.0430
 1235SOL    HW1 4283   9.569   1.762   5.673  0.0205 -1.0385  0.6809
 1235SOL    HW2 4284   9.423   1.745   5.637 -0.0149  0.0974  0.2686
 1236SOL     OW 4285   8.910   9.542   2.719  0.2461 -0.0398 -0.1206
 1236SOL    HW1 4286   8.815   9.552   2.729  0.6386  2.3149  2.4758
 1236SOL    HW2 4287   8.936   9.617   2.666  0.7406 -0.4046 -0.3990
 1237SOL     OW 4288   8.151   7.628   4.084  0.1866  0.2755 -0.1792
 1237SOL    HW1 4289   8.066   7.600   4.049  0.5381  0.1256 -0.9255
 1237SOL    HW2 4290   8.212   7.561   4.055  0.6349  0.6082 -0.0101
 1238SOL     OW 4291   8.589   0.633   9.097 -0.3889  0.3344 -0.5538
 1238SOL    HW1 4292   8.521   0.570   9.074  1.7185 -1.3064 -2.8374
 1238SOL    HW2 4293   8.584   0.699   9.028 -0.2405  0.7257 -0.1971
 1239SOL     OW 4294   6.926   0.801   9.204 -0.2730 -0.3514 -0.2619
 1239SOL    HW1 4295   6.854   0.862   9.220 -0.0293  0.0742 -0.7539
 1239SOL    HW2 4296   6.978   0.843   9.136 -0.0274 -1.0550 -0.5150
 1240SOL     OW 4297   1.267   5.818   7.112  0.5226  0.5920  0.4782
 1240SOL    HW1 4298   1.279   5.913   7.123  0.8324  0.4666  1.3459
 1240SOL    HW2 4299   1.257   5.786   7.202  3.4590 -0.6143  0.4510
 1241SOL     OW 4300   0.427   3.773   1.183 -0.2166 -0.4650  0.7103
 1241SOL    HW1 4301   0.393   3.683   1.189 -1.2185 -0.2100 -0.7077
 1241SOL    HW2 4302   0.472   3.776   1.099  1.1458 -0.0391  1.4203
 1242SOL     OW 4303   9.686   1.070   6.949  0.2371  0.2662 -0.1736
 1242SOL    HW1 4304   9.634   1.121   7.011  0.0975  0.0156 -0.0791
 1242SOL    HW2 4305   9.739   1.012   7.004  0.1377  0.0677 -0.2844
 1243SOL     OW 4306   8.746   5.502   2.503  0.0540 -0.3183 -0.0162
 1243SOL    HW1 4307   8.752   5.407   2.496  1.1136 -0.4184  1.5989
 1243SOL    HW2 4308   8.728   5.532   2.414 -0.8983 -2.0504 -0.4551
 1244SOL     OW 4309   1.030   3.047   6.274  0.0068  0.3228 -0.1859
 1244SOL    HW1 4310   0.956   3.094   6.310 -0.0662 -0.8372  1.2714
 1244SOL    HW2 4311   0.996   3.005   6.195 -0.7672  0.2368  0.1798
 1245SOL     OW 4312   2.751   9.640   8.466  0.5814 -0.7149 -0.3008
 1245SOL    HW1 4313   2.681   9.684   8.515 -0.0061  0.2686 -1.9552
 1245SOL    HW2 4314   2.718   9.551   8.452 -0.6438 -0.0952 -1.5745
 1246SOL     OW 4315   1.998   4.226   5.783 -0.1288 -0.8851  0.4365
 1246SOL    HW1 4316   2.000   4.242   5.878  0.8846  1.1347  0.1235
 1246SOL    HW2 4317   2.079   4.180   5.765  0.2552 -0.2129  0.4070
 1247SOL     OW 4318   4.515   6.459   0.094  0.4620 -0.5665 -0.0382
 1247SOL    HW1 4319   4.468   6.478   0.012  0.9052 -1.9205 -0.6347
 1247SOL    HW2 4320   4.446   6.444   0.158  0.0951 -0.3461 -0.3749
 1248SOL     OW 4321   0.029   9.407   5.229  0.6212 -0.1217 -0.0281
 1248SOL    HW1 4322   0.056   9.384   5.140  0.0385 -0.8579 -0.0222
 1248SOL    HW2 4323   0.041   9.502   5.234  3.1416 -0.3763 -0.0354
 1249SOL     OW 4324   6.196   5.543   4.207 -0.0588  0.4877 -0.3475
 1249SOL    HW1 4325   6.178   5.450   4.202  0.0778  0.5119 -1.9341
 1249SOL    HW2 4326   6.147   5.573   4.283 -1.4388 -0.6011 -0.7515
 1250SOL     OW 4327   0.639   4.218   8.924 -0.3811 -0.2087  0.4967
 1250SOL    HW1 4328   0.590   4.263   8.856 -0.2697  0.1181  0.6292
 1250SOL    HW2 4329   0.596   4.244   9.006 -0.5744 -0.6737  0.5453
 1251SOL     OW 4330   5.497   2.944   3.915 -0.2966 -0.3541 -0.2633
 1251SOL    HW1 4331   5.520   2.863   3.868  0.3706 -0.3677  0.0831
 1251SOL    HW2 4332   5.432   2.986   3.859  0.0158 -0.6899 -0.8927
 1252SOL     OW 4333   0.685   6.278   4.590 -0.1749 -0.2345 -0.0731
 1252SOL    HW1 4334   0.727   6.264   4.676 -0.4096  0.3419  0.1364
 1252SOL    HW2 4335   0.600   6.236   4.598 -1.1286  1.7648  0.7643
 1253SOL     OW 4336   0.076   8.724   7.945  1.1280  0.5155 -0.4281
 1253SOL    HW1 4337   0.078   8.818   7.928  1.3258  0.5019 -0.4768
 1253SOL    HW2 4338   0.168   8.698   7.948  1.0911  0.4540  0.3129
 1254SOL     OW 4339   3.468   7.319   6.312  0.1172 -0.2626  0.2070
 1254SOL    HW1 4340   3.397   7.333   6.249  0.1712  0.4592  0.2944
 1254SOL    HW2 4341   3.424   7.301   6.395  0.0264 -2.9085 -0.3361
 1255SOL     OW 4342   8.839   8.534   2.365  0.3555 -0.2459  0.5916
 1255SOL    HW1 4343   8.880   8.451   2.390 -0.1080 -1.2646 -1.7878
 1255SOL    HW2 4344   8.765   8.544   2.425  1.5202 -0.5345  2.1455
 1256SOL     OW 4345   0.156   3.744   2.142 -0.0013 -0.0031  0.2115
 1256SOL    HW1 4346   0.193   3.772   2.225 -0.8052  0.0218  0.5771
 1256SOL    HW2 4347   0.223   3.765   2.077  0.0438  1.3681  0.6652
 1257SOL     OW 4348   8.386   7.319   6.127  0.5171 -0.6939 -0.2126
 1257SOL    HW1 4349   8.381   7.246   6.188 -1.9147 -0.9784 -0.6439
 1257SOL    HW2 4350   8.307   7.311   6.074  0.5313  1.8386 -0.7380
 1258SOL     OW 4351   3.095   9.911   4.443  0.0967  0.6913 -0.1023
 1258SOL    HW1 4352   3.178   9.899   4.397  0.3749  0.1636  0.5222
 1258SOL    HW2 4353   3.037   9.844   4.407 -0.5188  1.9430 -1.5416
 1259SOL     OW 4354   1.182   9.793   8.533 -0.2766 -0.1486  0.5842
 1259SOL    HW1 4355   1.234   9.836   8.602  2.1628 -1.8452 -0.0283
 1259SOL    HW2 4356   1.166   9.705   8.568  1.3506 -1.1699 -1.0818
 1260SOL     OW 4357   8.808   9.119   1.606  0.1160 -0.0170  0.7589
 1260SOL    HW1 4358   8.899   9.131   1.577  0.9272 -1.2125  2.5654
 1260SOL    HW2 4359   8.804   9.164   1.690 -1.0644  0.2975  0.5372
 1261SOL     OW 4360   8.366   1.335   4.521 -0.6479  0.2633 -0.4716
 1261SOL    HW1 4361   8.296   1.394   4.550  0.7074  1.0875  1.3312
 1261SOL    HW2 4362   8.444   1.391   4.519 -0.0974 -0.4921 -2.9683
 1262SOL     OW 4363   6.505   3.878   8.942  0.5010  0.1497  0.3572
 1262SOL    HW1 4364   6.466   3.957   8.979  1.3416 -0.3004  2.3353
 1262SOL    HW2 4365   6.561   3.844   9.013  0.1827 -2.1840 -0.4537
 1263SOL     OW 4366   6.293   2.409   6.764  0.4628 -0.2088 -0.0821
 1263SOL    HW1 4367   6.339   2.349   6.822  1.0611 -1.6071 -1.9018
 1263SOL    HW2 4368   6.362   2.455   6.715 -0.0207 -0.3288 -0.9018
 1264SOL     OW 4369   8.924   7.188   4.073 -0.4673 -0.0228  1.2276
 1264SOL    HW1 4370   9.005   7.192   4.123 -1.8997 -1.2420  3.8161
 1264SOL    HW2 4371   8.855   7.208   4.136 -2.3620 -1.1196 -0.3778
 1265SOL     OW 4372   4.909   0.831   5.016 -0.1096  0.6335  0.0949
 1265SOL    HW1 4373   4.825   0.843   4.973  0.2939  0.3171 -0.7988
 1265SOL    HW2 4374   4.889   0.780   5.095 -0.5224 -0.9713 -1.0051
 1266SOL     OW 4375   0.947   8.532   6.151 -0.1385  0.0433  0.1755
 1266SOL    HW1 4376   0.989   8.446   6.148 -0.8942 -0.3224 -0.3780
 1266SOL    HW2 4377   0.938   8.557   6.059 -0.2146  0.5705  0.3243
 1267SOL     OW 4378   7.770   6.230   3.728  0.3881 -0.0585  0.5739
 1267SOL    HW1 4379   7.778   6.217   3.634 -0.9462 -0.0674  0.4447
 1267SOL    HW2 4380   7.856   6.207   3.763  1.5819  1.9467 -0.8310
 1268SOL     OW 4381   7.271   8.170   5.486  0.0879 -0.2258 -0.6854
 1268SOL    HW1 4382   7.343   8.233   5.491 -0.3276  0.2601 -0.7512
 1268SOL    HW2 4383   7.204   8.207   5.543 -0.0102 -0.8125 -0.4132
 1269SOL     OW 4384   3.094   8.948   9.768 -0.1438  0.2607  0.6414
 1269SOL    HW1 4385   3.151   9.010   9.813 -0.8517 -0.4634  2.6507
 1269SOL    HW2 4386   3.109   8.965   9.675 -0.2299  3.3533  1.0819
 1270SOL     OW 4387   7.944   4.632   1.063 -0.3885  0.4218  0.4369
 1270SOL    HW1 4388   7.854   4.618   1.031  0.1911 -1.3726 -0.5912
 1270SOL    HW2 4389   7.984   4.690   0.999  0.3477 -2.0628 -1.5438
 1271SOL     OW 4390   2.454   6.928   6.328 -0.2341 -0.2566  0.2621
 1271SOL    HW1 4391   2.534   6.981   6.333 -1.7747  2.2056  0.6914
 1271SOL    HW2 4392   2.442   6.913   6.234 -0.2377  1.0238  0.0298
 1272SOL     OW 4393   4.581   4.009   6.923  0.4070 -0.8661  0.4406
 1272SOL    HW1 4394   4.660   4.001   6.977  0.0621  1.2692  1.3284
 1272SOL    HW2 4395   4.514   4.041   6.983 -0.3872  0.0925 -0.9082
 1273SOL     OW 4396   6.246   3.080   8.280  0.1933 -0.2239  0.0142
 1273SOL    HW1 4397   6.152   3.098   8.285 -0.0838 -1.6379  0.7629
 1273SOL    HW2 4398   6.277   3.091   8.370  0.4273 -1.1882  0.0661
 1274SOL     OW 4399   5.820   1.163   5.941 -0.2757  0.4018 -0.4659
 1274SOL    HW1 4400   5.873   1.186   6.018  0.6952  5.0609 -2.2024
 1274SOL    HW2 4401   5.885   1.142   5.874 -0.8448  1.2634 -1.3004
 1275SOL     OW 4402   8.547   3.702   7.768  0.2040  0.1399 -0.2448
 1275SOL    HW1 4403   8.550   3.615   7.728  1.9630 -0.2949  0.7237
 1275SOL    HW2 4404   8.515   3.759   7.698 -1.7777 -1.3717 -0.6658
 1276SOL     OW 4405   5.487   0.380   8.443  0.0344  0.1291 -0.4079
 1276SOL    HW1 4406   5.575   0.392   8.407  0.2746  1.6329  0.5913
 1276SOL    HW2 4407   5.497   0.395   8.537 -1.1606 -0.4660 -0.1649
 1277SOL     OW 4408   7.310   4.809   2.214 -0.4189 -0.1154  0.5598
 1277SOL    HW1 4409   7.229   4.819   2.163  0.3061 -2.8852 -1.3879
 1277SOL    HW2 4410   7.365   4.881   2.186 -0.6370 -0.6883 -1.5225
 1278SOL     OW 4411   4.372   5.095   8.771 -0.4253 -0.0433 -0.2242
 1278SOL    HW1 4412   4.329   5.057   8.694  0.1748  1.2703 -1.2429
 1278SOL    HW2 4413   4.332   5.182   8.780  0.8714  0.5809 -0.2432
 1279SOL     OW 4414   7.662   8.600   6.904 -0.4526  0.2176  0.2895
 1279SOL    HW1 4415   7.715   8.680   6.903  0.2090 -0.2095  0.1885
 1279SOL    HW2 4416   7.572   8.630   6.914  0.0248  0.8354  3.7428
 1280SOL     OW 4417   4.407   2.952   8.634 -0.1812 -0.3346  0.8473
 1280SOL    HW1 4418   4.317   2.941   8.603  0.5123 -0.6356 -1.2592
 1280SOL    HW2 4419   4.440   2.863   8.642  0.4542 -0.2146 -0.1914
 1281SOL     OW 4420   0.967   2.997   9.652 -0.3726 -0.0573  0.0739
 1281SOL    HW1 4421   0.883   2.970   9.617 -0.2305 -0.8416  0.2942
 1281SOL    HW2 4422   0.974   2.950   9.736 -0.9761  2.2157  1.4716
 1282SOL     OW 4423   5.194   7.252   7.420 -0.1594 -0.1464 -0.2461
 1282SOL    HW1 4424   5.101   7.259   7.441 -0.6878  0.5001 -2.5756
 1282SOL    HW2 4425   5.200   7.175   7.364  0.3787  0.8840 -1.6490
 1283SOL     OW 4426   9.112   4.298   9.863 -0.4653 -0.8190  0.1280
 1283SOL    HW1 4427   9.156   4.215   9.884 -1.1398 -0.6203  2.6046
 1283SOL    HW2 4428   9.064   4.321   9.943 -1.0897  1.4823 -0.8263
 1284SOL     OW 4429   6.259   5.163   5.663  0.3950 -0.5214 -0.0845
 1284SOL    HW1 4430   6.238   5.072   5.641  2.3510 -0.8705 -0.6990
 1284SOL    HW2 4431   6.321   5.156   5.736 -1.1361  0.4277  1.3644
 1285SOL     OW 4432   8.228   4.824   2.337 -0.4303  0.3756 -0.6177
 1285SOL    HW1 4433   8.248   4.731   2.334 -1.8707 -0.0240  0.7962
 1285SOL    HW2 4434   8.143   4.829   2.380 -0.0078  2.3920  0.1019
 1286SOL     OW 4435   7.678   3.123   0.295  0.0437  0.2048  0.7577
 1286SOL    HW1 4436   7.740   3.117   0.368 -0.2513  0.2351  1.0119
 1286SOL    HW2 4437   7.664   3.032   0.268  1.6227  0.2984 -0.5174
 1287SOL     OW 4438   0.290   2.004   6.865  0.2424 -0.0301 -0.2243
 1287SOL    HW1 4439   0.286   2.041   6.953  1.2183  0.9580 -0.5690
 1287SOL    HW2 4440   0.286   2.080   6.807  0.1700 -0.6284 -1.0107
 1288SOL     OW 4441   8.022   5.445   7.540  0.5590  0.2070 -0.3365
 1288SOL    HW1 4442   7.960   5.518   7.530  0.0424 -0.1028  0.4891
 1288SOL    HW2 4443   7.978   5.371   7.499  0.3589 -0.0197  0.2718
 1289SOL     OW 4444   0.292   3.128   6.576 -0.0951 -0.0197  0.0498
 1289SOL    HW1 4445   0.318   3.038   6.558 -0.0519  0.2986 -1.6062
 1289SOL    HW2 4446   0.269   3.128   6.669  1.4562 -1.3513  0.4796
 1290SOL     OW 4447   8.762   8.914   2.867 -0.8219 -0.1551  0.2069
 1290SOL    HW1 4448   8.740   8.821   2.877 -2.1381 -0.0010 -0.9065
 1290SOL    HW2 4449   8.855   8.915   2.846 -1.0473 -1.3370 -0.9925
 1291SOL     OW 4450   4.440   6.175   4.231 -0.1173 -0.0646 -0.4202
 1291SOL    HW1 4451   4.389   6.252   4.205 -0.6948  0.7092  2.6563
 1291SOL    HW2 4452   4.487   6.150   4.151 -1.3076  2.3563 -2.0029
 1292SOL     OW 4453   9.366   1.570   5.250  0.0915  0.6245  0.2473
 1292SOL    HW1 4454   9.452   1.597   5.218  1.9160 -3.3952  1.1301
 1292SOL    HW2 4455   9.329   1.517   5.180 -1.0985  1.2073  0.4103
 1293SOL     OW 4456   5.335   3.956   2.806 -0.4038  0.0919  0.1931
 1293SOL    HW1 4457   5.311   3.964   2.898  0.4048  0.3912  0.3925
 1293SOL    HW2 4458   5.287   3.880   2.774  1.0951 -1.4758  1.4765
 1294SOL     OW 4459   4.863   1.118   1.077  0.4065 -0.3204 -0.5159
 1294SOL    HW1 4460   4.905   1.204   1.076 -1.0214  0.4150 -0.0216
 1294SOL    HW2 4461   4.913   1.068   1.141 -1.4049  1.6192  2.7098
 1295SOL     OW 4462   1.647   1.910   7.619  0.5740  0.3208  0.2613
 1295SOL    HW1 4463   1.555   1.904   7.644  0.7760  0.0516  0.9639
 1295SOL    HW2 4464   1.659   1.841   7.554  0.7116 -0.9120  1.5468
 1296SOL     OW 4465   7.644   6.109   9.972  0.2140  0.5041  0.3249
 1296SOL    HW1 4466   7.650   6.201   9.948 -0.3769  0.0696 -1.6596
 1296SOL    HW2 4467   7.551   6.095   9.989  0.4084  0.4284  1.3881
 1297SOL     OW 4468   0.292   4.579   7.464 -0.4740  0.5648 -0.3591
 1297SOL    HW1 4469   0.262   4.543   7.547 -1.7390  1.4728 -0.3779
 1297SOL    HW2 4470   0.341   4.508   7.422 -0.6032 -0.2009  0.7587
 1298SOL     OW 4471   1.711   7.858   7.176 -0.2886  0.1327 -0.0603
 1298SOL    HW1 4472   1.704   7.951   7.154 -0.9439  0.2926  0.7896
 1298SOL    HW2 4473   1.709   7.814   7.092  2.0275  0.9834 -0.6322
 1299SOL     OW 4474   6.976   9.904   1.775 -0.5759  0.0680 -0.9021
 1299SOL    HW1 4475   6.999   9.813   1.761 -0.3327 -0.2679  1.3989
 1299SOL    HW2 4476   6.880   9.905   1.779 -0.5313 -0.5992  1.8088
 1300SOL     OW 4477   7.078   3.504   2.359 -0.5443 -0.3881 -0.2364
 1300SOL    HW1 4478   7.127   3.585   2.379 -0.2606 -0.9076  1.3574
 1300SOL    HW2 4479   6.987   3.532   2.352 -0.5107  0.0169  0.7843
 1301SOL     OW 4480   1.076   0.258   2.201 -0.1066 -0.0064 -0.0112
 1301SOL    HW1 4481   1.079   0.353   2.210 -0.5293 -0.1165  1.5636
 1301SOL    HW2 4482   1.112   0.241   2.114  0.0919  1.5772 -0.2658
 1302SOL     OW 4483   6.135   6.032   0.741 -0.3694 -0.3460  0.4599
 1302SOL    HW1 4484   6.115   6.082   0.820 -0.4391 -0.6619  0.6432
 1302SOL    HW2 4485   6.222   5.995   0.758 -1.6108 -2.9311  1.6894
 1303SOL     OW 4486   0.980   3.043   6.716  0.4174 -0.3653  0.0295
 1303SOL    HW1 4487   0.967   2.951   6.693  0.6910 -0.3006 -0.4051
 1303SOL    HW2 4488   0.946   3.051   6.805  0.3734 -0.8812  0.0622
 1304SOL     OW 4489   4.679   9.780   7.809  0.1057  0.0511 -0.5188
 1304SOL    HW1 4490   4.638   9.788   7.895  0.6732  1.1300 -0.3353
 1304SOL    HW2 4491   4.773   9.778   7.828  0.2668  0.9998 -1.1405
 1305SOL     OW 4492   2.961   0.787   9.027 -0.2716  0.4913 -0.6379
 1305SOL    HW1 4493   3.044   0.751   8.996 -0.0943  1.0506 -0.8143
 1305SOL    HW2 4494   2.913   0.710   9.059  1.2500  0.4287  1.7038
 1306SOL     OW 4495   3.212   5.222   9.168 -0.2233 -0.4009  0.3305
 1306SOL    HW1 4496   3.305   5.214   9.189 -0.0148 -1.1882 -0.7552
 1306SOL    HW2 4497   3.169   5.157   9.224 -0.2580  0.5889  1.4926
 1307SOL     OW 4498   0.151   2.523   6.741  0.4962  0.6769  0.4620
 1307SOL    HW1 4499   0.068   2.525   6.789 -0.0904  1.7055 -0.5475
 1307SOL    HW2 4500   0.126   2.543   6.651  1.8856  1.2584  0.1980
 1308SOL     OW 4501   9.844   9.037   5.285  0.1021  0.4912  0.4138
 1308SOL    HW1 4502   9.765   8.985   5.297 -1.7704  3.0643 -0.0503
 1308SOL    HW2 4503   9.914   8.972   5.273 -1.4902 -1.9182  2.9986
 1309SOL     OW 4504   6.707   0.062   6.517  0.4134  0.1330  0.1021
 1309SOL    HW1 4505   6.697   0.156   6.502  1.5925  0.1749 -0.5772
 1309SOL    HW2 4506   6.706   0.023   6.430  2.8323 -0.1201  0.0988
 1310SOL     OW 4507   2.187   3.890   3.093 -0.5575  0.1159  0.3879
 1310SOL    HW1 4508   2.109   3.844   3.125 -2.3948  2.0129 -1.0440
 1310SOL    HW2 4509   2.206   3.850   3.008 -1.3172  1.0291 -0.2317
 1311SOL     OW 4510   6.444   3.945   2.637  0.0597 -0.2278 -0.5056
 1311SOL    HW1 4511   6.460   3.992   2.718  0.1198 -0.1290 -0.5743
 1311SOL    HW2 4512   6.392   4.005   2.583  0.1305 -0.2415 -0.5900
 1312SOL     OW 4513   6.008   8.059   2.920  0.0949 -0.0649  0.2757
 1312SOL    HW1 4514   5.964   8.125   2.974  1.1541  0.8794  0.0142
 1312SOL    HW2 4515   5.937   8.020   2.868 -0.6620  0.3080  1.0061
 1313SOL     OW 4516   2.164   0.765   8.867 -0.9504 -0.0566 -0.0228
 1313SOL    HW1 4517   2.195   0.855   8.864 -2.6012  0.5235 -0.7013
 1313SOL    HW2 4518   2.243   0.713   8.882  0.8021  1.0856 -3.9929
 1314SOL     OW 4519   7.180   5.550   4.432  0.0506  0.3706  0.2156
 1314SOL    HW1 4520   7.165   5.525   4.340 -0.4719 -1.0022  0.6523
 1314SOL    HW2 4521   7.220   5.637   4.427 -0.1215  0.3864 -1.3087
 1315SOL     OW 4522   2.859   2.858   1.241  0.4681 -0.0849 -0.3378
 1315SOL    HW1 4523   2.937   2.914   1.240  0.1013  0.4916  0.8570
 1315SOL    HW2 4524   2.884   2.785   1.299 -0.2275  0.6935  1.0056
 1316SOL     OW 4525   8.651   7.070   6.979 -0.1897 -0.2319  0.0451
 1316SOL    HW1 4526   8.576   7.122   6.951  0.1937  0.8503  0.9853
 1316SOL    HW2 4527   8.726   7.112   6.939 -0.0718 -1.5017 -1.1582
 1317SOL     OW 4528   1.643   8.376   9.479 -0.2801 -0.6540 -0.5012
 1317SOL    HW1 4529   1.567   8.394   9.425 -0.1175  1.1844 -0.1672
 1317SOL    HW2 4530   1.713   8.357   9.416 -0.4702 -0.0865 -0.8941
 1318SOL     OW 4531   7.536   6.498   3.143  0.0013 -0.4192 -0.4779
 1318SOL    HW1 4532   7.631   6.487   3.139 -0.0057 -0.1447 -1.9705
 1318SOL    HW2 4533   7.516   6.559   3.072 -1.2113  0.1728  0.3346
 1319SOL     OW 4534   9.063   6.505   5.800 -0.2636  0.2474 -0.1376
 1319SOL    HW1 4535   9.017   6.566   5.743  1.4527  2.2319  0.4471
 1319SOL    HW2 4536   9.015   6.508   5.883 -0.9827 -0.2739 -0.5283
 1320SOL     OW 4537   0.527   5.542   1.160 -0.4251  0.0592  0.1710
 1320SOL    HW1 4538   0.567   5.616   1.207 -2.2077  0.2497  1.4696
 1320SOL    HW2 4539   0.501   5.579   1.075  0.1611  0.4928  0.1705
 1321SOL     OW 4540   6.465   1.206   6.402 -0.0098 -0.6375  0.5513
 1321SOL    HW1 4541   6.402   1.257   6.451 -0.1494 -0.0917 -0.1829
 1321SOL    HW2 4542   6.524   1.169   6.469 -1.6797 -2.0020  1.3419
 1322SOL     OW 4543   8.046   6.063   0.770  0.4168  0.1876 -0.7785
 1322SOL    HW1 4544   8.060   6.150   0.807  0.7632 -0.0119 -0.4363
 1322SOL    HW2 4545   8.125   6.045   0.718  0.9759 -0.4868  0.2686
 1323SOL     OW 4546   5.447   1.026   6.196 -0.2465  0.2690  0.2409
 1323SOL    HW1 4547   5.385   0.979   6.252 -0.2023 -0.2684 -0.1552
 1323SOL    HW2 4548   5.512   1.061   6.257 -0.6585  0.4023  0.6071
 1324SOL     OW 4549   5.024   3.918   6.584 -0.6252 -0.1507  0.1797
 1324SOL    HW1 4550   5.014   3.846   6.646  0.6576  1.1189  1.9681
 1324SOL    HW2 4551   4.970   3.988   6.619 -1.3978 -0.0121 -1.2169
 1325SOL     OW 4552   4.798   0.765   2.198  0.3147  0.3086  1.1048
 1325SOL    HW1 4553   4.850   0.845   2.192 -0.1318  0.5622  0.5600
 1325SOL    HW2 4554   4.802   0.726   2.111 -1.2723  0.8924  0.7372
 1326SOL     OW 4555   2.686   3.489   6.672  0.8276  0.6589 -0.4250
 1326SOL    HW1 4556   2.670   3.405   6.630  1.1533  0.2516  0.2542
 1326SOL    HW2 4557   2.708   3.467   6.763 -0.0040  1.5293  0.0034
 1327SOL     OW 4558   8.828   3.181   5.406  0.6994  0.0888  0.4488
 1327SOL    HW1 4559   8.915   3.208   5.436  0.6236  0.2498  0.5213
 1327SOL    HW2 4560   8.794   3.126   5.477  0.9904 -0.4835  0.1591
 1328SOL     OW 4561   8.438   9.199   8.015 -0.1720  0.2340 -0.0875
 1328SOL    HW1 4562   8.476   9.124   7.970  0.0636  1.1098 -1.4351
 1328SOL    HW2 4563   8.465   9.275   7.962  1.5243  1.5405  2.4897
 1329SOL     OW 4564   8.521   5.259   1.746 -0.2765  1.0787 -0.8504
 1329SOL    HW1 4565   8.492   5.341   1.787  1.3988  1.0134  0.6026
 1329SOL    HW2 4566   8.565   5.287   1.666 -0.2346  1.5613 -0.6673
 1330SOL     OW 4567   6.776   7.246   0.615 -0.3691  0.5930 -0.2270
 1330SOL    HW1 4568   6.764   7.233   0.521 -3.0057 -0.7992  0.1916
 1330SOL    HW2 4569   6.803   7.161   0.648 -1.1140  0.6012  0.4478
 1331SOL     OW 4570   5.826   6.099   4.278 -0.5505  0.1268  0.7557
 1331SOL    HW1 4571   5.904   6.090   4.332  0.6079 -1.0445 -1.0123
 1331SOL    HW2 4572   5.760   6.046   4.322 -0.4913  1.3418  2.4145
 1332SOL     OW 4573   5.613   1.182   1.603 -0.2984 -0.0397 -0.5795
 1332SOL    HW1 4574   5.577   1.199   1.516  0.4388 -1.2181 -1.1359
 1332SOL    HW2 4575   5.569   1.102   1.632 -0.2223  0.1099 -0.0418
 1333SOL     OW 4576   5.517   2.182   3.102  0.1955  0.2063 -0.0134
 1333SOL    HW1 4577   5.555   2.150   3.184 -1.4527 -1.5354  0.1494
 1333SOL    HW2 4578   5.526   2.108   3.042  1.3833  1.4569 -1.4621
 1334SOL     OW 4579   2.709   9.827   7.085  0.0637  0.2706  0.4179
 1334SOL    HW1 4580   2.732   9.764   7.017 -0.6698  1.3076 -0.8565
 1334SOL    HW2 4581   2.773   9.898   7.074 -0.2439  0.5805  0.6248
 1335SOL     OW 4582   5.665   5.507   0.248 -0.3624  0.2432  0.0961
 1335SOL    HW1 4583   5.721   5.473   0.178  0.8590 -2.5232  2.2514
 1335SOL    HW2 4584   5.576   5.483   0.221 -0.0046 -0.0411 -0.8781
 1336SOL     OW 4585   4.297   9.820   2.016 -0.2119  0.0269  0.0551
 1336SOL    HW1 4586   4.225   9.772   1.975  0.2667  1.0894 -2.1535
 1336SOL    HW2 4587   4.253   9.884   2.073 -1.0598  0.7785 -1.3827
 1337SOL     OW 4588   1.353   8.176   9.744 -0.7879  0.5860  0.1016
 1337SOL    HW1 4589   1.302   8.192   9.665 -0.1645 -0.8011 -0.6314
 1337SOL    HW2 4590   1.373   8.082   9.740 -0.1260  0.6469  1.5320
 1338SOL     OW 4591   6.301   0.076   9.078 -0.0392  0.6655  0.2141
 1338SOL    HW1 4592   6.244   0.090   9.154  0.1896 -1.0667  0.7429
 1338SOL    HW2 4593   6.240   0.064   9.005 -0.3022  0.7018  0.4229
 1339SOL     OW 4594   5.412   0.631   3.365  0.3858  0.3436 -0.4488
 1339SOL    HW1 4595   5.401   0.551   3.313 -0.2832  0.1710 -0.0604
 1339SOL    HW2 4596   5.456   0.692   3.307 -0.2342  0.1123 -1.1741
 1340SOL     OW 4597   8.571   3.228   4.260  0.5046 -0.5732  0.2955
 1340SOL    HW1 4598   8.643   3.260   4.206  0.3256 -0.2131  0.2673
 1340SOL    HW2 4599   8.522   3.307   4.284  0.4887 -0.7443  0.8503
 1341SOL     OW 4600   6.330   7.608   0.851 -0.0894 -0.3929 -0.1018
 1341SOL    HW1 4601   6.358   7.572   0.767  0.6469  1.5883 -0.7760
 1341SOL    HW2 4602   6.373   7.694   0.856 -4.2880  2.0127 -0.2223
 1342SOL     OW 4603   1.683   0.961   1.336 -0.3275 -0.5537  0.6398
 1342SOL    HW1 4604   1.643   1.047   1.349 -1.2119 -0.7839 -0.4699
 1342SOL    HW2 4605   1.755   0.959   1.399  0.4684  1.4788 -0.0995
 1343SOL     OW 4606   7.793   5.010   9.640 -0.4004  0.2330 -0.6840
 1343SOL    HW1 4607   7.793   4.989   9.733  0.1876 -2.1074 -1.1266
 1343SOL    HW2 4608   7.720   5.071   9.629 -0.2146  0.8922  1.3463
 1344SOL     OW 4609   9.906   8.327   5.921 -0.1556  0.0830 -0.0849
 1344SOL    HW1 4610   9.845   8.256   5.901 -0.1663  0.7423 -2.8478
 1344SOL    HW2 4611   9.979   8.283   5.964 -1.2540 -1.1834  0.5824
 1345SOL     OW 4612   9.670   6.745   0.996  0.5534 -0.1762 -0.1573
 1345SOL    HW1 4613   9.640   6.689   0.924 -0.2782 -0.1165  0.1333
 1345SOL    HW2 4614   9.625   6.828   0.980  2.0130  0.5354 -0.7670
 1346SOL     OW 4615   2.309   1.682   7.848 -0.7462  0.0624  0.0402
 1346SOL    HW1 4616   2.309   1.776   7.832 -0.3034 -0.1732 -1.5133
 1346SOL    HW2 4617   2.397   1.662   7.880 -0.3443 -0.0248 -1.0805
 1347SOL     OW 4618   4.967   2.375   1.828 -0.4939  0.2489 -0.2941
 1347SOL    HW1 4619   4.901   2.310   1.852 -1.2524  1.4373  1.0220
 1347SOL    HW2 4620   4.941   2.406   1.742 -0.3391 -0.9111 -0.7635
 1348SOL     OW 4621   4.652   4.983   0.136 -0.1396 -0.1179  0.6418
 1348SOL    HW1 4622   4.624   5.063   0.180  0.7129  0.3042  0.4491
 1348SOL    HW2 4623   4.728   5.010   0.085 -0.5115 -0.8144 -0.3042
 1349SOL     OW 4624   5.836   5.696   5.950 -0.2918  0.5176  0.0790
 1349SOL    HW1 4625   5.780   5.705   5.873 -0.1193  0.4359 -0.0582
 1349SOL    HW2 4626   5.806   5.616   5.993 -0.1621  0.3741 -0.0948
 1350SOL     OW 4627   2.017   7.536   1.901  0.2617 -0.3418 -0.2073
 1350SOL    HW1 4628   2.059   7.451   1.884  2.4614  0.9066 -1.5301
 1350SOL    HW2 4629   2.024   7.583   1.818 -1.1387  1.0746  0.4272
 1351SOL     OW 4630   3.563   3.028   8.670 -0.2779 -0.1550  0.1459
 1351SOL    HW1 4631   3.547   2.938   8.640  0.4011 -0.0396 -0.5890
 1351SOL    HW2 4632   3.633   3.020   8.735  0.7253 -0.0249 -0.8934
 1352SOL     OW 4633   6.073   4.477   0.320  0.0169  0.0373 -0.2295
 1352SOL    HW1 4634   6.059   4.418   0.246 -2.2002  1.3382 -0.9145
 1352SOL    HW2 4635   6.150   4.529   0.295  0.7935 -1.1770 -0.4707
 1353SOL     OW 4636   8.978   4.559   1.173 -0.0583 -0.5163  0.0848
 1353SOL    HW1 4637   8.951   4.628   1.113  0.8344  0.5012  0.8126
 1353SOL    HW2 4638   8.897   4.513   1.195 -0.5880 -0.0553 -0.8374
 1354SOL     OW 4639   4.673   3.269   6.280  0.3013  0.0534 -0.3013
 1354SOL    HW1 4640   4.652   3.360   6.257  0.9692  0.8289  1.9287
 1354SOL    HW2 4641   4.602   3.218   6.242 -0.7030  1.6316 -0.6262
 1355SOL     OW 4642   0.971   4.125   1.102 -0.1290 -0.0391  0.0828
 1355SOL    HW1 4643   0.892   4.092   1.146 -0.8763  0.5143 -0.8034
 1355SOL    HW2 4644   1.042   4.070   1.135 -0.9629 -0.8752  0.5213
 1356SOL     OW 4645   0.758   7.606   7.356  0.4418 -0.5850  0.3621
 1356SOL    HW1 4646   0.850   7.580   7.366 -0.2207 -4.2591 -1.3540
 1356SOL    HW2 4647   0.757   7.663   7.279  1.0546 -3.5243 -2.0466
 1357SOL     OW 4648   1.281   5.739   7.364 -0.6681 -0.2838 -0.0530
 1357SOL    HW1 4649   1.345   5.668   7.370 -0.3215 -0.2525 -2.3048
 1357SOL    HW2 4650   1.197   5.699   7.386 -0.4403 -1.3627 -1.0581
 1358SOL     OW 4651   0.960   7.170   7.044 -0.3833  0.2232 -0.1103
 1358SOL    HW1 4652   0.991   7.235   7.107  0.2741  1.3503 -1.5249
 1358SOL    HW2 4653   0.972   7.086   7.088  0.4391  0.9450  1.1033
 1359SOL     OW 4654   5.538   0.632   5.785 -0.0645  0.2030  0.4555
 1359SOL    HW1 4655   5.583   0.549   5.773 -1.1697 -0.1066 -2.1461
 1359SOL    HW2 4656   5.468   0.613   5.847  0.2506 -0.5728  0.5836
 1360SOL     OW 4657   5.377   0.728   7.473  0.7295  0.2978  0.2400
 1360SOL    HW1 4658   5.469   0.756   7.482  1.5337 -0.4711 -3.7133
 1360SOL    HW2 4659   5.382   0.633   7.462 -0.8079 -0.0079  1.7128
 1361SOL     OW 4660   8.025   6.093   0.393  0.2735  0.3135  0.2678
 1361SOL    HW1 4661   7.943   6.088   0.344 -0.9493  0.3123  2.1839
 1361SOL    HW2 4662   8.041   6.187   0.402  0.5863  0.3132 -0.2346
 1362SOL     OW 4663   1.984   2.338   5.813 -0.1446 -0.3103 -0.5008
 1362SOL    HW1 4664   1.892   2.317   5.833  0.3884 -1.4155  0.9845
 1362SOL    HW2 4665   2.016   2.260   5.768  0.1137 -0.0079 -0.8343
 1363SOL     OW 4666   1.672   1.905   8.752  0.1675  0.0329 -0.4555
 1363SOL    HW1 4667   1.626   1.987   8.734 -0.6965 -0.3711 -0.1361
 1363SOL    HW2 4668   1.747   1.905   8.692  1.6880  2.2693  1.2809
 1364SOL     OW 4669   1.288   2.435   4.088 -0.5114 -0.0651  0.6114
 1364SOL    HW1 4670   1.244   2.496   4.029  1.4279  1.1698  0.3533
 1364SOL    HW2 4671   1.340   2.491   4.146  0.2686 -1.4320  1.2681
 1365SOL     OW 4672   8.258   4.235   1.437  0.0488 -0.7574  0.1815
 1365SOL    HW1 4673   8.200   4.306   1.408  2.0288 -0.3438 -3.2859
 1365SOL    HW2 4674   8.207   4.156   1.424 -0.3790 -0.2870 -1.2130
 1366SOL     OW 4675   5.730   9.404   4.742  0.2592  0.0508 -0.4816
 1366SOL    HW1 4676   5.783   9.439   4.671 -0.1313 -0.9895 -1.3027
 1366SOL    HW2 4677   5.737   9.470   4.811 -0.9437  2.0973 -2.1762
 1367SOL     OW 4678   0.126   4.494   5.888 -0.4220 -0.2808 -0.0762
 1367SOL    HW1 4679   0.218   4.515   5.908 -0.3126 -1.4865  0.8781
 1367SOL    HW2 4680   0.083   4.579   5.881  0.9090  0.3492 -1.3696
 1368SOL     OW 4681   6.101   9.506   5.872 -1.0311  0.3096  0.1491
 1368SOL    HW1 4682   6.085   9.600   5.864  1.0526  0.6983  0.0129
 1368SOL    HW2 4683   6.195   9.496   5.856 -0.9982 -1.6721  1.2746
 1369SOL     OW 4684   9.671   9.581   2.669 -0.1645 -0.2729  0.4004
 1369SOL    HW1 4685   9.708   9.493   2.664 -0.6538 -0.4373 -0.5185
 1369SOL    HW2 4686   9.742   9.639   2.642 -0.1736 -0.4726 -0.0490
 1370SOL     OW 4687   3.333   7.635   5.950  0.4073  0.2546  0.0838
 1370SOL    HW1 4688   3.392   7.603   5.881  1.0527 -1.7242  1.4663
 1370SOL    HW2 4689   3.274   7.561   5.967  1.6947 -0.2009  3.1566
 1371SOL     OW 4690   2.876   6.817   6.745 -0.4042 -0.5011  0.3162
 1371SOL    HW1 4691   2.875   6.764   6.824 -0.9060  0.1473  0.7560
 1371SOL    HW2 4692   2.960   6.797   6.704  0.4349  0.0885  1.6646
 1372SOL     OW 4693   6.948   7.209   7.585 -0.3548 -0.3068 -0.5626
 1372SOL    HW1 4694   6.960   7.245   7.497  2.5513  1.4117  0.3927
 1372SOL    HW2 4695   6.994   7.125   7.584  1.8638  0.8208 -0.1409
 1373SOL     OW 4696   1.810   2.375   3.778  0.7096  0.3889 -0.2022
 1373SOL    HW1 4697   1.814   2.370   3.683 -0.5802  1.1726 -0.3300
 1373SOL    HW2 4698   1.759   2.299   3.804  0.4495  0.5600 -0.2059
 1374SOL     OW 4699   2.241   7.813   1.023 -0.1484 -0.5201 -0.3194
 1374SOL    HW1 4700   2.315   7.814   0.961  2.0492  0.3216  2.1225
 1374SOL    HW2 4701   2.276   7.772   1.102 -2.6862 -1.1428  0.5817
 1375SOL     OW 4702   0.633   1.335   2.822 -0.4049  0.2891  0.1721
 1375SOL    HW1 4703   0.551   1.306   2.783  0.6183 -3.3320  0.2603
 1375SOL    HW2 4704   0.684   1.369   2.749 -0.7272 -0.8029 -0.5874
 1376SOL     OW 4705   3.384   4.621   4.056 -0.6856 -0.0089  0.7627
 1376SOL    HW1 4706   3.474   4.654   4.061 -0.4221 -0.7211  0.8484
 1376SOL    HW2 4707   3.394   4.526   4.058 -1.5244 -0.0934  2.2714
 1377SOL     OW 4708   8.624   5.888   5.068 -0.0641  0.1871  0.5722
 1377SOL    HW1 4709   8.711   5.850   5.059 -0.9851 -2.0051  0.2868
 1377SOL    HW2 4710   8.564   5.819   5.039 -1.8308  2.4175 -1.4370
 1378SOL     OW 4711   2.427   3.556   3.011 -0.0097  0.0934 -0.1870
 1378SOL    HW1 4712   2.499   3.615   3.034  0.1417  0.4260 -1.3966
 1378SOL    HW2 4713   2.470   3.486   2.962 -0.5812  0.8133 -1.8142
 1379SOL     OW 4714   3.773   8.215   8.533 -0.7274 -0.1957  0.2337
 1379SOL    HW1 4715   3.828   8.151   8.489 -0.6319 -0.4925  0.7726
 1379SOL    HW2 4716   3.834   8.282   8.564 -0.4197 -1.2886  2.1853
 1380SOL     OW 4717   6.379   5.318   5.181 -0.9912 -0.2230 -0.5498
 1380SOL    HW1 4718   6.458   5.277   5.216 -1.0552  1.0972  1.2964
 1380SOL    HW2 4719   6.403   5.344   5.091 -0.0950 -1.8039 -0.8028
 1381SOL     OW 4720   4.753   2.534   8.532 -0.3360 -0.2085  0.6837
 1381SOL    HW1 4721   4.767   2.462   8.593  0.8628  0.8260  1.6790
 1381SOL    HW2 4722   4.802   2.510   8.454 -1.5411 -1.3502  0.2481
 1382SOL     OW 4723   1.985   6.407   5.110 -0.2541  0.6948  0.0552
 1382SOL    HW1 4724   1.981   6.316   5.139 -0.2672  0.4687 -0.6339
 1382SOL    HW2 4725   1.921   6.453   5.165 -0.9058  0.1178 -0.2090
 1383SOL     OW 4726   3.132   6.034   3.684 -0.0430 -0.3055 -0.6335
 1383SOL    HW1 4727   3.218   6.039   3.642  0.3608 -0.2349  0.1585
 1383SOL    HW2 4728   3.113   6.125   3.709 -0.1634 -0.3760 -0.4695
 1384SOL     OW 4729   4.725   0.307   8.194  0.0190 -0.5878 -0.3481
 1384SOL    HW1 4730   4.632   0.286   8.199 -0.4926  1.6347  0.4412
 1384SOL    HW2 4731   4.728   0.403   8.188  2.1412 -0.6978 -3.6759
 1385SOL     OW 4732   1.530   1.955   9.813  0.1333 -0.6138 -0.3562
 1385SOL    HW1 4733   1.508   1.863   9.794 -1.5360 -0.7243  1.7008
 1385SOL    HW2 4734   1.609   1.950   9.867  0.4589 -0.7821 -0.8413
 1386SOL     OW 4735   3.439   8.727   2.010 -0.4239  0.2493  0.5039
 1386SOL    HW1 4736   3.442   8.703   2.102 -0.2931 -2.0283 -0.0217
 1386SOL    HW2 4737   3.439   8.822   2.009  1.2179  0.3375  2.7957
 1387SOL     OW 4738   1.428   6.672   8.294  0.0460  0.2134  0.4360
 1387SOL    HW1 4739   1.369   6.629   8.233  1.0004  0.7143 -0.9089
 1387SOL    HW2 4740   1.381   6.750   8.323 -1.3846 -1.2418  2.3000
 1388SOL     OW 4741   8.310   3.341   2.094 -0.0089  0.2069  0.0094
 1388SOL    HW1 4742   8.341   3.344   2.184  1.4990 -2.2010 -0.3395
 1388SOL    HW2 4743   8.379   3.384   2.043  0.1424 -0.2613 -0.1895
 1389SOL     OW 4744   6.808   5.822   9.382  0.3990 -0.9092 -0.6102
 1389SOL    HW1 4745   6.713   5.820   9.379  0.3361  0.5423 -0.2476
 1389SOL    HW2 4746   6.833   5.734   9.412 -0.8953 -0.8931  0.6230
 1390SOL     OW 4747   0.825   3.465   8.918 -0.1377 -0.0737  0.1201
 1390SOL    HW1 4748   0.845   3.557   8.905 -0.9713  0.1391  0.2938
 1390SOL    HW2 4749   0.896   3.433   8.974 -1.7582  1.3878  3.2734
 1391SOL     OW 4750   1.984   8.820   7.101  0.0469  0.4401 -0.0183
 1391SOL    HW1 4751   2.021   8.904   7.074 -1.3013  0.8779 -0.6260
 1391SOL    HW2 4752   1.957   8.835   7.192  0.3166  0.4866  0.0546
 1392SOL     OW 4753   5.403   5.677   5.948  0.2450 -0.3697  0.2371
 1392SOL    HW1 4754   5.381   5.614   5.880 -0.0569  0.0897 -0.0961
 1392SOL    HW2 4755   5.319   5.699   5.988  0.5336 -1.4800  1.5183
 1393SOL     OW 4756   4.585   7.668   7.917 -0.1365 -0.0694  0.6227
 1393SOL    HW1 4757   4.597   7.601   7.984  0.5743 -1.7605 -1.1063
 1393SOL    HW2 4758   4.644   7.739   7.943  1.4268 -1.4099  0.9342
 1394SOL     OW 4759   3.597   0.073   0.792 -0.3328  0.7970  0.1258
 1394SOL    HW1 4760   3.677   0.079   0.740 -0.7416 -0.2233 -0.6418
 1394SOL    HW2 4761   3.534   0.129   0.747 -0.6242  0.0772 -0.3732
 1395SOL     OW 4762   8.656   0.349   3.823 -0.3172 -0.6064  0.6428
 1395SOL    HW1 4763   8.563   0.367   3.810 -0.1544 -0.4930 -0.4156
 1395SOL    HW2 4764   8.695   0.359   3.737  0.2292 -3.4617  0.4516
 1396SOL     OW 4765   3.891   8.435   6.413 -0.1697  0.7534  0.0323
 1396SOL    HW1 4766   3.976   8.413   6.374 -0.4523 -1.5776  0.5820
 1396SOL    HW2 4767   3.831   8.440   6.338 -0.0267 -0.1530 -0.1524
 1397SOL     OW 4768   6.343   5.872   1.748  0.1776  0.5015  0.1773
 1397SOL    HW1 4769   6.278   5.886   1.816 -0.6637 -1.1287 -0.2338
 1397SOL    HW2 4770   6.306   5.913   1.670  0.3216  0.8296  0.2799
 1398SOL     OW 4771   3.026   8.367   0.558 -0.0640  0.1835  1.3412
 1398SOL    HW1 4772   3.044   8.287   0.607 -2.4535 -0.6959  0.9288
 1398SOL    HW2 4773   2.984   8.426   0.621  0.5456  0.6468  1.3284
 1399SOL     OW 4774   4.866   2.743   3.536  0.0046  0.4775 -0.0600
 1399SOL    HW1 4775   4.806   2.801   3.583 -0.3071  1.2383 -1.3157
 1399SOL    HW2 4776   4.870   2.664   3.589  0.2895  1.5702  1.6179
 1400SOL     OW 4777   2.764   4.043   1.101 -0.0239 -0.5604 -0.2098
 1400SOL    HW1 4778   2.742   3.980   1.170 -0.7181 -1.5168 -1.2832
 1400SOL    HW2 4779   2.853   4.019   1.075  0.7193  0.5620  1.1346
 1401SOL     OW 4780   0.816   8.617   7.999 -0.5371  0.4408 -0.0397
 1401SOL    HW1 4781   0.779   8.700   8.032 -1.6815 -0.0416 -0.0677
 1401SOL    HW2 4782   0.868   8.584   8.072 -1.8301  0.1342  0.7909
 1402SOL     OW 4783   9.982   7.374   0.651 -0.1470  0.1657 -0.3150
 1402SOL    HW1 4784  10.016   7.290   0.682 -3.0115 -0.6985  0.7380
 1402SOL    HW2 4785   9.925   7.351   0.577 -0.5982  1.2401 -0.3154
 1403SOL     OW 4786   9.037   9.897   3.745  0.9786 -0.2221 -0.6456
 1403SOL    HW1 4787   9.013   9.953   3.671 -1.1452 -1.4508 -0.9843
 1403SOL    HW2 4788   9.023   9.808   3.712  0.8749 -0.8173  0.9357
 1404SOL     OW 4789   6.211   7.313   1.766  0.0395 -0.7781 -0.2747
 1404SOL    HW1 4790   6.185   7.306   1.674  0.9854 -1.8900 -0.4772
 1404SOL    HW2 4791   6.259   7.396   1.770 -1.6309  0.2493 -0.3333
 1405SOL     OW 4792   8.035   5.649   4.305 -0.1032 -0.1843 -0.1189
 1405SOL    HW1 4793   8.090   5.696   4.242  0.7075 -0.3850  0.4208
 1405SOL    HW2 4794   8.083   5.567   4.322 -0.9087 -0.6760 -0.1489
 1406SOL     OW 4795   2.196   2.428   5.554 -0.5563  0.2182  0.3646
 1406SOL    HW1 4796   2.186   2.499   5.618 -0.8555  0.4235  0.0933
 1406SOL    HW2 4797   2.231   2.355   5.605 -0.3237  0.5329  0.6655
 1407SOL     OW 4798   2.878   2.093   5.399  0.1855  0.1918  0.5924
 1407SOL    HW1 4799   2.865   2.042   5.319 -0.3666 -0.3597  1.0245
 1407SOL    HW2 4800   2.874   2.029   5.469 -1.1281  0.8895  1.2016
 1408SOL     OW 4801   8.650   2.532   5.756 -0.1225 -0.0545  0.2097
 1408SOL    HW1 4802   8.729   2.585   5.758 -1.0946  1.6489 -2.1709
 1408SOL    HW2 4803   8.587   2.579   5.811 -0.1278 -0.2567  0.3774
 1409SOL     OW 4804   8.015   7.237   3.846 -0.0701 -0.6815 -0.0189
 1409SOL    HW1 4805   7.966   7.300   3.794  0.1890 -0.1817  0.3370
 1409SOL    HW2 4806   8.106   7.266   3.839  0.5638 -2.8529 -2.5317
 1410SOL     OW 4807   5.845   9.900   6.223 -0.1012  0.7003 -0.1691
 1410SOL    HW1 4808   5.776   9.923   6.161 -0.6395  0.6181  0.3824
 1410SOL    HW2 4809   5.861   9.981   6.272 -0.9291  0.3277  0.7562
 1411SOL     OW 4810   0.132   8.712   2.152  0.4013  0.0028 -0.6509
 1411SOL    HW1 4811   0.081   8.631   2.161  0.5919 -0.1511 -0.9628
 1411SOL    HW2 4812   0.106   8.747   2.067  1.7974 -0.7689 -1.4450
 1412SOL     OW 4813   2.562   5.516   4.524  0.1742  0.2049 -0.2645
 1412SOL    HW1 4814   2.492   5.522   4.459  0.2480  0.5173 -0.3155
 1412SOL    HW2 4815   2.625   5.583   4.498  0.6468 -0.2783 -0.4035
 1413SOL     OW 4816   5.823   5.177   0.206  0.0757 -0.4735  0.3147
 1413SOL    HW1 4817   5.864   5.262   0.222 -1.8212  0.3199  1.3240
 1413SOL    HW2 4818   5.845   5.156   0.115  2.0181  0.2258  0.5723
 1414SOL     OW 4819   0.276   5.152   1.846  0.8279 -0.0264  0.3334
 1414SOL    HW1 4820   0.287   5.215   1.775  1.0111 -0.2047  0.2025
 1414SOL    HW2 4821   0.325   5.075   1.818  0.9954 -0.0591  0.7025
 1415SOL     OW 4822   2.645   2.024   9.772 -0.2922 -0.5825  0.4334
 1415SOL    HW1 4823   2.691   1.962   9.716 -0.8568  0.6432 -1.4604
 1415SOL    HW2 4824   2.714   2.061   9.828  0.9527  0.4910 -1.6635
 1416SOL     OW 4825   8.159   7.389   2.042 -0.4129  0.3892 -0.4692
 1416SOL    HW1 4826   8.253   7.406   2.036 -0.2993 -0.1901 -0.3910
 1416SOL    HW2 4827   8.120   7.474   2.060  0.3821  0.2161  2.6775
 1417SOL     OW 4828   1.206   0.246   2.732 -0.1939  0.3707  0.5335
 1417SOL    HW1 4829   1.145   0.175   2.754  0.9678 -0.0696  2.6942
 1417SOL    HW2 4830   1.194   0.261   2.639 -3.5665  0.3100  0.8511
 1418SOL     OW 4831   7.602   8.384   2.114 -0.5597  0.3429  0.6091
 1418SOL    HW1 4832   7.590   8.393   2.019  2.4737  0.5907  0.1520
 1418SOL    HW2 4833   7.547   8.453   2.152 -2.1445 -0.0160 -0.8945
 1419SOL     OW 4834   3.753   8.725   4.800 -0.1181  0.5356 -0.2737
 1419SOL    HW1 4835   3.752   8.648   4.856 -0.6075  1.2807  0.7598
 1419SOL    HW2 4836   3.661   8.744   4.783  0.0152  0.3867 -1.2640
 1420SOL     OW 4837   9.461   3.281   1.092 -0.8149 -0.0440  0.1500
 1420SOL    HW1 4838   9.541   3.259   1.140 -0.5698  1.2130  0.3402
 1420SOL    HW2 4839   9.472   3.373   1.068 -1.2897 -0.4057 -1.6163
 1421SOL     OW 4840   5.651   8.017   4.504 -0.4007  0.3371  0.0151
 1421SOL    HW1 4841   5.604   8.086   4.552 -1.5294  0.4406 -1.1699
 1421SOL    HW2 4842   5.633   7.937   4.553  1.7057  0.9436  1.9551
 1422SOL     OW 4843   7.342   5.194   2.771 -0.0982 -0.3086  0.3914
 1422SOL    HW1 4844   7.355   5.115   2.718  1.7126  0.2375 -0.0434
 1422SOL    HW2 4845   7.302   5.257   2.710  0.7378 -0.1168  0.0231
 1423SOL     OW 4846   2.523   2.826   6.339  0.1565  0.1161 -0.0186
 1423SOL    HW1 4847   2.576   2.856   6.412  2.6763 -1.7105 -0.9511
 1423SOL    HW2 4848   2.503   2.735   6.360  0.0200 -0.1164 -1.0892
 1424SOL     OW 4849   7.110   2.513   3.438  0.0601 -0.5264  0.5327
 1424SOL    HW1 4850   7.192   2.463   3.443 -0.2790 -1.0803  0.5531
 1424SOL    HW2 4851   7.057   2.466   3.374 -0.2358 -0.1571  0.5047
 1425SOL     OW 4852   5.225   1.663   0.950  0.4304  0.5764  0.0467
 1425SOL    HW1 4853   5.295   1.680   0.887  0.7060  0.0687  0.2103
 1425SOL    HW2 4854   5.267   1.672   1.035 -0.0232  1.6193  0.1769
 1426SOL     OW 4855   3.633   3.155   9.276  0.0439 -0.7491  0.2703
 1426SOL    HW1 4856   3.697   3.118   9.215  0.0494  0.0269 -0.2105
 1426SOL    HW2 4857   3.672   3.141   9.363  0.4302 -1.1079  0.0427
 1427SOL     OW 4858   2.632   5.625   1.810  0.0694  0.6021  0.0811
 1427SOL    HW1 4859   2.723   5.647   1.788  0.4016  0.1639  0.9412
 1427SOL    HW2 4860   2.639   5.540   1.855 -0.8377  0.2563 -0.4165
 1428SOL     OW 4861   5.657   8.767   3.019 -0.0600  0.1214 -0.4908
 1428SOL    HW1 4862   5.675   8.718   2.939  0.4981 -1.6575  0.6659
 1428SOL    HW2 4863   5.722   8.838   3.019  2.3416 -1.9265  0.0417
 1429SOL     OW 4864   7.495   7.570   9.023  0.1159 -0.6845  0.2854
 1429SOL    HW1 4865   7.562   7.603   9.083 -0.3259 -0.3104  0.5875
 1429SOL    HW2 4866   7.529   7.587   8.936 -0.2753  0.9879  0.4232
 1430SOL     OW 4867   9.999   7.945   4.253  0.2433  0.0827  0.0839
 1430SOL    HW1 4868  10.006   7.851   4.272  0.0151  0.2736  1.1332
 1430SOL    HW2 4869   9.912   7.954   4.214 -0.5070  0.1284  1.7116
 1431SOL     OW 4870   8.890   0.564   2.680 -0.1055 -0.3794  0.3463
 1431SOL    HW1 4871   8.978   0.587   2.651 -0.8383  1.4810 -0.6198
 1431SOL    HW2 4872   8.846   0.533   2.600 -1.0544  1.2392  0.1831
 1432SOL     OW 4873   3.068   3.295   8.926 -0.2528 -0.2148 -0.5020
 1432SOL    HW1 4874   3.034   3.247   9.002  0.7635 -1.6080 -0.8901
 1432SOL    HW2 4875   3.162   3.298   8.940 -0.2220  0.9976 -0.8910
 1433SOL     OW 4876   8.427   9.153   3.977  0.7580  0.1457 -0.0352
 1433SOL    HW1 4877   8.428   9.058   3.965 -0.4360 -0.1245  1.5413
 1433SOL    HW2 4878   8.392   9.188   3.896 -2.9247 -1.1514  0.8247
 1434SOL     OW 4879   6.735   8.575   7.881 -0.1166  0.0217 -0.3431
 1434SOL    HW1 4880   6.791   8.497   7.881 -1.1823 -0.7732  0.1401
 1434SOL    HW2 4881   6.706   8.584   7.972 -0.8367  0.3566 -0.5945
 1435SOL     OW 4882   4.335   2.349   0.580 -0.2902 -0.1309 -0.1110
 1435SOL    HW1 4883   4.269   2.333   0.648 -0.9305  0.7709 -0.4940
 1435SOL    HW2 4884   4.350   2.263   0.541 -1.7063 -0.2830 -0.4107
 1436SOL     OW 4885   6.887   6.712   2.460  0.4519 -0.3274 -0.3620
 1436SOL    HW1 4886   6.806   6.667   2.482 -0.9489  1.7972 -0.8369
 1436SOL    HW2 4887   6.889   6.712   2.365  1.1173 -0.5325 -0.3498
 1437SOL     OW 4888   3.996   3.085   2.535 -0.0685  0.5046  0.2792
 1437SOL    HW1 4889   4.065   3.044   2.483  1.3672  3.0053  0.0133
 1437SOL    HW2 4890   4.040   3.158   2.579 -1.9761  0.4854  2.3844
 1438SOL     OW 4891   5.930   5.058   4.186 -0.5774  0.6963  0.0866
 1438SOL    HW1 4892   5.988   5.048   4.262  1.7642  1.3805 -1.5250
 1438SOL    HW2 4893   5.888   5.143   4.199 -1.5172  0.0654  1.4130
 1439SOL     OW 4894   4.374   1.233   7.542 -0.0593 -0.2624  0.0900
 1439SOL    HW1 4895   4.388   1.220   7.636 -1.9833 -1.6433  0.2581
 1439SOL    HW2 4896   4.359   1.327   7.533 -1.5674 -0.3033  1.5041
 1440SOL     OW 4897   3.971   9.665   8.226  0.3185 -0.1718  0.2915
 1440SOL    HW1 4898   3.923   9.633   8.303  1.1937  0.6291  1.1911
 1440SOL    HW2 4899   3.935   9.752   8.210  0.9137  0.1122  0.4802
 1441SOL     OW 4900   7.890   6.830   3.876 -0.7366 -0.3680 -0.5348
 1441SOL    HW1 4901   7.814   6.840   3.933  0.1526  0.5471  0.5414
 1441SOL    HW2 4902   7.958   6.794   3.933  0.2215  0.7256 -0.9538
 1442SOL     OW 4903   9.231   7.506   1.659 -0.3703 -0.0115 -0.4277
 1442SOL    HW1 4904   9.184   7.581   1.696 -0.6772  0.0117 -0.8557
 1442SOL    HW2 4905   9.311   7.499   1.712 -0.3704  0.5804 -0.3392
 1443SOL     OW 4906   6.102   5.906   2.084  0.3990 -1.0235 -0.0617
 1443SOL    HW1 4907   6.122   5.994   2.051  0.2885 -0.8653  0.2807
 1443SOL    HW2 4908   6.006   5.900   2.080  0.2633 -0.5009  1.4212
 1444SOL     OW 4909   8.304   0.881   8.859 -0.2629 -0.4438 -0.5528
 1444SOL    HW1 4910   8.252   0.803   8.840 -0.2511 -0.7648  0.6364
 1444SOL    HW2 4911   8.323   0.875   8.953  0.1683  0.7304 -0.5447
 1445SOL     OW 4912   0.701   7.044   6.976 -0.4868  0.5242  0.0961
 1445SOL    HW1 4913   0.781   7.034   6.923 -1.0350 -0.1550 -0.6338
 1445SOL    HW2 4914   0.698   7.137   6.997 -1.1103  1.1861 -2.5164
 1446SOL     OW 4915   4.425   1.675   8.776  0.5429  0.1661 -0.5043
 1446SOL    HW1 4916   4.497   1.648   8.720 -0.1306  0.4004 -1.5136
 1446SOL    HW2 4917   4.372   1.595   8.787  0.3556  0.2615 -0.7030
 1447SOL     OW 4918   8.786   8.787   5.057 -0.1949 -0.1333 -0.0875
 1447SOL    HW1 4919   8.704   8.835   5.043  0.4669  0.6346 -1.5936
 1447SOL    HW2 4920   8.844   8.851   5.098 -0.3257 -0.6844  0.9960
 1448SOL     OW 4921   5.278   7.279   3.258 -0.3264 -0.2304  0.3052
 1448SOL    HW1 4922   5.203   7.267   3.200  0.4346 -0.6643 -0.6117
 1448SOL    HW2 4923   5.353   7.245   3.209  0.1377 -1.9499  2.0816
 1449SOL     OW 4924   4.553   7.640   6.467 -0.0631  0.2058 -0.0213
 1449SOL    HW1 4925   4.484   7.598   6.416  1.5232  0.3039 -2.4423
 1449SOL    HW2 4926   4.533   7.733   6.461 -0.1857  0.1802 -0.0119
 1450SOL     OW 4927   3.044   3.744   2.061 -1.2054 -0.6274 -0.0441
 1450SOL    HW1 4928   3.131   3.708   2.043 -0.6926 -0.4464  1.8702
 1450SOL    HW2 4929   3.061   3.822   2.113 -2.5261 -0.9449  0.9110
 1451SOL     OW 4930   7.150   2.157   5.908  0.2775 -0.7358 -0.4389
 1451SOL    HW1 4931   7.174   2.243   5.874  1.4163  0.0147  2.0301
 1451SOL    HW2 4932   7.193   2.095   5.849  0.8951  0.4302 -1.2420
 1452SOL     OW 4933   2.774   1.250   7.591  0.1195 -0.3202  0.7928
 1452SOL    HW1 4934   2.756   1.259   7.685  0.0673 -0.3847  0.7890
 1452SOL    HW2 4935   2.695   1.210   7.555 -0.1011  0.2541  0.6237
 1453SOL     OW 4936   9.500   8.073   1.858 -0.2263  0.6181 -0.1590
 1453SOL    HW1 4937   9.490   8.166   1.839 -1.8117  0.4788 -0.0992
 1453SOL    HW2 4938   9.502   8.069   1.954  0.2855  0.6198 -0.1656
 1454SOL     OW 4939   3.065   9.313   4.625 -0.4844 -0.7364  0.5245
 1454SOL    HW1 4940   3.135   9.294   4.562 -0.4240 -0.7254  0.5883
 1454SOL    HW2 4941   3.107   9.307   4.710 -0.8664 -2.0890  0.6367
 1455SOL     OW 4942   7.974   3.057   6.619  0.3383  0.0988  0.4207
 1455SOL    HW1 4943   8.027   3.107   6.681 -0.3377 -0.4039  1.4236
 1455SOL    HW2 4944   7.984   2.966   6.647 -0.5948 -0.0596  0.2675
 1456SOL     OW 4945   6.463   0.220   0.372  0.2614 -0.5126  0.4196
 1456SOL    HW1 4946   6.436   0.287   0.310  3.8063 -1.1122 -2.0292
 1456SOL    HW2 4947   6.472   0.267   0.455  0.3856  1.5323 -0.6880
 1457SOL     OW 4948   0.065   4.461   1.504 -0.2340 -0.1450  0.2689
 1457SOL    HW1 4949   0.160   4.473   1.504 -0.2961  0.4765  0.9035
 1457SOL    HW2 4950   0.036   4.505   1.584 -1.0750 -0.1753 -0.0093
 1458SOL     OW 4951   2.283   7.402   5.905 -0.6025 -0.0281 -0.8803
 1458SOL    HW1 4952   2.256   7.485   5.944 -0.1330 -0.4976  0.5065
 1458SOL    HW2 4953   2.362   7.424   5.854 -2.0892  0.8782 -2.9505
 1459SOL     OW 4954   5.472   4.419   6.190  0.0023 -0.2035 -0.7891
 1459SOL    HW1 4955   5.432   4.370   6.117  0.0853 -0.5919 -0.5794
 1459SOL    HW2 4956   5.414   4.402   6.264  0.5810 -0.8326 -0.4639
 1460SOL     OW 4957   4.521   1.049   7.349  0.4694 -0.3678  0.7945
 1460SOL    HW1 4958   4.460   1.102   7.399  0.0853 -0.2585  0.2162
 1460SOL    HW2 4959   4.472   0.970   7.326  0.9469 -0.8599  1.4036
 1461SOL     OW 4960   2.438   3.387   8.143  0.1676  0.3688 -0.0815
 1461SOL    HW1 4961   2.494   3.347   8.210  0.3850  0.6682 -0.0815
 1461SOL    HW2 4962   2.360   3.332   8.141 -0.2796  0.9060  1.1319
 1462SOL     OW 4963   7.055   8.369   4.312 -0.5151 -0.2496  0.0278
 1462SOL    HW1 4964   7.112   8.344   4.385 -0.5454  1.8101  0.8247
 1462SOL    HW2 4965   6.967   8.368   4.349 -0.5487  0.6352 -0.0066
 1463SOL     OW 4966   9.824   5.992   8.990  0.2763  0.4688 -0.0905
 1463SOL    HW1 4967   9.771   5.974   9.067  0.1803  0.2584 -0.2051
 1463SOL    HW2 4968   9.765   5.979   8.916  0.8476 -1.2176 -0.3012
 1464SOL     OW 4969   2.386   0.331   0.554 -0.1356  0.4650  0.1852
 1464SOL    HW1 4970   2.308   0.294   0.514 -0.2261  2.8824 -2.1187
 1464SOL    HW2 4971   2.352   0.394   0.618 -0.0553  0.6721  0.0239
 1465SOL     OW 4972   8.835   2.114   7.503 -0.2788  0.7459 -0.3613
 1465SOL    HW1 4973   8.766   2.103   7.437  0.3553  1.2709 -1.1369
 1465SOL    HW2 4974   8.837   2.031   7.551 -0.0555 -0.0396 -1.6835
 1466SOL     OW 4975   4.276   9.729   0.569  0.3051 -0.1711 -0.7639
 1466SOL    HW1 4976   4.367   9.758   0.560  0.1979 -0.0929 -1.7522
 1466SOL    HW2 4977   4.282   9.634   0.577  0.4654 -0.2000 -1.1665
 1467SOL     OW 4978   6.266   8.522   6.615  0.0696  0.6251 -0.2420
 1467SOL    HW1 4979   6.233   8.610   6.630  0.7072  0.5829  1.5748
 1467SOL    HW2 4980   6.272   8.515   6.519  0.2138  2.6084 -0.4172
 1468SOL     OW 4981   8.422   5.261   5.840  0.7443  0.0009 -0.3239
 1468SOL    HW1 4982   8.451   5.304   5.759  0.9616 -1.1012 -0.8565
 1468SOL    HW2 4983   8.486   5.288   5.906  2.0756 -1.0710 -1.1049
 1469SOL     OW 4984   9.561   9.398   5.960  0.4124 -0.3334  0.6192
 1469SOL    HW1 4985   9.495   9.447   5.912  0.9421 -1.6527 -1.5765
 1469SOL    HW2 4986   9.639   9.453   5.958  0.2792 -0.1522  0.4585
 1470SOL     OW 4987   0.248   9.207   5.454  0.1345  0.3771  0.6560
 1470SOL    HW1 4988   0.284   9.139   5.510  0.3320 -0.0677  0.0006
 1470SOL    HW2 4989   0.162   9.227   5.491  0.0147 -0.3339  0.7632
 1471SOL     OW 4990   9.478   2.916   3.584 -1.1673  0.2527  0.0149
 1471SOL    HW1 4991   9.461   2.831   3.545 -0.4245  0.0849  0.0275
 1471SOL    HW2 4992   9.521   2.966   3.514  2.8511 -0.9791  1.2749
 1472SOL     OW 4993   7.974   3.962   7.434  0.8334  0.3080  0.1871
 1472SOL    HW1 4994   7.979   3.891   7.370  0.0968  0.8612 -0.5072
 1472SOL    HW2 4995   7.880   3.983   7.441  1.0133  1.0738  0.5249
 1473SOL     OW 4996   4.103   2.121   7.885 -0.1541  0.2192 -0.0272
 1473SOL    HW1 4997   4.180   2.164   7.922  0.2328 -2.3222  2.4847
 1473SOL    HW2 4998   4.139   2.051   7.830 -0.5833 -0.9271  1.0914
 1474SOL     OW 4999   6.570   0.672   1.430 -0.5221 -0.2439 -0.2644
 1474SOL    HW1 5000   6.569   0.747   1.371  1.1758 -0.1987 -0.2945
 1474SOL    HW2 5001   6.575   0.596   1.372  2.1623 -0.1660 -0.2768
 1475SOL     OW 5002   8.634   3.351   8.729  0.3382 -0.6686 -0.3252
 1475SOL    HW1 5003   8.608   3.442   8.746 -1.8568 -1.4188  0.8018
 1475SOL    HW2 5004   8.688   3.327   8.804 -0.0868 -0.6524 -0.0122
 1476SOL     OW 5005   0.457   4.505   0.435 -0.2723 -0.1616 -0.6825
 1476SOL    HW1 5006   0.378   4.536   0.481  0.1259  0.5122 -0.4403
 1476SOL    HW2 5007   0.497   4.584   0.400 -0.7317 -0.6797 -2.4941
 1477SOL     OW 5008   0.864   9.593   7.807 -0.1642  0.1216 -0.1829
 1477SOL    HW1 5009   0.944   9.626   7.848 -0.1201  1.3566 -1.2019
 1477SOL    HW2 5010   0.797   9.605   7.873 -0.2080  2.6431 -0.5909
 1478SOL     OW 5011   2.539   6.785   8.501  0.0214  0.0547  0.1869
 1478SOL    HW1 5012   2.455   6.759   8.540 -0.8849 -0.7998 -2.1906
 1478SOL    HW2 5013   2.517   6.858   8.444  1.1897  0.7807  0.6414
 1479SOL     OW 5014   5.737   8.278   6.934  0.0861 -0.1958 -0.0472
 1479SOL    HW1 5015   5.797   8.221   6.888  1.6709  0.3943  1.1911
 1479SOL    HW2 5016   5.692   8.327   6.865 -0.3764 -1.9731 -1.0622
 1480SOL     OW 5017   8.142   5.479   9.544  0.5142 -0.2371  0.4134
 1480SOL    HW1 5018   8.077   5.444   9.605  0.1856 -0.1312  0.1350
 1480SOL    HW2 5019   8.196   5.404   9.520 -0.8684 -0.8362 -1.0262
 1481SOL     OW 5020   7.835   7.408   3.151 -0.1956  0.4884 -0.6244
 1481SOL    HW1 5021   7.833   7.451   3.237  0.8501 -1.4736  0.4405
 1481SOL    HW2 5022   7.879   7.471   3.095 -2.3090  2.4915 -0.1878
 1482SOL     OW 5023   6.987   7.215   0.884 -0.2014  0.4707  0.3433
 1482SOL    HW1 5024   7.074   7.250   0.863 -0.3789  0.5690 -0.2535
 1482SOL    HW2 5025   6.955   7.179   0.802 -0.3154 -0.4854  0.7962
 1483SOL     OW 5026   4.203   4.224   7.915 -0.6502  0.2999 -0.2713
 1483SOL    HW1 5027   4.287   4.253   7.878 -1.1139 -0.2174 -1.8277
 1483SOL    HW2 5028   4.226   4.151   7.973  0.0450  0.7078 -0.0237
 1484SOL     OW 5029   6.153   8.075   0.962 -0.2608  0.3870 -0.0939
 1484SOL    HW1 5030   6.170   8.014   0.890  2.2009 -0.8344  1.3741
 1484SOL    HW2 5031   6.207   8.151   0.943  0.1063  0.2161  0.2305
 1485SOL     OW 5032   2.014   3.113   6.706 -0.4904  0.3189  0.1689
 1485SOL    HW1 5033   1.975   3.185   6.755 -2.7397 -0.4217 -0.4349
 1485SOL    HW2 5034   1.997   3.035   6.760  3.0160  0.2618  1.4495
 1486SOL     OW 5035   6.139   7.587   4.533 -0.1635 -0.4614 -0.1823
 1486SOL    HW1 5036   6.104   7.609   4.619 -1.3744 -1.9663 -0.2655
 1486SOL    HW2 5037   6.172   7.498   4.542  0.5098 -0.3105 -1.0425
 1487SOL     OW 5038   7.527   5.563   1.208 -0.3347  0.3892  0.5667
 1487SOL    HW1 5039   7.518   5.658   1.197 -1.1639  0.1671 -1.0059
 1487SOL    HW2 5040   7.488   5.526   1.128  1.1268 -1.2343  0.5464
 1488SOL     OW 5041   0.051   9.489   7.373 -0.0014  0.0145 -0.3377
 1488SOL    HW1 5042   0.131   9.509   7.422  0.0820  0.9213 -0.8258
 1488SOL    HW2 5043   0.007   9.574   7.363 -1.1616 -0.5096  0.1552
 1489SOL     OW 5044   5.107   7.650   3.120 -0.7164  0.4560  0.1436
 1489SOL    HW1 5045   5.065   7.671   3.203 -0.5882 -2.7015  1.1456
 1489SOL    HW2 5046   5.065   7.569   3.091  0.2269  0.7055 -2.1675
 1490SOL     OW 5047   9.174   1.446   2.194  0.0626 -0.0513  0.1247
 1490SOL    HW1 5048   9.132   1.367   2.228  0.2014  0.1733  0.8360
 1490SOL    HW2 5049   9.210   1.419   2.109  0.6681 -0.9406  0.6392
 1491SOL     OW 5050   7.323   4.269   9.839 -0.4593 -0.1655 -0.7036
 1491SOL    HW1 5051   7.386   4.200   9.817 -0.9974 -0.7969 -0.3075
 1491SOL    HW2 5052   7.278   4.236   9.916  1.0930  1.8278  1.1649
 1492SOL     OW 5053   6.279   3.171   1.434 -0.3408  0.0872  0.6202
 1492SOL    HW1 5054   6.217   3.105   1.468 -1.0685  0.5494  0.2219
 1492SOL    HW2 5055   6.244   3.254   1.466 -1.0253  0.5364 -1.1945
 1493SOL     OW 5056   6.755   6.674   8.015  0.6311 -0.4138 -0.2855
 1493SOL    HW1 5057   6.741   6.767   8.035 -0.5814 -0.7718  0.6451
 1493SOL    HW2 5058   6.672   6.632   8.037  1.5761 -1.9213  0.5714
 1494SOL     OW 5059   4.320   6.481   7.465  0.4613  0.4176  0.4480
 1494SOL    HW1 5060   4.319   6.398   7.418 -0.2922 -0.0777  1.3357
 1494SOL    HW2 5061   4.253   6.472   7.533  0.8151  1.5108  0.9611
 1495SOL     OW 5062   2.694   4.299   6.931  0.1758 -0.1564 -0.3350
 1495SOL    HW1 5063   2.736   4.213   6.924  0.1384 -0.2216  0.2709
 1495SOL    HW2 5064   2.656   4.314   6.844 -3.8792 -2.8207  0.7180
 1496SOL     OW 5065   2.202   4.211   1.172 -0.0854 -0.8613  0.5097
 1496SOL    HW1 5066   2.230   4.156   1.099 -0.8834 -0.7422  0.0978
 1496SOL    HW2 5067   2.281   4.225   1.224  1.0722  0.9983 -1.5766
 1497SOL     OW 5068   3.464   5.987   0.141 -0.5250 -0.4398  0.0532
 1497SOL    HW1 5069   3.492   5.896   0.125 -0.1707 -0.2015 -0.7428
 1497SOL    HW2 5070   3.519   6.039   0.082  0.7281  0.5147  1.9756
 1498SOL     OW 5071   4.451   1.888   5.490 -0.1965 -0.2525  0.0178
 1498SOL    HW1 5072   4.413   1.893   5.402  0.1499 -0.2092 -0.1319
 1498SOL    HW2 5073   4.458   1.979   5.518  2.0044 -0.0613 -0.9243
 1499SOL     OW 5074   3.106   7.290   6.712 -0.2695 -0.0551  0.1122
 1499SOL    HW1 5075   3.053   7.211   6.722 -0.2821 -0.2000 -1.0156
 1499SOL    HW2 5076   3.088   7.320   6.623  0.8167  0.4425  0.0510
 1500SOL     OW 5077   6.961   6.897   2.084 -0.5575  0.4520  0.0382
 1500SOL    HW1 5078   6.878   6.861   2.116 -1.1625  0.2982 -1.5828
 1500SOL    HW2 5079   6.956   6.991   2.103 -0.7831  0.3256  0.6054
 1501SOL     OW 5080   6.197   5.307   2.378  0.0843 -0.0616 -0.1133
 1501SOL    HW1 5081   6.233   5.263   2.301 -0.2003 -0.7177  0.1177
 1501SOL    HW2 5082   6.260   5.377   2.397  1.2528 -1.1814  0.2714
 1502SOL     OW 5083   0.013   2.837   6.638  0.1383  0.1524  0.0658
 1502SOL    HW1 5084   0.019   2.780   6.562 -0.3831  2.0018 -1.4661
 1502SOL    HW2 5085   0.102   2.841   6.673 -0.1527 -3.1452  1.5403
 1503SOL     OW 5086   3.041   5.019   0.060  0.1296 -0.2171  0.5428
 1503SOL    HW1 5087   3.094   4.941   0.074  0.9476 -0.3140 -2.3751
 1503SOL    HW2 5088   2.957   4.986   0.029  0.1746  0.0023  0.1695
 1504SOL     OW 5089   4.185   4.024   8.094  0.2579 -0.0352 -0.0410
 1504SOL    HW1 5090   4.187   3.987   8.006 -1.2573 -2.1243  0.7224
 1504SOL    HW2 5091   4.228   3.958   8.149  1.6518  1.4595  0.7705
 1505SOL     OW 5092   7.097   1.837   8.034  0.0954 -0.2291 -0.5479
 1505SOL    HW1 5093   7.122   1.791   7.954  2.2761 -0.3159  0.1094
 1505SOL    HW2 5094   7.140   1.788   8.104 -0.3059  0.8623  0.4955
 1506SOL     OW 5095   9.898   2.019   7.542 -0.2092  0.5200  0.2781
 1506SOL    HW1 5096   9.828   1.967   7.581  0.2743  0.1109  0.6281
 1506SOL    HW2 5097   9.940   2.063   7.617 -0.2239  0.9201  0.0510
 1507SOL     OW 5098   6.796   1.383   8.589 -0.7487 -0.2758  0.1431
 1507SOL    HW1 5099   6.720   1.346   8.633 -0.1689 -0.6200  0.8860
 1507SOL    HW2 5100   6.870   1.359   8.645 -0.3382  2.0187  0.6744
 1508SOL     OW 5101   3.716   4.611   7.302  0.2212  0.0833  0.2197
 1508SOL    HW1 5102   3.804   4.649   7.295 -0.1199  0.9469  0.5459
 1508SOL    HW2 5103   3.657   4.683   7.283 -0.4632 -0.1395  1.4027
 1509SOL     OW 5104   0.093   4.552   0.162 -0.5034  0.0568 -0.0576
 1509SOL    HW1 5105   0.182   4.586   0.177 -0.3729 -0.3028 -0.0055
 1509SOL    HW2 5106   0.080   4.489   0.233 -1.9568  2.3036  1.8173
 1510SOL     OW 5107   1.981   2.487   8.772  0.3464 -0.3567 -0.4587
 1510SOL    HW1 5108   2.069   2.458   8.796 -0.1744 -0.9121  0.8787
 1510SOL    HW2 5109   1.994   2.572   8.730  1.7844 -1.7957 -3.1680
 1511SOL     OW 5110   4.737   2.523   4.439  0.1364  0.2044 -1.1618
 1511SOL    HW1 5111   4.643   2.528   4.455  0.4529  1.3731  0.6818
 1511SOL    HW2 5112   4.749   2.442   4.390 -1.7475 -0.3317 -0.8085
 1512SOL     OW 5113   0.859   0.138   8.824 -0.4113 -0.2755 -0.1598
 1512SOL    HW1 5114   0.920   0.119   8.754 -0.3400 -1.3657  0.1797
 1512SOL    HW2 5115   0.913   0.141   8.903 -0.6676 -0.3356  0.0189
 1513SOL     OW 5116   6.525   5.290   9.545 -0.8802  0.3286  0.7021
 1513SOL    HW1 5117   6.494   5.246   9.466  0.1378 -0.2495  0.6017
 1513SOL    HW2 5118   6.616   5.315   9.525 -0.3281 -0.5595  1.9459
 1514SOL     OW 5119   2.464   6.325   1.909  0.7452 -0.6487  0.3743
 1514SOL    HW1 5120   2.536   6.375   1.947  1.1502 -1.3420  0.5279
 1514SOL    HW2 5121   2.505   6.247   1.873  0.3450 -0.1179 -1.3109
 1515SOL     OW 5122   2.376   9.519   9.300 -0.4838  0.3492  0.4207
 1515SOL    HW1 5123   2.398   9.437   9.345 -0.5128 -0.0499 -0.2721
 1515SOL    HW2 5124   2.443   9.581   9.329 -0.3784  0.0402  0.8442
 1516SOL     OW 5125   5.762   8.378   5.031 -0.2216  0.6998 -0.0908
 1516SOL    HW1 5126   5.755   8.472   5.021 -3.4851  0.4214 -1.7877
 1516SOL    HW2 5127   5.676   8.351   5.066  0.0083 -1.7702 -1.1992
 1517SOL     OW 5128   7.096   5.273   9.650  0.2553  0.2875 -0.2020
 1517SOL    HW1 5129   7.021   5.249   9.704 -1.2658 -0.3291 -2.4665
 1517SOL    HW2 5130   7.109   5.198   9.592  3.9433 -0.4966  1.3549
 1518SOL     OW 5131   3.710   7.696   3.726 -0.0342 -0.3910  0.0970
 1518SOL    HW1 5132   3.703   7.730   3.637 -1.9538 -1.6475 -0.2847
 1518SOL    HW2 5133   3.804   7.690   3.742  0.3479  1.3140 -1.2430
 1519SOL     OW 5134   6.702   8.576   8.135 -0.2001 -0.0137  0.6284
 1519SOL    HW1 5135   6.774   8.612   8.186 -0.9679  1.4126  0.7557
 1519SOL    HW2 5136   6.663   8.509   8.191  0.7359 -0.4970  0.7235
 1520SOL     OW 5137   3.595   7.598   6.314  0.0021 -0.3625  0.1163
 1520SOL    HW1 5138   3.538   7.526   6.341  0.9895 -0.0828  3.4097
 1520SOL    HW2 5139   3.607   7.650   6.393  4.1405  0.0200 -0.5273
 1521SOL     OW 5140   8.698   7.148   2.108  0.1653 -0.6523  0.0437
 1521SOL    HW1 5141   8.606   7.125   2.107 -0.0859  0.2439  0.8869
 1521SOL    HW2 5142   8.707   7.217   2.042 -0.1108  0.4290  1.1110
 1522SOL     OW 5143   6.461   6.118   6.514 -0.1908  0.1951 -0.0477
 1522SOL    HW1 5144   6.525   6.185   6.490 -0.0134  0.2981  0.6808
 1522SOL    HW2 5145   6.376   6.162   6.505 -0.0810  0.5008  0.3355
 1523SOL     OW 5146   3.910   6.670   4.445 -0.2045  0.2441  0.0988
 1523SOL    HW1 5147   4.001   6.688   4.421  0.3792 -0.6337  1.5194
 1523SOL    HW2 5148   3.898   6.717   4.528 -0.8540 -0.1608  0.2395
 1524SOL     OW 5149   5.094   5.231   5.676  0.0586  0.6162  0.0065
 1524SOL    HW1 5150   5.010   5.259   5.712 -0.6037 -1.6801  0.4276
 1524SOL    HW2 5151   5.128   5.170   5.741  0.8241 -0.4370 -1.3403
 1525SOL     OW 5152   8.373   1.696   2.501 -0.3818  0.0774 -0.1232
 1525SOL    HW1 5153   8.457   1.736   2.523 -1.1467  0.6103  2.0147
 1525SOL    HW2 5154   8.313   1.769   2.488 -0.8093 -0.3139 -0.4216
 1526SOL     OW 5155   0.343   8.584   6.136 -0.1904  0.3970 -0.8112
 1526SOL    HW1 5156   0.341   8.655   6.201  1.1535 -1.1978  1.1210
 1526SOL    HW2 5157   0.261   8.593   6.088 -1.6370  1.2698  1.6262
 1527SOL     OW 5158   6.626   9.120   9.127 -0.0612  0.1817  0.2840
 1527SOL    HW1 5159   6.664   9.176   9.195  0.3058  0.1788  0.0787
 1527SOL    HW2 5160   6.579   9.180   9.070  2.2873  0.6374 -1.3154
 1528SOL     OW 5161   4.929   8.003   8.456  0.8074 -0.4928 -0.0737
 1528SOL    HW1 5162   4.899   7.921   8.496  0.1263 -1.2900 -2.1167
 1528SOL    HW2 5163   4.876   8.071   8.499 -2.1691 -1.6160 -1.6738
 1529SOL     OW 5164   5.417   9.063   8.154 -0.2748 -0.3320  0.0809
 1529SOL    HW1 5165   5.492   9.119   8.176 -0.8324  0.9352 -1.1539
 1529SOL    HW2 5166   5.381   9.038   8.239  0.5191  0.4474  0.6730
 1530SOL     OW 5167   8.813   5.463   1.623  0.0674 -0.0830 -0.3691
 1530SOL    HW1 5168   8.796   5.502   1.709 -1.2183  0.3366 -0.7928
 1530SOL    HW2 5169   8.867   5.528   1.577  1.5415 -0.7035  0.4085
 1531SOL     OW 5170   4.840   2.695   6.673  0.4055  0.0429 -0.0928
 1531SOL    HW1 5171   4.886   2.778   6.680 -0.0541  0.2623  0.3749
 1531SOL    HW2 5172   4.909   2.628   6.679  0.8678  0.3949 -1.2653
 1532SOL     OW 5173   0.889   3.979   3.944  0.2510  1.0323  0.2547
 1532SOL    HW1 5174   0.921   3.956   3.856  2.1277 -0.9183  1.3463
 1532SOL    HW2 5175   0.967   4.003   3.993 -0.6876  1.4931  1.5952
 1533SOL     OW 5176   7.153   1.353   3.702 -0.1128  0.1503  0.2344
 1533SOL    HW1 5177   7.160   1.301   3.622 -0.1426  0.4908  0.0102
 1533SOL    HW2 5178   7.076   1.318   3.746 -0.9036  0.8683 -0.5481
 1534SOL     OW 5179   3.236   9.472   5.261 -0.3699 -0.2000  0.3291
 1534SOL    HW1 5180   3.185   9.521   5.325 -0.6529 -0.9336  0.6810
 1534SOL    HW2 5181   3.307   9.431   5.312 -1.4970 -2.0709  0.5012
 1535SOL     OW 5182   8.290   0.063   4.130  0.1483  0.3436  0.1550
 1535SOL    HW1 5183   8.335   0.143   4.158  1.0234  0.3372 -1.1391
 1535SOL    HW2 5184   8.273   0.015   4.211  0.9901  1.1360  0.8154
 1536SOL     OW 5185   6.313   0.636   3.968  0.5542  0.4844  0.1294
 1536SOL    HW1 5186   6.376   0.661   4.036  0.4383  2.9799 -0.5861
 1536SOL    HW2 5187   6.357   0.658   3.885 -0.5550  0.5941 -0.4473
 1537SOL     OW 5188   3.991   1.945   2.482  0.2603  0.0899 -0.1495
 1537SOL    HW1 5189   4.075   1.935   2.438 -0.2412 -1.1260 -0.8805
 1537SOL    HW2 5190   3.968   2.038   2.471  1.0819  0.2292 -0.7091
 1538SOL     OW 5191   4.587   8.681   2.551 -0.4173  0.3185 -0.2973
 1538SOL    HW1 5192   4.515   8.670   2.612  0.4880 -0.1022  0.7219
 1538SOL    HW2 5193   4.663   8.647   2.597  0.1650 -0.7220 -1.9513
 1539SOL     OW 5194   0.298   4.542   1.870  0.3799 -0.2897  0.5945
 1539SOL    HW1 5195   0.383   4.571   1.835  0.0319 -1.8951 -1.8373
 1539SOL    HW2 5196   0.321   4.473   1.933  0.8952 -0.3565  0.3427
 1540SOL     OW 5197   2.834   5.235   4.551  0.0353  0.2087 -0.4147
 1540SOL    HW1 5198   2.804   5.149   4.581  3.2171 -1.0252 -0.4088
 1540SOL    HW2 5199   2.814   5.294   4.623 -2.5335 -0.3904 -0.5616
 1541SOL     OW 5200   3.239   0.233   6.402  0.2319  0.4705 -0.1840
 1541SOL    HW1 5201   3.155   0.241   6.356 -1.0410 -2.8491  1.2633
 1541SOL    HW2 5202   3.287   0.166   6.353  0.4134 -0.4108  1.1563
 1542SOL     OW 5203   8.850   3.268   0.841  0.3200 -0.3356 -0.0711
 1542SOL    HW1 5204   8.775   3.238   0.790 -1.3369 -0.6018  2.3764
 1542SOL    HW2 5205   8.888   3.189   0.879  0.9981 -0.0693 -0.1745
 1543SOL     OW 5206   4.896   6.830   7.481 -0.1673  0.0661  0.4234
 1543SOL    HW1 5207   4.832   6.811   7.550 -1.3649 -0.8966 -0.8994
 1543SOL    HW2 5208   4.847   6.879   7.415  1.0611  1.3338  0.3928
 1544SOL     OW 5209   1.469   8.474   2.933 -0.3870  0.5191 -0.1855
 1544SOL    HW1 5210   1.513   8.511   3.010 -0.7865  1.4874 -0.4090
 1544SOL    HW2 5211   1.503   8.384   2.927  1.9351  1.3579 -0.6158
 1545SOL     OW 5212   7.909   0.865   5.331  0.3699  0.2241  0.1402
 1545SOL    HW1 5213   7.936   0.957   5.332 -1.3404  0.8512 -2.5947
 1545SOL    HW2 5214   7.813   0.868   5.336  0.1359 -1.2173 -2.0192
 1546SOL     OW 5215   9.000   1.395   4.994  0.2294 -0.7141  0.3729
 1546SOL    HW1 5216   8.944   1.413   4.918 -1.3122 -0.6261  1.4875
 1546SOL    HW2 5217   8.973   1.308   5.023 -0.5066 -0.0195  1.8849
 1547SOL     OW 5218   7.536   9.088   7.258  0.1905 -0.0816 -0.0523
 1547SOL    HW1 5219   7.550   9.157   7.323  1.5794 -0.8578  0.5225
 1547SOL    HW2 5220   7.444   9.064   7.268 -0.2640  1.5060 -0.1072
 1548SOL     OW 5221   6.721   0.396   0.648 -0.0357 -0.7194  0.3993
 1548SOL    HW1 5222   6.718   0.456   0.722 -0.5388 -4.0253  3.3056
 1548SOL    HW2 5223   6.782   0.437   0.586  0.5504  2.1214  2.6555
 1549SOL     OW 5224   9.925   5.610   4.954  0.1771 -0.3607 -0.3153
 1549SOL    HW1 5225   9.853   5.587   5.014  0.3758 -0.6238 -0.1740
 1549SOL    HW2 5226   9.882   5.649   4.879 -0.1368 -0.7757 -0.3548
 1550SOL     OW 5227   3.892   0.936   6.071 -0.5110 -0.3204  0.1090
 1550SOL    HW1 5228   3.934   0.858   6.035  0.2414 -0.3796  1.0488
 1550SOL    HW2 5229   3.949   1.008   6.045  1.1322 -0.5560  2.6511
 1551SOL     OW 5230   8.054   4.840   7.753 -0.3302  0.7328  0.4612
 1551SOL    HW1 5231   7.974   4.803   7.719  1.3564 -1.5628 -1.3050
 1551SOL    HW2 5232   8.044   4.935   7.742 -2.4716  0.4560 -0.3191
 1552SOL     OW 5233   1.926   9.007   8.669  0.1495  0.3724 -0.1091
 1552SOL    HW1 5234   1.850   9.046   8.713 -0.4546  1.0399 -1.6263
 1552SOL    HW2 5235   1.914   9.032   8.577  1.9750  0.0848 -0.4547
 1553SOL     OW 5236   3.019   2.968   8.148  0.1356 -0.0201  0.4711
 1553SOL    HW1 5237   2.930   2.996   8.171 -0.3540 -1.3542  0.2814
 1553SOL    HW2 5238   3.030   2.996   8.057  0.4163  1.2885  0.8752
 1554SOL     OW 5239   3.921   7.597   1.963  0.4667  0.0307  0.0516
 1554SOL    HW1 5240   3.919   7.655   2.039  1.8811  0.3410 -0.1155
 1554SOL    HW2 5241   3.833   7.562   1.957 -0.3692  1.9738  0.3109
 1555SOL     OW 5242   8.098   8.073   8.691 -0.2528  0.5632  0.0544
 1555SOL    HW1 5243   8.031   8.026   8.739 -0.7072  1.3731  0.2282
 1555SOL    HW2 5244   8.104   8.027   8.607 -1.4735  0.8514 -0.2103
 1556SOL     OW 5245   2.094   4.846   8.329 -0.2545 -0.1505 -0.1215
 1556SOL    HW1 5246   2.008   4.856   8.288 -1.0354 -1.6342  1.0656
 1556SOL    HW2 5247   2.126   4.761   8.299 -0.6175 -1.0369  1.8367
 1557SOL     OW 5248   3.648   7.275   6.770  0.0097 -0.3609  0.1299
 1557SOL    HW1 5249   3.562   7.305   6.741  0.1165 -1.7589 -1.8136
 1557SOL    HW2 5250   3.710   7.332   6.725  0.1368 -0.0340  0.7069
 1558SOL     OW 5251   9.135   8.410   1.020 -0.1388 -0.2235 -0.1217
 1558SOL    HW1 5252   9.108   8.407   1.112 -2.7174  0.2090 -0.7691
 1558SOL    HW2 5253   9.177   8.495   1.009 -0.9371  0.2546  0.4159
 1559SOL     OW 5254   9.198   1.889   3.508  0.2893  0.4936  0.0900
 1559SOL    HW1 5255   9.177   1.958   3.571 -1.2323  0.9306 -0.8436
 1559SOL    HW2 5256   9.134   1.820   3.525 -0.4169  0.7974 -1.2376
 1560SOL     OW 5257   8.611   6.376   5.700 -0.6421  0.4224  0.2205
 1560SOL    HW1 5258   8.576   6.361   5.612 -0.4285 -0.3058  0.2559
 1560SOL    HW2 5259   8.688   6.432   5.686 -0.6326  0.3416 -0.0569
 1561SOL     OW 5260   6.253   3.407   6.958 -0.4898 -0.2449  0.4556
 1561SOL    HW1 5261   6.283   3.471   6.894 -0.4892  0.6497  1.3260
 1561SOL    HW2 5262   6.333   3.367   6.992 -0.4761 -0.4859  0.1492
 1562SOL     OW 5263   7.111   1.916   0.725 -0.1184  0.7453 -0.4258
 1562SOL    HW1 5264   7.105   1.992   0.783 -0.9948 -0.3585  0.9829
 1562SOL    HW2 5265   7.199   1.883   0.737  0.1615  1.3362 -0.8019
 1563SOL     OW 5266   1.706   4.898   0.479 -0.4695 -0.6650 -0.3330
 1563SOL    HW1 5267   1.611   4.891   0.481 -0.4917 -0.8522 -1.3725
 1563SOL    HW2 5268   1.727   4.912   0.386  0.5059 -0.5472 -0.1062
 1564SOL     OW 5269   2.734   3.166   5.926 -0.3251  0.0400  0.0462
 1564SOL    HW1 5270   2.695   3.085   5.895 -2.1576  0.9099 -0.0632
 1564SOL    HW2 5271   2.816   3.140   5.967 -0.7965 -1.8341 -0.1429
 1565SOL     OW 5272   6.123   5.489   7.160 -0.5222 -0.3180 -0.3124
 1565SOL    HW1 5273   6.119   5.578   7.196 -0.2393 -0.2436 -0.4621
 1565SOL    HW2 5274   6.132   5.502   7.065  0.0367 -0.4995 -0.2874
 1566SOL     OW 5275   5.768   6.174   3.676  0.1828 -0.0443 -0.2255
 1566SOL    HW1 5276   5.774   6.249   3.735  3.5286  0.1220 -0.5901
 1566SOL    HW2 5277   5.837   6.115   3.705 -1.4206 -2.3779 -0.8694
 1567SOL     OW 5278   1.229   7.424   1.941 -0.2182  0.3006 -0.2991
 1567SOL    HW1 5279   1.181   7.341   1.939 -0.9392  0.6533  1.4861
 1567SOL    HW2 5280   1.178   7.482   1.885 -1.2020  0.3082  0.5850
 1568SOL     OW 5281   9.830   6.298   6.926 -0.1080 -0.0274  0.0926
 1568SOL    HW1 5282   9.846   6.353   6.849 -0.9410 -0.0944 -0.1378
 1568SOL    HW2 5283   9.905   6.238   6.928 -0.0642 -0.0157 -0.6645
 1569SOL     OW 5284   5.469   7.222   2.700 -0.1136 -0.6278  0.3797
 1569SOL    HW1 5285   5.427   7.173   2.770 -1.3946 -1.3344 -0.8346
 1569SOL    HW2 5286   5.544   7.168   2.674  0.8226  0.0014  1.6663
 1570SOL     OW 5287   4.570   0.705   7.540 -0.1088  0.0694 -0.5001
 1570SOL    HW1 5288   4.589   0.692   7.633  1.0079  0.1240 -0.7038
 1570SOL    HW2 5289   4.476   0.723   7.537 -0.0267  0.8586  0.6988
 1571SOL     OW 5290   5.700   7.809   6.186 -0.2275  0.1717  0.6354
 1571SOL    HW1 5291   5.676   7.900   6.170  1.0072  0.6569  1.3767
 1571SOL    HW2 5292   5.791   7.813   6.215 -0.5091 -1.1845  1.8164
 1572SOL     OW 5293   3.601   6.214   9.699 -0.4289 -0.0575  0.2849
 1572SOL    HW1 5294   3.626   6.213   9.607  0.1580  1.5652  0.3951
 1572SOL    HW2 5295   3.512   6.248   9.700 -0.1459  0.7044  0.3539
 1573SOL     OW 5296   9.193   0.801   0.256 -0.1206  0.2274 -0.0958
 1573SOL    HW1 5297   9.272   0.787   0.308  0.9270  1.3123 -1.3165
 1573SOL    HW2 5298   9.146   0.871   0.301 -1.4251 -1.7032  1.7024
 1574SOL     OW 5299   8.340   6.086   1.967  0.0710  0.6058  0.0819
 1574SOL    HW1 5300   8.268   6.114   2.023  0.4419  2.3218 -0.2210
 1574SOL    HW2 5301   8.308   6.006   1.925 -1.4112  0.9833  0.4191
 1575SOL     OW 5302   9.138   4.209   1.424  0.0432 -0.2932 -0.4226
 1575SOL    HW1 5303   9.053   4.219   1.466 -0.3847 -1.9340 -0.8504
 1575SOL    HW2 5304   9.173   4.127   1.458  1.2477  0.1084 -0.6248
 1576SOL     OW 5305   8.397   0.348   7.494 -0.4463  0.5095  0.2478
 1576SOL    HW1 5306   8.435   0.433   7.471  0.2933 -0.3298 -1.8503
 1576SOL    HW2 5307   8.461   0.309   7.553 -0.1736  0.8904  0.2075
 1577SOL     OW 5308   0.182   0.772   0.061  0.0543  0.3430  0.1078
 1577SOL    HW1 5309   0.268   0.775   0.018  0.6880 -1.0391  1.1820
 1577SOL    HW2 5310   0.167   0.862   0.090  0.8342  0.7466 -0.6821
 1578SOL     OW 5311   1.109   5.987   9.300  0.2009 -0.7141  0.5313
 1578SOL    HW1 5312   1.135   5.937   9.377 -1.8360  0.2123  1.9050
 1578SOL    HW2 5313   1.040   5.935   9.260 -1.7847  0.7709  1.8512
 1579SOL     OW 5314   6.514   4.629   1.607 -0.5649  0.8576  0.9113
 1579SOL    HW1 5315   6.420   4.615   1.609 -0.8979  2.7915  3.2163
 1579SOL    HW2 5316   6.548   4.574   1.678 -0.0181  0.5156  0.3895
 1580SOL     OW 5317   9.188   7.004   1.228 -0.4247 -0.1855  0.2515
 1580SOL    HW1 5318   9.214   7.094   1.210  1.5732 -1.1390 -2.2287
 1580SOL    HW2 5319   9.246   6.976   1.299 -0.4426  0.2179  0.4271
 1581SOL     OW 5320   5.924   8.626   3.668  0.0968 -0.0042  0.2136
 1581SOL    HW1 5321   5.837   8.617   3.707  0.2019 -3.0209  0.0407
 1581SOL    HW2 5322   5.913   8.691   3.599 -2.8513 -2.2570 -1.7044
 1582SOL     OW 5323   4.048   4.615   3.206  0.3518 -0.0078  0.1064
 1582SOL    HW1 5324   4.022   4.688   3.263  0.5177  1.4232 -1.5626
 1582SOL    HW2 5325   4.036   4.537   3.260 -5.0288  0.6532  0.4066
 1583SOL     OW 5326   6.601   1.370   7.410 -0.6594 -0.0572 -0.1870
 1583SOL    HW1 5327   6.530   1.408   7.357  0.1135  1.1753 -0.3750
 1583SOL    HW2 5328   6.660   1.444   7.427  1.7388 -1.4564 -1.8743
 1584SOL     OW 5329   0.125   0.026   8.484  0.3092 -0.1401 -0.4385
 1584SOL    HW1 5330   0.206  -0.019   8.460 -0.8865 -3.3333  1.0287
 1584SOL    HW2 5331   0.110   0.001   8.575 -1.4004  1.9051 -0.0756
 1585SOL     OW 5332   7.028   2.617   6.609 -0.0862 -0.3541 -0.1464
 1585SOL    HW1 5333   7.062   2.538   6.566  0.2026 -0.5818  0.5009
 1585SOL    HW2 5334   7.106   2.671   6.626 -0.1554 -0.4338  0.4376
 1586SOL     OW 5335   0.054   1.606   2.417 -0.2647 -0.2618 -0.0312
 1586SOL    HW1 5336   0.122   1.631   2.355 -0.3329 -1.8518 -0.7751
 1586SOL    HW2 5337   0.059   1.673   2.486  1.4432  0.1429 -0.5122
 1587SOL     OW 5338   9.097   9.244   1.776  0.0419  0.3497  0.3512
 1587SOL    HW1 5339   9.144   9.327   1.778  0.7554 -0.0010 -0.5979
 1587SOL    HW2 5340   9.117   9.208   1.689 -0.5673 -0.6287  0.5990
 1588SOL     OW 5341   8.329   0.497   3.029  0.1271  0.1854 -0.6331
 1588SOL    HW1 5342   8.313   0.420   2.974  1.6054 -0.0006 -0.8515
 1588SOL    HW2 5343   8.339   0.462   3.118 -1.1291  0.3622 -0.4024
 1589SOL     OW 5344   1.675   6.516   3.875 -0.3821 -0.4995 -0.3708
 1589SOL    HW1 5345   1.585   6.549   3.882 -0.3106  0.1446 -1.9021
 1589SOL    HW2 5346   1.689   6.466   3.955 -2.2671 -1.0206 -0.3095
 1590SOL     OW 5347   5.710   5.427   6.605  0.4504 -0.5172  0.1006
 1590SOL    HW1 5348   5.619   5.428   6.573  0.2113 -1.0375  0.7392
 1590SOL    HW2 5349   5.759   5.474   6.537 -0.2422 -0.4950 -0.4067
 1591SOL     OW 5350   3.312   4.378   0.775 -0.1581  0.6947 -0.1387
 1591SOL    HW1 5351   3.369   4.372   0.698  1.4763 -0.4720  1.0776
 1591SOL    HW2 5352   3.242   4.316   0.757  1.1301 -0.8706 -0.0165
 1592SOL     OW 5353   5.737   4.469   4.147  0.2436 -0.3625  0.2280
 1592SOL    HW1 5354   5.644   4.449   4.152  0.2650 -0.2435  3.1911
 1592SOL    HW2 5355   5.751   4.536   4.214  2.2943  0.4745 -0.9262
 1593SOL     OW 5356   6.431   8.369   9.831  0.3062 -0.3046 -0.6529
 1593SOL    HW1 5357   6.418   8.380   9.737  0.3032 -2.0543 -0.9019
 1593SOL    HW2 5358   6.505   8.309   9.838 -1.3017 -2.3181  0.3394
 1594SOL     OW 5359   6.707   7.015   7.419  0.1573  0.2874 -0.5830
 1594SOL    HW1 5360   6.659   7.074   7.476  1.2660  0.7443 -0.1060
 1594SOL    HW2 5361   6.716   6.934   7.470 -0.6598 -0.0303 -0.9271
 1595SOL     OW 5362   0.178   3.187   3.671  0.0577 -0.0426 -0.2578
 1595SOL    HW1 5363   0.186   3.184   3.766 -0.3394  1.8260 -0.1235
 1595SOL    HW2 5364   0.260   3.226   3.640 -0.2373  0.3556 -0.5664
 1596SOL     OW 5365   2.642   5.017   6.939  0.3727  0.3531 -0.2146
 1596SOL    HW1 5366   2.569   4.956   6.933 -0.8008  1.5676  0.9670
 1596SOL    HW2 5367   2.720   4.962   6.942 -0.4063 -0.9561 -2.2483
 1597SOL     OW 5368   9.072   1.421   9.156  0.3092  0.1375 -0.1183
 1597SOL    HW1 5369   9.012   1.496   9.148 -0.2164 -0.1895  0.6873
 1597SOL    HW2 5370   9.154   1.460   9.185  0.2293  0.4814 -0.3437
 1598SOL     OW 5371   7.381   4.834   1.273  0.7860  0.0911  0.2647
 1598SOL    HW1 5372   7.302   4.781   1.260  1.4803 -0.7458 -0.6843
 1598SOL    HW2 5373   7.358   4.920   1.239  0.2300 -0.0984  0.1364
 1599SOL     OW 5374   2.692   4.348   3.729  0.5312  0.4482  1.0677
 1599SOL    HW1 5375   2.625   4.300   3.681  0.3387  0.6307  1.1489
 1599SOL    HW2 5376   2.760   4.284   3.746 -0.4243 -0.2159  2.5704
 1600SOL     OW 5377   6.543   7.126   9.699  0.0070  0.5324  0.3101
 1600SOL    HW1 5378   6.622   7.092   9.742 -1.2662 -2.7934  0.2711
 1600SOL    HW2 5379   6.472   7.108   9.761 -1.4590 -1.6675 -1.8376
 1601SOL     OW 5380   6.608   9.141   2.812 -0.2601 -0.2516  0.4257
 1601SOL    HW1 5381   6.567   9.085   2.878 -1.1327 -0.7724 -0.5358
 1601SOL    HW2 5382   6.554   9.221   2.812 -0.5090 -0.4152  0.0719
 1602SOL     OW 5383   6.400   2.713   2.898  0.6699 -0.2261  0.7480
 1602SOL    HW1 5384   6.360   2.798   2.883 -0.4650 -0.7395  0.7129
 1602SOL    HW2 5385   6.421   2.680   2.811  1.1619  0.0458  0.7655
 1603SOL     OW 5386   7.013   4.171   2.441  0.1525 -0.2527 -0.2650
 1603SOL    HW1 5387   7.068   4.241   2.478  1.6657 -0.5323 -1.8603
 1603SOL    HW2 5388   6.935   4.216   2.411  0.2108  0.4269  0.5333
 1604SOL     OW 5389   9.255   9.686   1.143 -0.3442  0.5416  0.0098
 1604SOL    HW1 5390   9.212   9.636   1.213  2.2731 -1.9749 -0.0311
 1604SOL    HW2 5391   9.318   9.741   1.188  2.4637 -2.2125 -0.2310
 1605SOL     OW 5392   1.604   6.594   2.518  0.1804  0.2289 -0.2162
 1605SOL    HW1 5393   1.675   6.577   2.456 -0.6124 -0.0480 -1.0711
 1605SOL    HW2 5394   1.551   6.515   2.516  0.6122 -0.1472  1.4978
 1606SOL     OW 5395   1.084   2.152   0.602  0.0379 -0.1062  0.1969
 1606SOL    HW1 5396   1.160   2.192   0.643 -1.0498  2.2473  0.0725
 1606SOL    HW2 5397   1.109   2.141   0.511  0.8104 -0.9705  0.4988
 1607SOL     OW 5398   9.214   3.040   1.206  0.5444 -0.0085 -0.0689
 1607SOL    HW1 5399   9.250   3.072   1.123  0.4659  1.9208  0.5949
 1607SOL    HW2 5400   9.171   3.117   1.245  0.6442 -0.8382  1.7946
 1608SOL     OW 5401   1.119   2.620   7.443 -0.4623  0.3437  0.2599
 1608SOL    HW1 5402   1.175   2.678   7.391 -2.6609  2.3455 -0.0637
 1608SOL    HW2 5403   1.131   2.650   7.533 -0.3984  0.2091  0.2969
 1609SOL     OW 5404   1.121   2.591   2.922 -0.0752  0.0242 -0.3181
 1609SOL    HW1 5405   1.146   2.509   2.966  0.6643  0.5001  0.1713
 1609SOL    HW2 5406   1.025   2.588   2.920 -0.0725 -0.6627  0.0671
 1610SOL     OW 5407   9.671   0.211   7.477 -0.1117  0.0995  0.1620
 1610SOL    HW1 5408   9.721   0.130   7.469 -0.6765 -0.0631 -2.7030
 1610SOL    HW2 5409   9.719   0.274   7.424  0.0200  1.5743  1.8993
 1611SOL     OW 5410   9.037   2.623   9.570  0.5351  0.4120  0.2344
 1611SOL    HW1 5411   9.073   2.710   9.586  1.2849 -0.0629  1.2689
 1611SOL    HW2 5412   9.004   2.594   9.655  1.4113 -0.7913  0.1986
 1612SOL     OW 5413   7.608   1.616   5.224 -0.0747  0.0813  0.2188
 1612SOL    HW1 5414   7.693   1.649   5.196 -0.4546  1.1139  0.2666
 1612SOL    HW2 5415   7.558   1.694   5.250 -0.7304 -0.5832  1.0378
 1613SOL     OW 5416   2.009   7.976   3.706  0.5728  0.5668  0.1753
 1613SOL    HW1 5417   2.093   7.932   3.713  1.1866  1.7795  0.5957
 1613SOL    HW2 5418   1.965   7.932   3.633  1.7123  0.1699 -0.2890
 1614SOL     OW 5419   4.229   3.848   9.261  0.4660  0.2380 -0.2787
 1614SOL    HW1 5420   4.226   3.776   9.323  1.3635  1.6980  1.5669
 1614SOL    HW2 5421   4.137   3.871   9.246  0.2056  0.9588  1.9639
 1615SOL     OW 5422   5.488   0.715   6.511  0.2192 -0.0865 -0.5621
 1615SOL    HW1 5423   5.484   0.628   6.472 -0.6090 -0.2118 -0.2062
 1615SOL    HW2 5424   5.462   0.774   6.440  1.8640 -0.0082 -1.1357
 1616SOL     OW 5425   7.577   2.943   9.652 -0.1916  0.3699  0.0158
 1616SOL    HW1 5426   7.493   2.989   9.662  1.0288  2.3073  2.0305
 1616SOL    HW2 5427   7.613   2.938   9.740  2.0787  0.0931 -0.8644
 1617SOL     OW 5428   2.718   3.151   1.317 -0.4979 -0.0519 -0.1145
 1617SOL    HW1 5429   2.802   3.131   1.277  0.0444 -0.9340  1.3862
 1617SOL    HW2 5430   2.680   3.065   1.338 -0.7933  0.3518  1.1291
 1618SOL     OW 5431   7.799   0.173   5.972 -0.8412  0.0751  0.0437
 1618SOL    HW1 5432   7.853   0.212   5.903 -0.7254 -0.8267 -0.3842
 1618SOL    HW2 5433   7.810   0.079   5.961  0.3201 -0.0997  2.1997
 1619SOL     OW 5434   3.863   9.172   9.506  0.2314 -0.0451  0.5206
 1619SOL    HW1 5435   3.795   9.234   9.532 -1.5963 -1.6751 -0.1370
 1619SOL    HW2 5436   3.888   9.200   9.418 -0.1484  0.1089  0.4608
 1620SOL     OW 5437   6.660   9.449   7.118 -0.2874  0.2296 -0.3500
 1620SOL    HW1 5438   6.599   9.428   7.188  0.0698  0.2858 -0.0226
 1620SOL    HW2 5439   6.739   9.480   7.162  0.4611 -1.0625 -0.7220
 1621SOL     OW 5440   4.620   4.346   9.881  0.1474  0.7025  0.4915
 1621SOL    HW1 5441   4.645   4.356   9.973 -0.3609  1.4385  0.5550
 1621SOL    HW2 5442   4.540   4.397   9.872  0.3259  0.8395 -0.4161
 1622SOL     OW 5443   6.810   6.948   2.555  0.0036  0.1332 -0.0816
 1622SOL    HW1 5444   6.868   7.022   2.538  0.2494  0.4986  2.0647
 1622SOL    HW2 5445   6.864   6.871   2.535  0.0437  0.4941 -1.4462
 1623SOL     OW 5446   6.119   6.974   9.851  0.4048 -0.0298  0.1737
 1623SOL    HW1 5447   6.122   6.892   9.802  0.2759  0.1989 -0.2235
 1623SOL    HW2 5448   6.036   7.014   9.826  1.1652  0.9720 -0.8797
 1624SOL     OW 5449   9.696   8.100   2.782 -0.7387 -0.0061  0.6954
 1624SOL    HW1 5450   9.643   8.037   2.734  0.2715 -0.7792  0.5408
 1624SOL    HW2 5451   9.647   8.118   2.862 -0.2640 -2.3731  1.5896
 1625SOL     OW 5452   0.086   5.096   2.264  0.6092 -0.2242 -0.1126
 1625SOL    HW1 5453   0.093   5.159   2.192  0.7634  0.7871  0.7696
 1625SOL    HW2 5454   0.173   5.094   2.302  0.5688 -0.8898 -0.0555
 1626SOL     OW 5455   0.824   2.579   9.290 -0.0124 -0.5566  0.0251
 1626SOL    HW1 5456   0.750   2.561   9.347 -0.4993 -1.9149 -0.9879
 1626SOL    HW2 5457   0.901   2.557   9.342 -0.2577  0.9770  1.1278
 1627SOL     OW 5458   2.337   7.564   4.732 -0.0900 -0.0074  0.0406
 1627SOL    HW1 5459   2.296   7.650   4.741 -0.2885 -0.2070  1.3251
 1627SOL    HW2 5460   2.289   7.521   4.662 -0.6592  0.5616  0.0756
 1628SOL     OW 5461   1.299   0.948   1.277  0.2886  0.0938 -0.9776
 1628SOL    HW1 5462   1.310   0.853   1.287 -0.4591 -0.1922 -2.6651
 1628SOL    HW2 5463   1.276   0.960   1.185 -1.5035  1.7331 -0.3711
 1629SOL     OW 5464   8.453   2.193   7.394 -0.6505  0.1725 -0.3293
 1629SOL    HW1 5465   8.483   2.176   7.483 -1.4426 -0.7477 -0.2130
 1629SOL    HW2 5466   8.533   2.204   7.343 -0.1685 -0.1200  0.3498
 1630SOL     OW 5467   0.462   1.490   8.422  0.2383  0.5318  0.2363
 1630SOL    HW1 5468   0.468   1.475   8.517  1.1724  1.0055  0.2645
 1630SOL    HW2 5469   0.411   1.570   8.414  2.6031  2.1927  0.5240
 1631SOL     OW 5470   0.840   1.037   3.115 -0.0966 -0.3667 -0.0426
 1631SOL    HW1 5471   0.851   1.004   3.203  0.9401  0.6058  0.2269
 1631SOL    HW2 5472   0.748   1.022   3.094 -0.4784 -0.1517  1.3918
 1632SOL     OW 5473   7.695   9.024   0.362  0.0705 -0.2842 -0.1889
 1632SOL    HW1 5474   7.778   8.990   0.329  1.2326  0.8446  1.4122
 1632SOL    HW2 5475   7.716   9.111   0.396 -1.4003 -0.6232  1.7854
 1633SOL     OW 5476   1.569   0.806   7.166 -0.0598  0.3822 -0.0738
 1633SOL    HW1 5477   1.618   0.851   7.234 -1.0691 -0.6434  1.3922
 1633SOL    HW2 5478   1.536   0.877   7.110 -1.2639  1.5140  1.9330
 1634SOL     OW 5479   3.236   1.302   7.570 -0.0229  0.4042  0.2347
 1634SOL    HW1 5480   3.188   1.260   7.499  0.7977 -0.4761  0.1764
 1634SOL    HW2 5481   3.326   1.311   7.537  0.3610  0.0237  1.1349
 1635SOL     OW 5482   2.704   5.000   8.264 -0.0508  0.2924 -0.5810
 1635SOL    HW1 5483   2.626   5.051   8.240 -0.5413  0.0075  0.3307
 1635SOL    HW2 5484   2.676   4.949   8.340  1.2807  0.8446  0.3255
 1636SOL     OW 5485   9.621   1.098   2.745  0.0661 -0.2945 -0.7445
 1636SOL    HW1 5486   9.630   1.175   2.801  2.5086 -1.6360  0.8678
 1636SOL    HW2 5487   9.526   1.091   2.731 -0.4149  1.7446  0.8406
 1637SOL     OW 5488   2.259   7.824   9.383  0.2008  0.2454  0.4388
 1637SOL    HW1 5489   2.232   7.793   9.296  1.1565  0.1167  0.1823
 1637SOL    HW2 5490   2.239   7.752   9.441 -1.3432  0.6851  0.4974
 1638SOL     OW 5491   2.105   4.039   2.007 -0.5768  0.1898 -0.0320
 1638SOL    HW1 5492   2.011   4.021   1.996 -1.0937  2.5322  0.0301
 1638SOL    HW2 5493   2.117   4.125   1.966  1.4590  0.1364  0.3898
 1639SOL     OW 5494   6.212   1.842   9.582 -0.3661  0.4249 -0.1508
 1639SOL    HW1 5495   6.258   1.869   9.503  0.1221  2.3618  0.7406
 1639SOL    HW2 5496   6.179   1.754   9.561 -0.1386  0.8128 -2.4217
 1640SOL     OW 5497   1.467   3.711   8.540 -0.5118  0.7300 -0.0397
 1640SOL    HW1 5498   1.497   3.802   8.537  1.9605 -0.0510 -0.8049
 1640SOL    HW2 5499   1.473   3.687   8.633  1.9569  0.4303 -0.2207
 1641SOL     OW 5500   3.651   1.534   3.218  0.4331 -0.2994  0.4469
 1641SOL    HW1 5501   3.699   1.612   3.191 -0.0775 -0.2526 -0.3597
 1641SOL    HW2 5502   3.587   1.520   3.149 -1.9274  0.6510  2.3020
 1642SOL     OW 5503   2.960   0.142   3.038  0.1312 -0.1357  0.0398
 1642SOL    HW1 5504   3.025   0.154   2.969 -0.7059 -1.3074 -1.0004
 1642SOL    HW2 5505   2.949   0.047   3.045 -1.3943  0.0341  0.2362
 1643SOL     OW 5506   5.613   6.937   8.294  0.1301 -0.1737  0.1290
 1643SOL    HW1 5507   5.540   6.986   8.256  0.8275  1.0088  0.2742
 1643SOL    HW2 5508   5.571   6.878   8.357 -0.5527  2.4311  2.2852
 1644SOL     OW 5509   5.030  -0.030   8.047 -0.3891 -0.1612  0.7064
 1644SOL    HW1 5510   5.108   0.019   8.020 -0.3262 -0.7566 -0.2242
 1644SOL    HW2 5511   4.966   0.038   8.068 -0.7055  0.3887 -1.6952
 1645SOL     OW 5512   9.310   1.090   8.641  0.1413 -0.1444  0.3225
 1645SOL    HW1 5513   9.325   1.060   8.552 -2.0657  1.5319 -0.7170
 1645SOL    HW2 5514   9.229   1.142   8.636 -0.7101 -0.9138  3.4976
 1646SOL     OW 5515   2.675   4.019   8.609  0.4890 -0.3637  0.4898
 1646SOL    HW1 5516   2.746   4.065   8.565  0.0230 -0.8876 -0.8653
 1646SOL    HW2 5517   2.716   3.941   8.646  1.2928  1.0835  2.8525
 1647SOL     OW 5518   7.736   8.571   5.212 -0.4504  0.1967 -0.1943
 1647SOL    HW1 5519   7.722   8.504   5.145 -0.3912 -0.2800  0.2604
 1647SOL    HW2 5520   7.675   8.641   5.189 -1.1711 -0.4081 -0.1623
 1648SOL     OW 5521   5.879   4.489   5.475 -0.5519 -0.1838  0.1738
 1648SOL    HW1 5522   5.862   4.490   5.569  2.3303 -3.2206  0.9178
 1648SOL    HW2 5523   5.955   4.546   5.464  0.0725 -1.0360 -0.0239
 1649SOL     OW 5524   2.525   2.945   3.241  0.0684 -0.4341 -0.2493
 1649SOL    HW1 5525   2.531   2.964   3.147  1.1272 -1.9234 -0.5246
 1649SOL    HW2 5526   2.434   2.920   3.254 -0.3236  0.7055 -0.6725
 1650SOL     OW 5527   6.798   2.950   6.026 -0.2845  0.3294 -0.0816
 1650SOL    HW1 5528   6.893   2.962   6.031 -0.3386  1.6844 -1.5382
 1650SOL    HW2 5529   6.763   3.038   6.025 -1.7546 -0.1336  2.3812
 1651SOL     OW 5530   1.375   9.791   5.670 -0.0146  0.1064  0.6514
 1651SOL    HW1 5531   1.374   9.816   5.578 -0.1897  0.5892  0.7763
 1651SOL    HW2 5532   1.457   9.827   5.704 -0.0335  0.0879  0.7183
 1652SOL     OW 5533   8.540   2.180   7.650  0.8727 -0.2603  0.5366
 1652SOL    HW1 5534   8.613   2.220   7.699 -0.4810  0.1266  2.3379
 1652SOL    HW2 5535   8.466   2.184   7.710 -1.2351  1.2778 -1.9481
 1653SOL     OW 5536   6.683   6.963   3.724 -0.7129  0.1415 -0.0686
 1653SOL    HW1 5537   6.597   6.957   3.767 -0.3255  0.9834  0.8739
 1653SOL    HW2 5538   6.730   7.028   3.776  0.8604 -1.0480  0.0421
 1654SOL     OW 5539   7.160   1.200   2.856  0.1520 -0.4572  0.2162
 1654SOL    HW1 5540   7.143   1.293   2.866 -1.4508 -0.5695 -0.9990
 1654SOL    HW2 5541   7.186   1.190   2.764 -0.4714 -1.3096  0.1219
 1655SOL     OW 5542   6.835   6.751   1.794  0.4217  0.2488  0.5305
 1655SOL    HW1 5543   6.840   6.672   1.847  1.2798  0.6973  1.1250
 1655SOL    HW2 5544   6.918   6.755   1.748 -0.4071 -0.2854 -1.1097
 1656SOL     OW 5545   6.492   3.539   0.135 -0.2999  0.1814 -0.3637
 1656SOL    HW1 5546   6.408   3.532   0.180 -0.0364 -2.7125 -0.1488
 1656SOL    HW2 5547   6.483   3.482   0.058  1.6445 -0.7187  0.0127
 1657SOL     OW 5548   6.520   8.931   7.519 -0.2146 -0.1741  0.1049
 1657SOL    HW1 5549   6.550   8.858   7.465  0.7081 -0.5924  1.1642
 1657SOL    HW2 5550   6.428   8.943   7.493  0.0943 -0.5904 -1.2921
 1658SOL     OW 5551   1.186   2.202   6.622  0.4566  0.5347 -0.0993
 1658SOL    HW1 5552   1.140   2.232   6.700 -2.0458  1.6261 -1.8588
 1658SOL    HW2 5553   1.196   2.108   6.634 -3.5012 -0.0466 -0.0902
 1659SOL     OW 5554   1.517   1.621   3.459 -0.1941  0.2558  0.1977
 1659SOL    HW1 5555   1.584   1.581   3.515 -0.9183 -0.3233  0.6858
 1659SOL    HW2 5556   1.451   1.552   3.449 -1.5421  1.3456  1.1621
 1660SOL     OW 5557   6.752   5.745   9.021  0.2010 -0.3390 -0.4209
 1660SOL    HW1 5558   6.689   5.750   9.092  0.9302 -0.1131  0.2242
 1660SOL    HW2 5559   6.789   5.656   9.027 -0.1253 -0.5100 -0.8653
 1661SOL     OW 5560   5.918   6.164   8.747 -0.3981 -0.1868  0.0993
 1661SOL    HW1 5561   5.925   6.238   8.687  3.1058 -1.1450 -0.8901
 1661SOL    HW2 5562   5.920   6.203   8.835 -0.2516  0.9649 -0.4072
 1662SOL     OW 5563   8.579   7.617   3.126 -0.1983 -0.1156  0.6998
 1662SOL    HW1 5564   8.499   7.579   3.090 -0.7832  0.8527  0.9219
 1662SOL    HW2 5565   8.649   7.583   3.071 -0.8118 -0.6446  0.2281
 1663SOL     OW 5566   8.493   1.320   2.901 -0.1269 -0.2932  0.2335
 1663SOL    HW1 5567   8.572   1.268   2.917 -0.4018 -1.2599 -1.3437
 1663SOL    HW2 5568   8.461   1.342   2.989  1.7626 -0.0392  0.9093
 1664SOL     OW 5569   2.283   8.494   1.524  0.1620 -0.7771  0.8413
 1664SOL    HW1 5570   2.274   8.460   1.435 -1.5176 -2.2966  1.5356
 1664SOL    HW2 5571   2.268   8.589   1.514  1.1819 -0.7288 -0.6167
 1665SOL     OW 5572   0.730   8.053   4.338 -0.2857  0.1100 -0.5741
 1665SOL    HW1 5573   0.707   7.989   4.406  1.8822  0.1704  0.2882
 1665SOL    HW2 5574   0.724   8.137   4.383 -1.0004  0.3374 -1.0939
 1666SOL     OW 5575   3.603   0.914   1.377 -0.2184 -0.1739  0.2479
 1666SOL    HW1 5576   3.617   0.841   1.437  0.1470 -1.2741 -1.1279
 1666SOL    HW2 5577   3.526   0.959   1.413  1.3987  0.7353  2.9179
 1667SOL     OW 5578   6.426   6.393   0.235 -0.1630 -0.5606  0.3740
 1667SOL    HW1 5579   6.445   6.364   0.324 -0.1141 -1.2132  0.1560
 1667SOL    HW2 5580   6.380   6.476   0.247  0.6257 -0.1928  0.9743
 1668SOL     OW 5581   1.961   5.273   4.657 -0.0507  0.6373 -0.0314
 1668SOL    HW1 5582   2.040   5.225   4.634  1.0707  2.8365 -1.1197
 1668SOL    HW2 5583   1.976   5.303   4.747 -0.7069 -0.8528  0.6094
 1669SOL     OW 5584   1.740   0.029   4.148 -0.0345 -0.1154 -0.0536
 1669SOL    HW1 5585   1.805  -0.041   4.144 -0.2021 -0.3611  1.1654
 1669SOL    HW2 5586   1.758   0.082   4.071  2.3979  0.5194  0.8466
 1670SOL     OW 5587   6.566   7.999   9.687 -0.0605 -0.1638  0.0744
 1670SOL    HW1 5588   6.593   7.924   9.740  0.0026 -1.2202 -1.3908
 1670SOL    HW2 5589   6.588   8.075   9.740  0.4775 -1.1570  1.3331
 1671SOL     OW 5590   4.821   4.502   4.394  0.2037  0.3713 -0.1477
 1671SOL    HW1 5591   4.822   4.417   4.437  0.4888  0.6502  0.3995
 1671SOL    HW2 5592   4.863   4.487   4.309  0.3658  0.0009 -0.0014
 1672SOL     OW 5593   7.618   5.696   2.453  0.4338  0.0904  0.3381
 1672SOL    HW1 5594   7.703   5.673   2.415 -1.0920 -1.5184 -2.4232
 1672SOL    HW2 5595   7.593   5.618   2.504  0.2676  0.2309  0.4730
 1673SOL     OW 5596   3.975   3.586   1.918 -0.1177 -0.0215  0.4516
 1673SOL    HW1 5597   3.927   3.667   1.935  0.0594  0.3509 -0.6986
 1673SOL    HW2 5598   4.033   3.608   1.844 -0.1232 -1.2182  0.0716
 1674SOL     OW 5599   2.001   8.427   3.183  0.5492 -0.3453  0.9413
 1674SOL    HW1 5600   1.977   8.386   3.101  1.2286 -0.0693  0.5956
 1674SOL    HW2 5601   2.029   8.355   3.240  2.1154 -0.3577  0.2095
 1675SOL     OW 5602   4.680   6.523   6.245  0.6004 -0.5896 -0.1287
 1675SOL    HW1 5603   4.694   6.579   6.169  4.4281 -0.3208  0.5735
 1675SOL    HW2 5604   4.650   6.583   6.314 -1.9079 -0.6778 -1.0274
 1676SOL     OW 5605   9.812   6.746   6.679  0.2340  0.0078  0.1212
 1676SOL    HW1 5606   9.851   6.738   6.592  1.4051 -0.1445  0.6408
 1676SOL    HW2 5607   9.885   6.767   6.736 -0.6835  1.1753  0.9175
 1677SOL     OW 5608   6.548   6.559   8.323 -0.2524 -0.6665  0.2099
 1677SOL    HW1 5609   6.465   6.519   8.295 -0.2341  0.0801 -0.9851
 1677SOL    HW2 5610   6.570   6.620   8.252  1.9035 -1.6517 -0.0512
 1678SOL     OW 5611   5.853   5.055   3.061 -0.1855  0.1738  0.5400
 1678SOL    HW1 5612   5.794   5.128   3.039  2.3434  2.1582 -0.1387
 1678SOL    HW2 5613   5.910   5.091   3.129  1.5388 -0.9751 -0.2479
 1679SOL     OW 5614   5.083   8.550   8.291 -0.2623  0.8034  0.3904
 1679SOL    HW1 5615   5.134   8.546   8.210 -1.0282  0.4610 -0.0892
 1679SOL    HW2 5616   5.064   8.458   8.311  1.0432  0.7906  1.6994
 1680SOL     OW 5617   9.746   9.641   5.928  0.0997  0.7727 -0.3736
 1680SOL    HW1 5618   9.707   9.697   5.995  0.3844  0.9134 -0.3261
 1680SOL    HW2 5619   9.800   9.700   5.876 -0.1723  0.6764 -0.7669
 1681SOL     OW 5620   5.024   9.009   7.670  0.0168 -0.0340 -0.1701
 1681SOL    HW1 5621   4.942   8.973   7.705  0.2070 -0.1077  0.2127
 1681SOL    HW2 5622   4.997   9.086   7.620 -0.3337 -0.3428 -0.4628
 1682SOL     OW 5623   1.402   2.403   7.506 -0.5296 -0.0155 -0.5676
 1682SOL    HW1 5624   1.491   2.439   7.506 -0.5697  0.0891 -0.0433
 1682SOL    HW2 5625   1.349   2.471   7.465 -0.6801  0.7257  0.8104
 1683SOL     OW 5626   8.700   3.574   3.654 -0.2050 -0.2151 -0.2165
 1683SOL    HW1 5627   8.781   3.623   3.645 -0.1964 -0.2859 -0.5314
 1683SOL    HW2 5628   8.655   3.585   3.570  0.8680 -2.6646 -1.2159
 1684SOL     OW 5629   7.826   0.329   3.183  0.0558  0.8155 -0.3427
 1684SOL    HW1 5630   7.840   0.237   3.208  1.0768  0.8683 -0.7101
 1684SOL    HW2 5631   7.789   0.369   3.262 -1.5548 -0.1675 -0.5521
 1685SOL     OW 5632   8.051   4.073   1.789 -0.1707  0.0546  0.0085
 1685SOL    HW1 5633   8.021   4.005   1.849 -0.0606  0.9809  1.1745
 1685SOL    HW2 5634   8.101   4.027   1.722 -0.1095 -1.0072  0.7603
 1686SOL     OW 5635   2.358   9.684   5.632 -0.0253  0.8408 -0.1867
 1686SOL    HW1 5636   2.400   9.606   5.666 -1.0187  0.0318 -0.7550
 1686SOL    HW2 5637   2.430   9.739   5.601  0.8280  1.0419  1.9700
 1687SOL     OW 5638   8.455   5.329   4.306  0.2547 -0.2773  0.3743
 1687SOL    HW1 5639   8.520   5.298   4.369 -2.0483 -2.3832  1.8582
 1687SOL    HW2 5640   8.411   5.250   4.275 -1.2665  1.0192 -0.9932
 1688SOL     OW 5641   3.491   7.478   9.034  0.1061  0.1488 -0.0610
 1688SOL    HW1 5642   3.516   7.568   9.057  1.9891 -0.2732 -0.2579
 1688SOL    HW2 5643   3.570   7.441   8.994 -0.3512 -1.8342  0.7425
 1689SOL     OW 5644   4.994   4.230   6.077 -0.0778  0.0758 -0.4205
 1689SOL    HW1 5645   4.994   4.183   6.160  2.3504  0.5451 -0.0808
 1689SOL    HW2 5646   4.994   4.323   6.101  0.0937  0.2185 -0.9466
 1690SOL     OW 5647   0.153   7.937   6.570  0.0145 -0.0857  0.0167
 1690SOL    HW1 5648   0.194   7.950   6.656  0.1863 -0.6147  0.0157
 1690SOL    HW2 5649   0.079   7.878   6.588  0.2039 -0.4010 -0.2423
 1691SOL     OW 5650   2.762   4.129   9.396  0.0822 -0.0767 -0.4783
 1691SOL    HW1 5651   2.797   4.067   9.332 -0.1435  0.8652 -1.5439
 1691SOL    HW2 5652   2.731   4.203   9.343 -0.9573  0.3265  0.6540
 1692SOL     OW 5653   9.278   9.067   7.036 -0.2276 -0.3565 -0.6065
 1692SOL    HW1 5654   9.229   9.104   6.963 -0.8822  0.2476  0.1207
 1692SOL    HW2 5655   9.219   9.002   7.075 -0.3615  0.1816  0.1096
 1693SOL     OW 5656   3.684   0.145   7.761 -0.7408  0.0581  0.3751
 1693SOL    HW1 5657   3.660   0.104   7.844 -0.1953 -1.6280 -0.2626
 1693SOL    HW2 5658   3.764   0.100   7.734 -1.0428  0.3959 -1.1968
 1694SOL     OW 5659   9.673   8.658   3.945  1.1245 -0.0573 -0.0813
 1694SOL    HW1 5660   9.721   8.639   4.026  0.0005  0.7768  0.8280
 1694SOL    HW2 5661   9.709   8.741   3.914 -1.1465  1.8481  1.8939
 1695SOL     OW 5662   4.974   9.629   7.081  0.1252 -0.1627  0.1439
 1695SOL    HW1 5663   5.023   9.565   7.133  0.9572  0.2225 -0.1565
 1695SOL    HW2 5664   5.041   9.682   7.038 -0.5320 -0.4244 -1.2816
 1696SOL     OW 5665   9.465   3.058   5.602  0.7426 -0.0137 -0.6725
 1696SOL    HW1 5666   9.447   3.081   5.510  1.2924  1.5441 -0.4185
 1696SOL    HW2 5667   9.536   2.994   5.597  1.8793  1.2316 -1.3180
 1697SOL     OW 5668   9.504   7.910   2.644 -0.5057  0.4751 -0.6517
 1697SOL    HW1 5669   9.425   7.943   2.686 -1.4670  0.3557 -2.3070
 1697SOL    HW2 5670   9.539   7.846   2.707 -0.5144  2.0505  1.0406
 1698SOL     OW 5671   4.684   1.992   2.651 -0.4099 -0.0551  0.2468
 1698SOL    HW1 5672   4.610   1.975   2.710 -1.7457  0.8928 -1.0685
 1698SOL    HW2 5673   4.667   2.080   2.617  1.5594  0.3317  0.1995
 1699SOL     OW 5674   2.961   3.619   0.635  0.0345 -0.4563  0.4771
 1699SOL    HW1 5675   3.005   3.621   0.550 -1.7061 -1.9769 -0.5470
 1699SOL    HW2 5676   3.014   3.560   0.688 -0.0520 -1.2680 -0.3145
 1700SOL     OW 5677   2.584   5.434   6.993  0.1223  0.1349 -0.2622
 1700SOL    HW1 5678   2.599   5.522   6.957 -0.3096  0.2995 -0.0500
 1700SOL    HW2 5679   2.499   5.408   6.957 -1.0741  0.9182  1.7659
 1701SOL     OW 5680   4.955   4.198   3.528 -0.1278  0.1623  0.0847
 1701SOL    HW1 5681   4.943   4.116   3.479  0.2033 -0.2829  0.7353
 1701SOL    HW2 5682   5.034   4.237   3.490  1.4832 -1.3057  1.7292
 1702SOL     OW 5683   7.862   5.514   3.597 -0.0929 -0.1087  0.1443
 1702SOL    HW1 5684   7.822   5.427   3.606  1.0252 -0.5506  1.1087
 1702SOL    HW2 5685   7.816   5.554   3.523 -0.2469 -1.7467 -0.7028
 1703SOL     OW 5686   2.563   7.869   2.375  0.5876 -0.2027  0.1576
 1703SOL    HW1 5687   2.586   7.823   2.294  0.1171  0.1557 -0.1835
 1703SOL    HW2 5688   2.510   7.806   2.424  0.5631 -0.2862  0.0243
 1704SOL     OW 5689   3.783   2.401   2.106  0.1649 -0.1589 -0.7771
 1704SOL    HW1 5690   3.756   2.411   2.015  1.2801  2.3178 -0.9243
 1704SOL    HW2 5691   3.709   2.435   2.157  0.3456  0.3724 -0.8650
 1705SOL     OW 5692   5.926   0.360   2.742  0.0829  0.1328  0.3309
 1705SOL    HW1 5693   5.896   0.271   2.763  0.4104  0.0054  0.2731
 1705SOL    HW2 5694   6.009   0.368   2.789  0.3330  0.2017 -0.1175
 1706SOL     OW 5695   9.262   2.487   1.294  0.5063 -0.1880 -0.0790
 1706SOL    HW1 5696   9.301   2.414   1.246  1.6853  0.5205 -0.2367
 1706SOL    HW2 5697   9.323   2.502   1.367  0.1182  0.4460  0.1199
 1707SOL     OW 5698   3.334   4.271   1.443 -1.0672  0.1282 -0.2670
 1707SOL    HW1 5699   3.396   4.199   1.443  0.0424  1.0470  0.6697
 1707SOL    HW2 5700   3.374   4.337   1.387 -1.7389  0.3043 -0.5474
 1708SOL     OW 5701   4.320   6.860   6.900  0.0237 -0.3444 -0.1010
 1708SOL    HW1 5702   4.228   6.884   6.891  0.1990  0.3355 -0.1620
 1708SOL    HW2 5703   4.325   6.808   6.980 -0.5148 -0.9523 -0.4488
 1709SOL     OW 5704   1.618   5.729   9.866  0.0382 -0.3602 -0.1196
 1709SOL    HW1 5705   1.683   5.734   9.937 -2.4381  0.2158  2.3002
 1709SOL    HW2 5706   1.612   5.636   9.845  0.3924 -0.6333  0.9036
 1710SOL     OW 5707   1.698   8.606   9.854 -0.1703 -0.0611  0.5253
 1710SOL    HW1 5708   1.761   8.560   9.797  0.7752  0.2006  1.3316
 1710SOL    HW2 5709   1.614   8.566   9.832  0.1661 -0.0268 -0.9963
 1711SOL     OW 5710   3.639   4.276   5.474  0.0162  0.2948  0.1360
 1711SOL    HW1 5711   3.684   4.211   5.529 -0.1966  0.3672  0.3983
 1711SOL    HW2 5712   3.661   4.251   5.384 -0.2854 -0.3088  0.2229
 1712SOL     OW 5713   1.409   4.977   2.408 -0.0037  0.3906 -0.3907
 1712SOL    HW1 5714   1.384   4.890   2.375  2.1052 -0.0052 -1.0623
 1712SOL    HW2 5715   1.471   4.960   2.478 -2.0640  1.3390  1.8276
 1713SOL     OW 5716   3.493   8.267   6.679 -0.1833 -0.1563 -0.2507
 1713SOL    HW1 5717   3.572   8.227   6.644  1.0651  1.6146  0.4260
 1713SOL    HW2 5718   3.494   8.245   6.772  0.3690  1.1466  0.0716
 1714SOL     OW 5719   3.792   8.177   6.836 -0.0935 -0.2821  0.6466
 1714SOL    HW1 5720   3.759   8.088   6.849 -1.1861  0.0046 -0.0317
 1714SOL    HW2 5721   3.803   8.185   6.742  0.3367  0.1915  0.7334
 1715SOL     OW 5722   8.636   1.671   3.695  0.2419 -0.2925  0.6960
 1715SOL    HW1 5723   8.709   1.732   3.704 -0.1018  0.4239 -0.9029
 1715SOL    HW2 5724   8.566   1.708   3.749  0.5882 -0.2054  1.0917
 1716SOL     OW 5725   1.010   3.384   0.279  0.2698 -0.8725 -0.3338
 1716SOL    HW1 5726   1.003   3.467   0.231  0.4123 -1.1504 -0.8469
 1716SOL    HW2 5727   1.066   3.405   0.354  0.5910 -0.5785 -0.6452
 1717SOL     OW 5728   1.842   2.954   0.209  0.6466  0.2652  0.5747
 1717SOL    HW1 5729   1.781   2.971   0.137  1.7400 -0.7641 -0.6471
 1717SOL    HW2 5730   1.923   2.928   0.166  1.6759  0.7047  2.1843
 1718SOL     OW 5731   7.363   9.737   5.556 -0.1918  0.0715 -0.0577
 1718SOL    HW1 5732   7.349   9.831   5.571 -2.2880  0.0102 -1.2521
 1718SOL    HW2 5733   7.457   9.724   5.571  0.1197  2.3220  0.2856
 1719SOL     OW 5734   6.397   4.691   9.388 -0.3571 -0.3173 -0.1689
 1719SOL    HW1 5735   6.326   4.634   9.358 -0.3446  0.4256 -1.7363
 1719SOL    HW2 5736   6.443   4.640   9.454 -1.7346 -1.2039  0.1406
 1720SOL     OW 5737   9.261   3.946   0.999 -0.4903  0.8478 -0.9898
 1720SOL    HW1 5738   9.228   3.962   0.910  3.2147  0.4599 -2.6138
 1720SOL    HW2 5739   9.336   4.005   1.008 -0.8381  0.9949  2.0274
 1721SOL     OW 5740   7.021   6.894   4.281  0.0259 -0.1342  0.0663
 1721SOL    HW1 5741   7.087   6.953   4.317  2.0966 -0.9892 -2.0792
 1721SOL    HW2 5742   6.937   6.938   4.297  1.2187  1.7295  1.4929
 1722SOL     OW 5743   0.579   3.521   3.735 -0.1957 -0.2121  0.6498
 1722SOL    HW1 5744   0.644   3.456   3.708  0.5937  1.3681 -1.5816
 1722SOL    HW2 5745   0.631   3.600   3.752 -1.4885  1.2347 -1.6823
 1723SOL     OW 5746   1.268   3.413   8.214  0.2579  0.1343  0.7741
 1723SOL    HW1 5747   1.354   3.372   8.204  0.5659  1.2970 -2.5801
 1723SOL    HW2 5748   1.280   3.476   8.285  1.7622 -0.7245  1.3174
 1724SOL     OW 5749   2.279   1.017   2.516 -0.4849  0.8184 -0.5187
 1724SOL    HW1 5750   2.221   1.036   2.590 -1.1408 -0.2837 -0.7394
 1724SOL    HW2 5751   2.332   0.943   2.546 -0.4307  0.6707 -0.9744
 1725SOL     OW 5752   5.666   1.798   7.709  0.6633  0.1017 -0.4512
 1725SOL    HW1 5753   5.609   1.830   7.778  1.5086  0.5867  0.0383
 1725SOL    HW2 5754   5.753   1.833   7.731  1.8981 -3.2303  0.6824
 1726SOL     OW 5755   0.632   6.344   0.343  0.0920 -0.5040  0.0520
 1726SOL    HW1 5756   0.659   6.264   0.388 -0.0455 -1.2321 -1.1194
 1726SOL    HW2 5757   0.701   6.361   0.279 -0.5077 -0.4166 -0.5870
 1727SOL     OW 5758   2.696   3.445   4.790  0.0976  0.0278  0.1176
 1727SOL    HW1 5759   2.709   3.500   4.867 -0.3579  0.3357 -0.0211
 1727SOL    HW2 5760   2.757   3.372   4.802  0.1405  0.1530  0.6886
 1728SOL     OW 5761   0.611   7.254   0.129 -0.2340 -0.2301 -0.4479
 1728SOL    HW1 5762   0.627   7.164   0.099  0.7211 -0.9076  1.8849
 1728SOL    HW2 5763   0.688   7.275   0.182 -0.8312  1.6916 -0.2838
 1729SOL     OW 5764   9.010   0.248   2.893 -0.6246  0.5566 -0.9338
 1729SOL    HW1 5765   9.066   0.326   2.891  0.0310  0.1004 -0.7492
 1729SOL    HW2 5766   9.000   0.228   2.986  0.9094 -0.7660 -1.0184
 1730SOL     OW 5767   3.811   8.739   3.286  0.0370 -0.2414  0.5302
 1730SOL    HW1 5768   3.823   8.655   3.241 -1.0748  0.0915 -0.4349
 1730SOL    HW2 5769   3.739   8.782   3.239  1.2185  1.6868  0.3619
 1731SOL     OW 5770   9.068   0.186   7.251  0.1709 -0.0230  0.5316
 1731SOL    HW1 5771   8.980   0.153   7.271 -0.0011  0.8319  1.2398
 1731SOL    HW2 5772   9.102   0.214   7.335  0.7462  0.5645  0.1085
 1732SOL     OW 5773   8.010   6.904   2.641  1.0400 -0.6284 -0.3561
 1732SOL    HW1 5774   8.042   6.973   2.583  0.7531 -0.1532  0.0437
 1732SOL    HW2 5775   8.087   6.852   2.661  1.0933 -0.9823 -1.3970
 1733SOL     OW 5776   8.843   0.923   7.796 -0.0376 -0.8224  0.2871
 1733SOL    HW1 5777   8.853   1.006   7.748 -0.1312 -0.3044  1.1338
 1733SOL    HW2 5778   8.749   0.911   7.803 -0.1273  0.7541  3.0228
 1734SOL     OW 5779   0.871   2.049   8.400 -0.1085  0.4770  0.9401
 1734SOL    HW1 5780   0.822   2.053   8.318  0.2898 -0.9552  0.6076
 1734SOL    HW2 5781   0.877   1.956   8.420  0.3777  0.7696  2.2551
 1735SOL     OW 5782   7.198   6.599   3.976 -0.1495 -0.0725  0.3269
 1735SOL    HW1 5783   7.142   6.629   3.904 -0.4184 -1.0116  0.1323
 1735SOL    HW2 5784   7.156   6.634   4.055 -1.3642 -1.2481  0.2359
 1736SOL     OW 5785   1.835   8.048   9.497  0.0919 -0.0458  0.4936
 1736SOL    HW1 5786   1.903   7.981   9.492 -0.2979 -0.5048  1.1239
 1736SOL    HW2 5787   1.876   8.127   9.463  0.3313 -0.7749 -1.0005
 1737SOL     OW 5788   8.654   0.835   5.009 -0.2451 -0.1654 -0.2205
 1737SOL    HW1 5789   8.598   0.790   5.072 -1.4588  2.2043  0.5253
 1737SOL    HW2 5790   8.614   0.921   4.998  1.7968  0.6889 -1.7234
 1738SOL     OW 5791   9.030   6.680   0.437  0.0720  0.6357  0.1276
 1738SOL    HW1 5792   9.106   6.737   0.447  0.1153  0.4704  0.7786
 1738SOL    HW2 5793   8.974   6.700   0.513 -0.9845  1.4220 -0.8223
 1739SOL     OW 5794   6.332   1.495   9.820  0.2385 -0.0520 -0.2682
 1739SOL    HW1 5795   6.289   1.444   9.752  1.0185  1.0316 -1.6130
 1739SOL    HW2 5796   6.364   1.429   9.883 -1.3121 -0.9971 -0.4252
 1740SOL     OW 5797   7.518   4.603   9.632  0.0198  0.3165  0.8735
 1740SOL    HW1 5798   7.589   4.539   9.634 -0.6434 -0.5057 -0.5223
 1740SOL    HW2 5799   7.555   4.679   9.586 -0.0351 -0.1501  0.0548
 1741SOL     OW 5800   1.274   6.928   9.760 -0.0153 -0.5164  0.1480
 1741SOL    HW1 5801   1.271   6.833   9.749  1.2776 -0.5667  0.0682
 1741SOL    HW2 5802   1.366   6.951   9.745 -0.7771  1.1100 -2.5726
 1742SOL     OW 5803   1.884   3.871   1.959  0.0712  0.6246 -0.1178
 1742SOL    HW1 5804   1.926   3.790   1.987 -2.1065 -0.8809 -0.8992
 1742SOL    HW2 5805   1.810   3.881   2.019 -1.8772 -0.1035 -2.2320
 1743SOL     OW 5806   5.223   3.004   8.793  0.2593  0.0633 -0.0825
 1743SOL    HW1 5807   5.284   3.075   8.776 -0.0610  1.2375  3.0182
 1743SOL    HW2 5808   5.259   2.960   8.871 -1.2001 -1.2254 -0.0871
 1744SOL     OW 5809   3.752   1.503   7.249 -0.1153  0.0698 -0.3494
 1744SOL    HW1 5810   3.720   1.439   7.185  0.0299  1.1157 -1.5177
 1744SOL    HW2 5811   3.804   1.451   7.311 -2.0689 -1.3025  0.2412
 1745SOL     OW 5812   7.055   5.946   9.333 -0.4751 -0.3340 -0.0017
 1745SOL    HW1 5813   6.992   5.884   9.369  1.5502 -1.8606  1.0915
 1745SOL    HW2 5814   7.030   5.955   9.241 -1.3281 -2.1218  0.0131
 1746SOL     OW 5815   9.017   4.441   5.369 -0.0824  0.0212  0.6727
 1746SOL    HW1 5816   9.035   4.506   5.437  1.4503  0.3534 -0.0087
 1746SOL    HW2 5817   9.054   4.360   5.403 -1.7275 -0.4774  1.3891
 1747SOL     OW 5818   0.556   4.804   8.822 -0.0126  0.2222 -0.2445
 1747SOL    HW1 5819   0.477   4.832   8.868  0.6643  4.4169 -1.2124
 1747SOL    HW2 5820   0.619   4.787   8.892 -0.6795  0.5935  0.4725
 1748SOL     OW 5821   3.230   8.288   6.573  0.3958  0.5632  0.0795
 1748SOL    HW1 5822   3.316   8.268   6.610 -0.3773 -1.1143  1.1225
 1748SOL    HW2 5823   3.225   8.234   6.494 -0.2454 -0.5525  0.8491
 1749SOL     OW 5824   1.056   7.149   4.971 -0.5576  0.1038 -0.5243
 1749SOL    HW1 5825   1.038   7.085   5.039 -0.0545 -0.9883 -1.3902
 1749SOL    HW2 5826   1.062   7.233   5.018 -1.7093 -0.3877  0.5574
 1750SOL     OW 5827   5.370   3.366   8.987  0.2563 -0.5065  0.1167
 1750SOL    HW1 5828   5.420   3.447   8.994 -2.1902  1.2065 -0.8464
 1750SOL    HW2 5829   5.409   3.320   8.913  0.3748  0.8195 -0.6770
 1751SOL     OW 5830   1.822   4.060   6.065  0.0600  0.1814 -0.0605
 1751SOL    HW1 5831   1.916   4.051   6.078 -0.0075  0.2567  0.5055
 1751SOL    HW2 5832   1.783   4.037   6.149 -0.2890  2.8152  0.5919
 1752SOL     OW 5833   5.317   2.671   2.897 -0.6398  0.3098 -0.3243
 1752SOL    HW1 5834   5.246   2.694   2.957 -0.1639 -3.3557  2.0390
 1752SOL    HW2 5835   5.395   2.668   2.953 -0.2057 -3.5061 -0.8400
 1753SOL     OW 5836   4.898   6.131   4.118 -0.3608  0.4717  0.1922
 1753SOL    HW1 5837   4.968   6.166   4.172 -1.4533  1.9468  0.6926
 1753SOL    HW2 5838   4.931   6.139   4.028  0.8141 -0.5318  0.5048
 1754SOL     OW 5839   9.290   5.355   7.001 -0.2842  0.2250 -0.6081
 1754SOL    HW1 5840   9.344   5.430   7.024  0.5860 -0.0654 -1.6380
 1754SOL    HW2 5841   9.266   5.316   7.085 -1.4771  2.1280 -0.0075
 1755SOL     OW 5842   0.416   4.474   9.564  0.3549 -0.2938 -0.2818
 1755SOL    HW1 5843   0.456   4.443   9.645 -0.6161 -0.6148  0.0844
 1755SOL    HW2 5844   0.438   4.568   9.561  1.1316 -0.4619 -0.1000
 1756SOL     OW 5845   5.974   0.993   0.496  0.3006 -0.0384  0.2467
 1756SOL    HW1 5846   6.003   1.008   0.586 -1.0861 -1.9017  1.0815
 1756SOL    HW2 5847   5.984   0.898   0.483 -2.5792 -0.3688 -0.3307
 1757SOL     OW 5848   6.039   8.193   6.081  0.2845  0.6178  0.1719
 1757SOL    HW1 5849   6.089   8.154   6.152  1.4024 -1.0136 -1.4484
 1757SOL    HW2 5850   5.975   8.127   6.056 -1.8980  2.1589  1.3039
 1758SOL     OW 5851   4.575   3.475   3.826 -0.2217 -0.0878 -0.1951
 1758SOL    HW1 5852   4.660   3.460   3.786  0.3098  0.7528  0.5564
 1758SOL    HW2 5853   4.512   3.450   3.759  0.6050 -1.0264 -0.6561
 1759SOL     OW 5854   6.547   0.326   5.009 -0.5923 -0.1230 -0.4561
 1759SOL    HW1 5855   6.475   0.371   4.965 -0.2103  0.3442 -0.6119
 1759SOL    HW2 5856   6.506   0.284   5.086 -0.8559  0.9873  0.0271
 1760SOL     OW 5857   8.443   6.278   2.623 -0.3123 -0.6357 -0.0209
 1760SOL    HW1 5858   8.500   6.351   2.597 -0.2025 -0.9699 -0.7354
 1760SOL    HW2 5859   8.357   6.318   2.633 -0.0471 -0.2066  0.6588
 1761SOL     OW 5860   6.439   1.891   1.464  0.6213 -0.4031 -0.1505
 1761SOL    HW1 5861   6.377   1.964   1.459  3.1295  1.8221 -0.8283
 1761SOL    HW2 5862   6.429   1.857   1.552 -1.3879  0.0052 -0.1764
 1762SOL     OW 5863   5.995   4.215   2.104  0.1641 -0.1189  0.1361
 1762SOL    HW1 5864   6.056   4.279   2.141  2.0158 -1.9719  0.4651
 1762SOL    HW2 5865   6.045   4.173   2.034 -1.1774 -0.8938 -0.3847
 1763SOL     OW 5866   7.877   9.737   3.631 -0.2407  0.2892  0.0184
 1763SOL    HW1 5867   7.829   9.766   3.708 -1.3950  0.8712 -0.8681
 1763SOL    HW2 5868   7.937   9.809   3.611 -2.1292  1.5807 -1.3781
 1764SOL     OW 5869   2.126   3.431   2.705 -0.4958 -0.1665 -0.6775
 1764SOL    HW1 5870   2.150   3.343   2.675  2.0826  0.2387  0.0262
 1764SOL    HW2 5871   2.032   3.437   2.687 -0.8124 -3.1620 -0.4877
 1765SOL     OW 5872   8.331   4.850   6.075  0.1132 -0.1140  0.0623
 1765SOL    HW1 5873   8.409   4.795   6.077 -0.4295 -0.8978  1.8704
 1765SOL    HW2 5874   8.327   4.884   5.986  1.0480 -2.1730 -0.8201
 1766SOL     OW 5875   9.175   1.688   7.456  0.4730 -0.1161 -0.1438
 1766SOL    HW1 5876   9.185   1.641   7.539 -0.3121 -1.6859 -0.9089
 1766SOL    HW2 5877   9.240   1.649   7.398  0.7480  0.7049 -0.4017
 1767SOL     OW 5878   5.556   3.974   3.199 -0.1581  0.3287 -0.2805
 1767SOL    HW1 5879   5.506   3.931   3.268 -0.5682  0.7239 -0.3277
 1767SOL    HW2 5880   5.491   4.002   3.135  0.1227  0.7864 -0.3761
 1768SOL     OW 5881   6.369   7.697   4.609  0.1427 -0.0543  0.0718
 1768SOL    HW1 5882   6.280   7.666   4.588 -0.2785  1.0961  0.0932
 1768SOL    HW2 5883   6.419   7.617   4.625 -0.6525 -0.7692 -0.8781
 1769SOL     OW 5884   3.849   0.295   6.485  0.0262  0.2608 -0.4810
 1769SOL    HW1 5885   3.792   0.271   6.412 -1.1008  1.8390 -0.1522
 1769SOL    HW2 5886   3.936   0.305   6.445 -0.3594  0.0180 -1.3921
 1770SOL     OW 5887   3.990   0.450   4.595  0.4217  0.6849 -0.2074
 1770SOL    HW1 5888   3.927   0.495   4.540 -0.2887 -1.8115 -1.6101
 1770SOL    HW2 5889   3.960   0.467   4.685 -2.4456 -0.5637 -0.8238
 1771SOL     OW 5890   4.731   6.925   6.544  0.3429  0.4417 -0.4451
 1771SOL    HW1 5891   4.826   6.912   6.546  0.4030  0.7427 -1.0510
 1771SOL    HW2 5892   4.718   7.001   6.487 -0.2612  0.4160 -0.3515
 1772SOL     OW 5893   8.621   3.670   4.647 -0.3092 -0.7229 -0.5906
 1772SOL    HW1 5894   8.687   3.641   4.584  0.5630  0.5513 -0.2945
 1772SOL    HW2 5895   8.561   3.725   4.596  0.7498  0.8250 -0.2358
 1773SOL     OW 5896   6.083   1.273   8.255 -0.0106  0.9388 -0.0998
 1773SOL    HW1 5897   6.119   1.201   8.203  1.3563 -0.4108  2.5189
 1773SOL    HW2 5898   5.989   1.267   8.242  0.2068 -0.0900 -1.4219
 1774SOL     OW 5899   0.016   2.541   1.035  0.3181 -0.4609  0.1447
 1774SOL    HW1 5900   0.076   2.609   1.006 -1.0348 -0.4011 -2.8435
 1774SOL    HW2 5901  -0.057   2.589   1.075  0.9951 -0.4065  1.3654
 1775SOL     OW 5902   4.568   9.963   1.589 -0.0097 -0.0595  0.2740
 1775SOL    HW1 5903   4.598   9.902   1.656  1.0156 -2.0685 -1.8393
 1775SOL    HW2 5904   4.575  10.049   1.629  1.5574 -1.0870  2.3752
 1776SOL     OW 5905   4.981   6.809   2.945 -0.4722 -0.4389  0.3385
 1776SOL    HW1 5906   5.026   6.771   3.020 -0.0745 -1.1521 -0.2393
 1776SOL    HW2 5907   5.037   6.882   2.918  0.5828 -1.5429 -0.5996
 1777SOL     OW 5908   8.357   8.873   0.518 -0.6270 -0.7237 -0.6339
 1777SOL    HW1 5909   8.309   8.799   0.555 -0.1136 -0.4885  0.5785
 1777SOL    HW2 5910   8.392   8.919   0.595  0.2286 -0.0208 -1.4200
 1778SOL     OW 5911   4.231   4.685   8.649 -0.2047  0.5112 -0.1279
 1778SOL    HW1 5912   4.142   4.664   8.677  0.1685 -1.0813 -0.0204
 1778SOL    HW2 5913   4.274   4.719   8.728 -0.9728  2.2467 -0.4253
 1779SOL     OW 5914   3.719   5.552   5.220 -0.4975 -0.3305 -0.8212
 1779SOL    HW1 5915   3.753   5.476   5.266  0.9351  0.6279 -0.1922
 1779SOL    HW2 5916   3.740   5.536   5.128  0.8344 -0.2147 -0.5594
 1780SOL     OW 5917   0.342   8.992   2.441  0.5350 -0.1847 -0.0415
 1780SOL    HW1 5918   0.342   8.931   2.368  2.0307  0.1178 -0.3274
 1780SOL    HW2 5919   0.433   8.994   2.471  0.3436  1.1888  0.5508
 1781SOL     OW 5920   0.698   5.973   6.274  0.3084 -0.2170 -0.1941
 1781SOL    HW1 5921   0.747   6.042   6.230 -0.5652 -1.1328 -2.8296
 1781SOL    HW2 5922   0.763   5.925   6.324  1.1864  1.5354  0.4019
 1782SOL     OW 5923   1.970   7.832   9.515  0.1221 -0.3941  0.5701
 1782SOL    HW1 5924   1.963   7.790   9.429  1.2637 -0.2152  0.3707
 1782SOL    HW2 5925   1.996   7.761   9.574  1.7413 -0.0770  0.2911
 1783SOL     OW 5926   1.162   8.976   8.673 -0.3944 -0.4130  0.1428
 1783SOL    HW1 5927   1.140   8.983   8.580 -0.8309  0.7469  0.3134
 1783SOL    HW2 5928   1.181   9.066   8.700 -0.1485 -0.7536  1.1476
 1784SOL     OW 5929   0.636   2.259   9.203 -0.3631  0.3052 -0.1480
 1784SOL    HW1 5930   0.723   2.287   9.176  0.2649 -0.4397  1.0176
 1784SOL    HW2 5931   0.598   2.219   9.125  0.7078 -0.2173 -0.4092
 1785SOL     OW 5932   2.523   3.352   1.952  0.2903 -0.3394  0.1054
 1785SOL    HW1 5933   2.550   3.307   2.031 -1.7137 -0.9737  0.4898
 1785SOL    HW2 5934   2.574   3.433   1.951 -0.9032  0.5777  3.0363
 1786SOL     OW 5935   1.350   9.041   9.791 -0.1438 -0.1031  1.2338
 1786SOL    HW1 5936   1.290   9.082   9.729  0.8893  0.5708  0.6553
 1786SOL    HW2 5937   1.350   9.100   9.867 -1.0400 -0.6779  1.6940
 1787SOL     OW 5938   5.964   6.910   7.221 -0.1961 -0.1568  0.3080
 1787SOL    HW1 5939   5.972   6.866   7.305  0.1648 -1.1844 -0.2540
 1787SOL    HW2 5940   5.998   6.998   7.236  1.8105 -0.9651  0.7291
 1788SOL     OW 5941   3.546   5.575   9.031 -0.2352 -0.4962  0.8273
 1788SOL    HW1 5942   3.555   5.550   8.939 -0.6824  0.0469  0.6325
 1788SOL    HW2 5943   3.592   5.658   9.038 -0.6841 -0.2592  0.9663
 1789SOL     OW 5944   2.441   2.300   6.718 -0.6742  0.6364 -0.3058
 1789SOL    HW1 5945   2.399   2.287   6.633 -1.0321 -0.0803 -0.0272
 1789SOL    HW2 5946   2.518   2.242   6.715  0.1082  1.6694 -0.6769
 1790SOL     OW 5947   6.286   5.162   2.173  0.4593  0.0095  0.2099
 1790SOL    HW1 5948   6.300   5.198   2.085 -0.2053 -0.4578 -0.0969
 1790SOL    HW2 5949   6.215   5.098   2.162 -0.3800  0.7213  1.2872
 1791SOL     OW 5950   0.553   0.772   8.441 -0.1470 -0.0082 -0.5983
 1791SOL    HW1 5951   0.561   0.702   8.506 -0.0543 -0.5789 -1.2112
 1791SOL    HW2 5952   0.539   0.726   8.358  1.5735  0.6112 -1.2817
 1792SOL     OW 5953   8.958   3.282   1.874 -0.2056 -0.3032 -0.5300
 1792SOL    HW1 5954   8.967   3.368   1.914  1.8571 -1.3468  1.4729
 1792SOL    HW2 5955   9.043   3.265   1.834 -0.0294 -2.0316  0.4892
 1793SOL     OW 5956   0.032   4.516   5.441  0.6198  0.0799  0.1963
 1793SOL    HW1 5957   0.003   4.555   5.359  0.2375 -0.1977  0.1965
 1793SOL    HW2 5958   0.083   4.584   5.484  0.2479  0.4562  0.0400
 1794SOL     OW 5959   4.842   4.919   4.363  0.9739  0.7070  0.5104
 1794SOL    HW1 5960   4.785   4.965   4.300  1.1829  1.2793  0.7313
 1794SOL    HW2 5961   4.797   4.836   4.379  0.2211  1.1303  0.6469
 1795SOL     OW 5962   3.355   1.656   9.168 -0.0494  0.1032 -0.4936
 1795SOL    HW1 5963   3.353   1.595   9.242 -0.5819  0.9967  0.2459
 1795SOL    HW2 5964   3.286   1.625   9.110 -1.2708  0.7975  0.5492
 1796SOL     OW 5965   9.384   2.243   7.000  0.0608  0.2595  0.4039
 1796SOL    HW1 5966   9.431   2.169   6.961 -2.0001 -0.6514 -0.4892
 1796SOL    HW2 5967   9.351   2.208   7.083  0.6749  0.8076  0.8929
 1797SOL     OW 5968   5.393   7.088   0.352 -0.0737 -0.3906  0.3665
 1797SOL    HW1 5969   5.428   7.142   0.280  1.6777 -1.2830  0.4934
 1797SOL    HW2 5970   5.320   7.139   0.387  0.1256  0.8576 -0.9481
 1798SOL     OW 5971   9.087   7.422   5.287  0.4703  0.2657  0.2928
 1798SOL    HW1 5972   8.997   7.423   5.321  0.2391  1.2675 -0.3092
 1798SOL    HW2 5973   9.122   7.338   5.317  0.0899  0.8129  2.4882
 1799SOL     OW 5974   4.561   6.712   8.455  0.6971  0.5239 -0.6772
 1799SOL    HW1 5975   4.518   6.792   8.425  0.7010  0.7044 -0.2087
 1799SOL    HW2 5976   4.489   6.656   8.484  0.8363  1.4903  1.7351
 1800SOL     OW 5977   9.081   2.001   5.456  0.2915 -0.6918  0.8278
 1800SOL    HW1 5978   9.000   1.989   5.505 -0.7987  0.0039 -0.7187
 1800SOL    HW2 5979   9.070   1.946   5.378  1.9011 -1.6422  1.2240
 1801SOL     OW 5980   8.559   8.801   7.676  0.4387  0.1960  0.4394
 1801SOL    HW1 5981   8.580   8.849   7.597 -1.0835 -0.5145 -0.4478
 1801SOL    HW2 5982   8.463   8.807   7.683  0.4974 -0.1195  1.9879
 1802SOL     OW 5983   9.490   1.259   5.152  0.0361  0.6697  0.3944
 1802SOL    HW1 5984   9.561   1.280   5.091 -1.6319  0.4865 -1.7162
 1802SOL    HW2 5985   9.417   1.314   5.124 -2.4467 -3.0871 -1.1958
 1803SOL     OW 5986   4.301   5.983   1.727 -0.4537  0.1594  0.3761
 1803SOL    HW1 5987   4.242   6.036   1.780 -0.6171 -1.1828  1.6068
 1803SOL    HW2 5988   4.354   6.046   1.679 -3.4567  1.4907 -1.5440
 1804SOL     OW 5989   6.539   7.302   5.823  0.0134 -0.0964  0.0016
 1804SOL    HW1 5990   6.446   7.286   5.836  0.0786 -0.1802  0.3490
 1804SOL    HW2 5991   6.544   7.395   5.799 -0.2345 -0.2782 -0.8051
 1805SOL     OW 5992   2.554   1.304   3.444  0.3518  0.2114 -0.1366
 1805SOL    HW1 5993   2.477   1.257   3.413  1.8970 -2.1159 -0.7127
 1805SOL    HW2 5994   2.600   1.331   3.364 -0.6005  3.0336  0.1718
 1806SOL     OW 5995   2.401   0.043   5.868  0.5717  0.0996  0.1619
 1806SOL    HW1 5996   2.318   0.019   5.909  0.6154 -1.0686 -0.4137
 1806SOL    HW2 5997   2.461  -0.029   5.888  0.5838 -0.5551 -1.9400
 1807SOL     OW 5998   7.964   2.922   3.469  0.1808  0.2154  0.1277
 1807SOL    HW1 5999   7.999   2.995   3.520 -0.1092  0.6100 -0.2353
 1807SOL    HW2 6000   8.015   2.923   3.388 -0.3075  0.4698 -0.1842
 1808SOL     OW 6001   8.750   7.562   3.910 -0.6562  0.2103  0.2514
 1808SOL    HW1 6002   8.676   7.503   3.899 -0.2095 -0.0948 -1.3329
 1808SOL    HW2 6003   8.827   7.505   3.910 -0.3413  0.6125  0.9396
 1809SOL     OW 6004   2.764   6.686   1.399 -0.2753 -0.2820 -0.9855
 1809SOL    HW1 6005   2.743   6.614   1.459  0.2275  1.1548  1.0018
 1809SOL    HW2 6006   2.684   6.700   1.349 -1.1200 -0.7474  0.1997
 1810SOL     OW 6007   0.945   4.667   3.827 -0.0227 -0.6231 -0.4179
 1810SOL    HW1 6008   0.875   4.610   3.859 -0.2650 -0.5879 -0.8918
 1810SOL    HW2 6009   0.957   4.642   3.735  0.1735 -0.2136 -0.5063
 1811SOL     OW 6010   3.162   8.341   5.028  0.0104 -0.4661  0.4456
 1811SOL    HW1 6011   3.252   8.316   5.009  0.2543 -0.9856  2.1960
 1811SOL    HW2 6012   3.141   8.406   4.960  0.4329 -2.9248 -2.2494
 1812SOL     OW 6013   2.477   0.589   1.474 -0.6211  0.7033 -0.2190
 1812SOL    HW1 6014   2.563   0.548   1.469 -1.2846 -0.9389  1.0265
 1812SOL    HW2 6015   2.469   0.638   1.392  0.8832 -0.3325 -1.0320
 1813SOL     OW 6016   4.561   5.827   8.579 -0.0503  0.4852  0.6643
 1813SOL    HW1 6017   4.637   5.866   8.622  0.0117  1.7959 -0.5751
 1813SOL    HW2 6018   4.583   5.827   8.486 -1.1519 -0.0842  0.3835
 1814SOL     OW 6019   9.397   2.250   6.736  0.6267 -0.8727 -0.3172
 1814SOL    HW1 6020   9.386   2.280   6.826  0.0394 -0.3880 -0.5502
 1814SOL    HW2 6021   9.491   2.231   6.729  0.5612 -1.6072  0.6076
 1815SOL     OW 6022   1.985   9.509   7.748  0.1576  0.2329 -0.4188
 1815SOL    HW1 6023   1.998   9.414   7.748  0.1133  0.2251 -0.1525
 1815SOL    HW2 6024   2.052   9.543   7.690  0.0099  0.0145 -0.7193
 1816SOL     OW 6025   0.741   2.770   8.624  0.1352 -0.1238  0.4819
 1816SOL    HW1 6026   0.678   2.834   8.656  1.8001  1.7639  0.2067
 1816SOL    HW2 6027   0.702   2.736   8.544 -0.3724  1.3463  0.0651
 1817SOL     OW 6028   8.067   1.002   8.155 -0.1773 -0.0776 -0.9844
 1817SOL    HW1 6029   8.051   0.909   8.138  1.1025 -0.7001  0.8992
 1817SOL    HW2 6030   7.999   1.047   8.106 -0.6751 -1.9796 -2.1678
 1818SOL     OW 6031   3.480   9.432   5.758 -0.0337 -0.6685 -0.1709
 1818SOL    HW1 6032   3.512   9.453   5.846 -0.3662 -0.8899  0.0024
 1818SOL    HW2 6033   3.543   9.369   5.723  1.0811  0.7124 -0.7628
 1819SOL     OW 6034   8.383   7.061   1.022 -0.3083  0.0535 -0.4207
 1819SOL    HW1 6035   8.307   7.090   1.072 -0.2289  2.1951 -1.4181
 1819SOL    HW2 6036   8.452   7.124   1.044  0.6517 -0.7740 -0.9260
 1820SOL     OW 6037   7.476   4.375   3.417  0.4095 -0.1197  0.0505
 1820SOL    HW1 6038   7.554   4.419   3.383  1.9956 -3.0961 -0.4702
 1820SOL    HW2 6039   7.490   4.371   3.512  3.2918 -4.3750 -0.2698
 1821SOL     OW 6040   1.724   1.576   7.888 -0.2725 -0.3381  0.0939
 1821SOL    HW1 6041   1.698   1.532   7.969  3.0887 -0.3313  1.3401
 1821SOL    HW2 6042   1.765   1.657   7.918  2.5735 -1.0994 -1.4107
 1822SOL     OW 6043   2.030   7.187   9.804  0.5011  0.2456 -0.9619
 1822SOL    HW1 6044   2.105   7.128   9.805 -0.2117 -0.6612  0.1546
 1822SOL    HW2 6045   2.021   7.211   9.712  1.2525 -0.7953 -1.3296
 1823SOL     OW 6046   8.340   5.632   0.176  0.3351  0.3542  0.4482
 1823SOL    HW1 6047   8.422   5.600   0.213  0.5869  0.0145 -0.3772
 1823SOL    HW2 6048   8.335   5.724   0.204  1.2323  0.5147  0.1317
 1824SOL     OW 6049   6.053   6.640   6.433  0.2427  0.0773  0.0836
 1824SOL    HW1 6050   6.072   6.580   6.361  3.2402  1.2858 -0.2768
 1824SOL    HW2 6051   6.118   6.618   6.500  0.2851  1.7608  0.6352
 1825SOL     OW 6052   5.158   6.747   4.034  0.2449 -0.9597 -0.2323
 1825SOL    HW1 6053   5.154   6.827   4.087  0.9549 -1.3676  0.4518
 1825SOL    HW2 6054   5.119   6.772   3.950 -0.4161 -0.1569  0.2961
 1826SOL     OW 6055   9.624   9.767   1.331 -0.2263  0.1540  0.0282
 1826SOL    HW1 6056   9.710   9.804   1.352 -0.7218  1.1159  0.4302
 1826SOL    HW2 6057   9.565   9.806   1.396 -1.3226  1.0584 -1.4337
 1827SOL     OW 6058   7.288   8.592  -0.018 -0.2931 -0.5261  0.0646
 1827SOL    HW1 6059   7.336   8.671  -0.042  1.2971 -1.6568 -0.6725
 1827SOL    HW2 6060   7.258   8.608   0.071 -1.4803  1.5599 -0.6536
 1828SOL     OW 6061   2.611   0.434   4.559 -0.0111 -0.0706  0.5176
 1828SOL    HW1 6062   2.552   0.472   4.625  0.5457 -0.6968  1.3990
 1828SOL    HW2 6063   2.658   0.364   4.606  0.1312 -0.7820 -0.6472
 1829SOL     OW 6064   4.274   5.057   2.473  0.2863  0.0257  0.1764
 1829SOL    HW1 6065   4.331   5.002   2.527  2.1606  0.6241 -1.0968
 1829SOL    HW2 6066   4.247   5.128   2.532  2.3435  0.7065  0.3935
 1830SOL     OW 6067   0.659   8.339   5.708 -0.0871  0.2412  0.6136
 1830SOL    HW1 6068   0.724   8.280   5.746  0.7779 -0.7190 -2.1501
 1830SOL    HW2 6069   0.642   8.403   5.778  2.0118 -0.8597  2.2692
 1831SOL     OW 6070   7.607   0.611   3.171 -0.1326  0.1934  0.1860
 1831SOL    HW1 6071   7.671   0.663   3.221 -0.5653  0.6033  0.3213
 1831SOL    HW2 6072   7.655   0.584   3.092  0.6375 -0.6930  0.9433
 1832SOL     OW 6073   9.405   2.568   9.925  0.2346 -1.0797 -0.2360
 1832SOL    HW1 6074   9.369   2.494   9.877 -0.6895 -1.0686  0.4127
 1832SOL    HW2 6075   9.391   2.546  10.017  0.2863 -0.2768 -0.0262
 1833SOL     OW 6076   0.896   5.430   3.211 -0.6826  0.2103  0.1470
 1833SOL    HW1 6077   0.897   5.467   3.300  0.0798 -0.0293  0.2466
 1833SOL    HW2 6078   0.886   5.506   3.154  1.4780  0.6902  0.3152
 1834SOL     OW 6079   5.949   3.295   1.189 -0.0894 -0.7810 -0.0325
 1834SOL    HW1 6080   5.884   3.277   1.121 -0.4028 -0.0182  0.0508
 1834SOL    HW2 6081   5.907   3.359   1.246  0.7692 -0.1903 -0.0381
 1835SOL     OW 6082   7.719   1.362   1.633  0.0828 -0.4093 -0.2987
 1835SOL    HW1 6083   7.766   1.279   1.639  1.1498  0.2561  1.1273
 1835SOL    HW2 6084   7.691   1.381   1.723 -0.6251  0.5087 -0.6917
 1836SOL     OW 6085   0.243   9.068   6.345 -0.1462 -0.1027  0.4936
 1836SOL    HW1 6086   0.235   9.095   6.253  0.7604 -1.5789 -0.0537
 1836SOL    HW2 6087   0.314   9.122   6.380  0.1141 -0.1693  0.0708
 1837SOL     OW 6088   1.987   7.704   7.607  0.4565  0.2670  0.1917
 1837SOL    HW1 6089   2.015   7.619   7.640 -1.5102 -1.1080 -1.4392
 1837SOL    HW2 6090   2.066   7.742   7.567  1.2017 -1.1099  0.2956
 1838SOL     OW 6091   8.717   7.641   9.518 -0.6431  0.1714 -0.3153
 1838SOL    HW1 6092   8.672   7.694   9.583 -1.0546  0.4803 -0.8514
 1838SOL    HW2 6093   8.660   7.565   9.504 -0.4607  0.0060 -0.1733
 1839SOL     OW 6094   9.140   8.636   8.088 -0.0989 -0.2857 -0.4187
 1839SOL    HW1 6095   9.210   8.681   8.041 -0.8598  1.1592 -0.2233
 1839SOL    HW2 6096   9.120   8.693   8.162 -0.9942 -1.0352 -0.0593
 1840SOL     OW 6097   1.770   4.406   4.921 -0.1849 -0.6190  0.1082
 1840SOL    HW1 6098   1.763   4.345   4.994 -0.4438 -2.6484 -1.4959
 1840SOL    HW2 6099   1.863   4.426   4.915  0.0417 -1.6267  0.1140
 1841SOL     OW 6100   9.400   5.983   1.265  0.5797  0.0300  0.0543
 1841SOL    HW1 6101   9.348   6.062   1.279 -0.2476 -0.7794  1.8406
 1841SOL    HW2 6102   9.353   5.935   1.197  1.0797  1.0054 -1.0347
 1842SOL     OW 6103   6.083   4.627   5.340  0.2120  0.5259  0.5438
 1842SOL    HW1 6104   6.128   4.597   5.261 -0.6747 -0.0469  0.2371
 1842SOL    HW2 6105   6.035   4.705   5.312  0.4880  0.7561  0.7073
 1843SOL     OW 6106   0.833   5.651   5.363  0.3060 -0.5489  0.4417
 1843SOL    HW1 6107   0.773   5.611   5.426 -0.3359 -0.6267 -0.2079
 1843SOL    HW2 6108   0.784   5.654   5.281  0.5427  1.0196  0.3192
 1844SOL     OW 6109   9.463   6.715   1.854  0.2495 -0.2642 -0.0966
 1844SOL    HW1 6110   9.375   6.724   1.819 -0.2803  1.2249  1.4846
 1844SOL    HW2 6111   9.515   6.779   1.806  0.2513 -0.4716 -0.3700
 1845SOL     OW 6112   9.928   8.227   9.113 -0.5309 -0.0920 -0.3541
 1845SOL    HW1 6113   9.890   8.163   9.053  0.3614  0.0354 -1.0747
 1845SOL    HW2 6114   9.872   8.304   9.105 -1.7685 -0.8301  0.7106
 1846SOL     OW 6115   4.264   7.031   5.152 -0.3346 -0.5974  0.2955
 1846SOL    HW1 6116   4.355   7.059   5.142 -0.1251 -1.8505 -1.8523
 1846SOL    HW2 6117   4.220   7.108   5.187  0.6901  1.6737 -2.9250
 1847SOL     OW 6118   9.672   1.322   2.893 -0.1989  0.4308 -0.4980
 1847SOL    HW1 6119   9.725   1.319   2.973  0.2141 -1.3584 -0.7840
 1847SOL    HW2 6120   9.650   1.414   2.882 -1.1463  0.6137  2.2291
 1848SOL     OW 6121   9.674   3.461   0.716 -0.6406 -0.0455  0.1213
 1848SOL    HW1 6122   9.766   3.433   0.712 -1.1232 -1.8155  0.6190
 1848SOL    HW2 6123   9.678   3.551   0.747  0.8880 -0.4154  1.1022
 1849SOL     OW 6124   4.818   9.432   3.325 -0.4729  0.2116  0.0595
 1849SOL    HW1 6125   4.780   9.520   3.328 -0.4230  0.2501 -0.3936
 1849SOL    HW2 6126   4.912   9.447   3.336 -0.5344  0.1535  0.7155
 1850SOL     OW 6127   6.640   3.110   6.591  0.6237 -0.4784  0.3860
 1850SOL    HW1 6128   6.571   3.111   6.657  0.1255 -1.3623 -0.1096
 1850SOL    HW2 6129   6.720   3.091   6.641  0.5122  0.4711  0.9478
 1851SOL     OW 6130   1.915   9.382   5.063  0.3740 -0.4892 -1.3817
 1851SOL    HW1 6131   1.857   9.459   5.067  0.7427 -0.2501 -0.2797
 1851SOL    HW2 6132   1.885   9.326   5.134  1.5744 -0.2994 -0.7116
 1852SOL     OW 6133   8.459   0.208   0.810 -0.3625 -0.1137 -0.0469
 1852SOL    HW1 6134   8.376   0.175   0.776  0.5551 -1.6966 -0.8839
 1852SOL    HW2 6135   8.496   0.135   0.858  0.8843  0.3149 -0.3142
 1853SOL     OW 6136   5.847   4.883   4.006 -0.2419  0.0716 -0.3209
 1853SOL    HW1 6137   5.890   4.945   4.065 -0.4570  0.9832 -1.0890
 1853SOL    HW2 6138   5.807   4.939   3.939 -0.0094 -0.9305 -1.3171
 1854SOL     OW 6139   8.528   9.284   4.768 -0.1007  0.0097  0.3479
 1854SOL    HW1 6140   8.455   9.223   4.757  1.2815 -1.7786  0.7203
 1854SOL    HW2 6141   8.530   9.334   4.687 -1.4810 -0.1845  0.1729
 1855SOL     OW 6142   4.181   8.896   2.112 -0.1236  0.3425  0.5061
 1855SOL    HW1 6143   4.100   8.845   2.112 -0.0803  0.2669 -0.0093
 1855SOL    HW2 6144   4.155   8.984   2.088  0.2073 -0.1542 -1.9463
 1856SOL     OW 6145   3.433   1.722   2.378 -0.2378 -0.2479  0.0953
 1856SOL    HW1 6146   3.512   1.735   2.431 -0.5260  1.7327  0.1093
 1856SOL    HW2 6147   3.446   1.778   2.302 -1.7032  0.2765  0.2112
 1857SOL     OW 6148   1.499   2.374   1.219  0.0970  0.1951  0.3195
 1857SOL    HW1 6149   1.542   2.447   1.174 -0.2495 -0.0960 -0.5059
 1857SOL    HW2 6150   1.568   2.308   1.228 -0.0485 -0.0955 -0.5987
 1858SOL     OW 6151   0.527   9.907   7.119  0.2545 -0.2039 -0.4059
 1858SOL    HW1 6152   0.486   9.826   7.149  0.8952 -0.4585 -0.2022
 1858SOL    HW2 6153   0.453   9.964   7.096 -0.2052 -1.2792 -1.7299
 1859SOL     OW 6154   1.074   3.562   5.039 -0.1006  0.1415  0.2115
 1859SOL    HW1 6155   1.073   3.645   4.992  0.2583 -0.2452 -0.5018
 1859SOL    HW2 6156   1.024   3.502   4.984  1.3686 -0.6469 -0.3354
 1860SOL     OW 6157   4.976   0.033   2.815 -0.4193  0.2481 -0.3462
 1860SOL    HW1 6158   4.979  -0.056   2.780 -0.5808  0.5842 -1.2334
 1860SOL    HW2 6159   4.892   0.068   2.784 -0.3317  0.7340 -0.0456
 1861SOL     OW 6160   1.074   1.730   9.904  0.4270 -0.0137 -0.3675
 1861SOL    HW1 6161   1.037   1.770   9.983 -0.9136  1.9352 -1.9073
 1861SOL    HW2 6162   1.124   1.800   9.863 -3.4076  0.9700 -4.0811
 1862SOL     OW 6163   6.166   7.622   6.779  0.3183  0.3641 -0.6226
 1862SOL    HW1 6164   6.077   7.612   6.813 -0.3836  2.0545 -1.8210
 1862SOL    HW2 6165   6.154   7.661   6.692  2.2469  1.3048 -0.5202
 1863SOL     OW 6166   4.900   9.678   0.923  0.0767 -0.3772  0.4019
 1863SOL    HW1 6167   4.850   9.656   0.844 -0.5602  0.3057  0.6082
 1863SOL    HW2 6168   4.834   9.693   0.990  0.5963 -0.3337  0.9151
 1864SOL     OW 6169   1.167   0.979   0.718 -0.0781 -0.1968 -0.3224
 1864SOL    HW1 6170   1.254   0.951   0.744  0.6764  1.1343 -1.3069
 1864SOL    HW2 6171   1.162   0.958   0.624 -0.7881 -0.1977 -0.2899
 1865SOL     OW 6172   6.112   6.272   3.827 -0.3589  0.1887 -0.6688
 1865SOL    HW1 6173   6.189   6.279   3.883 -0.5843 -2.3405  0.0804
 1865SOL    HW2 6174   6.041   6.311   3.879 -0.3109 -0.9953  0.3451
 1866SOL     OW 6175   3.783   4.615   9.160 -0.2560 -0.5105  0.2316
 1866SOL    HW1 6176   3.797   4.578   9.073 -1.0734 -1.7293  0.5918
 1866SOL    HW2 6177   3.689   4.634   9.163 -0.4002 -1.3029  1.1465
 1867SOL     OW 6178   6.859   4.021   9.323  0.5185  0.4136 -0.4816
 1867SOL    HW1 6179   6.944   4.066   9.318  1.3405 -1.0108  0.0159
 1867SOL    HW2 6180   6.872   3.941   9.272 -0.0583 -0.5007  0.7456
 1868SOL     OW 6181   1.652   9.768   1.047 -1.0066 -0.8353  0.0343
 1868SOL    HW1 6182   1.687   9.823   0.977 -1.8127 -0.3716 -0.0152
 1868SOL    HW2 6183   1.728   9.747   1.101 -0.5712 -0.2451 -0.3344
 1869SOL     OW 6184   7.718   6.147   6.923  0.0415 -0.5896 -0.3620
 1869SOL    HW1 6185   7.758   6.162   7.009 -1.4563 -0.4612  0.3662
 1869SOL    HW2 6186   7.790   6.121   6.867  1.3079  0.7190  0.5684
 1870SOL     OW 6187   1.623   7.224   3.712 -0.4557  0.1014 -0.2312
 1870SOL    HW1 6188   1.577   7.143   3.737  0.7558 -0.4921  0.1969
 1870SOL    HW2 6189   1.610   7.231   3.618 -2.0693  0.3908 -0.0110
 1871SOL     OW 6190   5.496   9.342   7.868  0.1561  0.0853 -0.4074
 1871SOL    HW1 6191   5.507   9.251   7.841 -0.5075  0.1066 -0.7676
 1871SOL    HW2 6192   5.408   9.345   7.906  1.0087  0.0818  1.6951
 1872SOL     OW 6193   6.743   2.235   5.873 -0.7261  0.4483  0.2051
 1872SOL    HW1 6194   6.784   2.148   5.880  0.5760  0.8539 -1.7177
 1872SOL    HW2 6195   6.793   2.280   5.805 -2.4842  2.1020 -0.0759
 1873SOL     OW 6196   4.112   8.657   8.280 -0.4878 -0.2058  0.6407
 1873SOL    HW1 6197   4.137   8.700   8.362 -0.2041 -1.5108  1.2635
 1873SOL    HW2 6198   4.031   8.611   8.301  0.0534 -1.2797  0.4795
 1874SOL     OW 6199   5.090   8.155   1.039  0.1998  0.0323 -0.0268
 1874SOL    HW1 6200   5.135   8.112   0.966 -1.9827  0.1902 -1.5761
 1874SOL    HW2 6201   5.115   8.247   1.031 -0.9014  0.2551 -1.3573
 1875SOL     OW 6202   8.896   0.265   8.092 -0.3637  0.2006 -0.1361
 1875SOL    HW1 6203   8.852   0.346   8.116 -1.5463 -0.0021 -1.5523
 1875SOL    HW2 6204   8.884   0.209   8.169 -2.0258  0.3833 -0.2236
 1876SOL     OW 6205   1.619   4.757   9.929 -0.1118  0.2467  0.0414
 1876SOL    HW1 6206   1.569   4.710   9.862  0.4577  0.5506 -0.6120
 1876SOL    HW2 6207   1.557   4.772   9.999 -0.9213  0.5457 -0.7229
 1877SOL     OW 6208   3.980   0.588   1.824  0.1491 -0.2476 -0.6559
 1877SOL    HW1 6209   4.040   0.651   1.784  1.6134 -0.5888  0.8461
 1877SOL    HW2 6210   3.893   0.618   1.800  0.8898  0.9231 -2.0041
 1878SOL     OW 6211   4.795   3.183   6.505  0.3962 -0.1126 -0.1076
 1878SOL    HW1 6212   4.789   3.266   6.553  0.0159 -0.1961 -0.0058
 1878SOL    HW2 6213   4.784   3.208   6.413  1.0613  0.0404 -0.1503
 1879SOL     OW 6214   8.952   7.576   5.940 -0.0420  0.1205 -0.2780
 1879SOL    HW1 6215   8.978   7.615   5.857 -1.5014  0.4220 -0.6301
 1879SOL    HW2 6216   8.857   7.568   5.934 -0.1981  0.2628  1.4050
 1880SOL     OW 6217   7.114   1.549   8.393  0.1567 -0.4207  0.1072
 1880SOL    HW1 6218   7.034   1.597   8.371  0.2332  0.2292  1.1529
 1880SOL    HW2 6219   7.177   1.577   8.327  0.2131  0.9905  0.7321
 1881SOL     OW 6220   1.222   7.266   7.901  0.3275  0.1567 -0.0750
 1881SOL    HW1 6221   1.140   7.223   7.875  0.9069 -0.6641 -0.6202
 1881SOL    HW2 6222   1.248   7.316   7.824 -0.9655  2.5401  0.9573
 1882SOL     OW 6223   4.651   0.927   7.952  0.3401 -0.0446 -0.1978
 1882SOL    HW1 6224   4.711   0.858   7.979 -0.9909 -0.9986  0.4100
 1882SOL    HW2 6225   4.590   0.936   8.024 -0.7226  0.3706 -1.1225
 1883SOL     OW 6226   9.529   5.330   5.100 -0.2504 -0.3495  0.1337
 1883SOL    HW1 6227   9.512   5.348   5.193  2.5838  0.7043  0.5444
 1883SOL    HW2 6228   9.581   5.405   5.070 -0.0380 -1.2718 -1.9865
 1884SOL     OW 6229   4.002   9.370   6.351 -0.5110  0.6036  0.4261
 1884SOL    HW1 6230   4.074   9.434   6.344  0.0749  0.0747  1.4469
 1884SOL    HW2 6231   3.966   9.384   6.439 -2.0725  1.2662 -0.2741
 1885SOL     OW 6232   2.980   9.164   0.878 -0.0522 -0.4327 -0.2561
 1885SOL    HW1 6233   2.954   9.181   0.787  0.5205 -0.6391 -0.4640
 1885SOL    HW2 6234   3.006   9.249   0.912 -0.5555 -0.3038 -0.1910
 1886SOL     OW 6235   7.408   9.407   9.285  0.4181 -0.5488 -0.7305
 1886SOL    HW1 6236   7.363   9.377   9.364  1.3566 -0.3080 -0.0902
 1886SOL    HW2 6237   7.483   9.348   9.275 -0.3571 -1.3600 -2.1563
 1887SOL     OW 6238   1.772   6.872   0.774  0.2927 -0.0493 -0.3703
 1887SOL    HW1 6239   1.828   6.874   0.851 -3.5575 -1.5018  2.8322
 1887SOL    HW2 6240   1.747   6.963   0.760  0.2284  0.1277  0.8184
 1888SOL     OW 6241   0.809   4.992   2.005 -0.4535  0.7355 -0.0080
 1888SOL    HW1 6242   0.802   5.067   2.065  0.5778  0.1741  0.8644
 1888SOL    HW2 6243   0.891   4.950   2.030 -0.7222 -0.3467 -0.8851
 1889SOL     OW 6244   1.465   8.940   5.850  0.1481 -0.3552 -0.0498
 1889SOL    HW1 6245   1.402   8.997   5.895  0.8931 -0.2319  0.8750
 1889SOL    HW2 6246   1.520   9.000   5.801 -0.2192 -0.4339 -0.5627
 1890SOL     OW 6247   3.256   9.098   9.924  0.1384  0.0351 -0.6109
 1890SOL    HW1 6248   3.218   9.181   9.894  0.9984  1.1956  1.3142
 1890SOL    HW2 6249   3.271   9.111  10.018 -0.3103 -2.5729 -0.1077
 1891SOL     OW 6250   2.832   2.256   5.151 -0.2501 -0.2236  0.3116
 1891SOL    HW1 6251   2.870   2.343   5.162  0.5444 -0.5984  0.6158
 1891SOL    HW2 6252   2.803   2.231   5.238 -0.8834 -0.0881  0.1450
 1892SOL     OW 6253   6.795   6.766   0.144  0.1868 -0.3280  0.3464
 1892SOL    HW1 6254   6.746   6.723   0.214  1.1221 -1.4441  0.3408
 1892SOL    HW2 6255   6.771   6.718   0.065 -0.6355  0.7399 -0.0733
 1893SOL     OW 6256   1.695   4.897   2.039 -0.5259 -0.3778 -0.2493
 1893SOL    HW1 6257   1.719   4.879   1.948  1.6874 -0.1897  0.2320
 1893SOL    HW2 6258   1.710   4.991   2.049 -1.4770 -0.2544  0.1459
 1894SOL     OW 6259   6.789   0.815   4.104 -0.2162  0.1669  0.0826
 1894SOL    HW1 6260   6.786   0.902   4.144  2.4230  0.2467  0.3039
 1894SOL    HW2 6261   6.729   0.820   4.030  0.0987  2.2604 -0.0833
 1895SOL     OW 6262   9.854   9.095   0.596 -0.1463  0.3592  0.6284
 1895SOL    HW1 6263   9.903   9.174   0.619  2.8303 -1.1141 -0.1316
 1895SOL    HW2 6264   9.791   9.125   0.530 -0.1818  2.3449  1.4916
 1896SOL     OW 6265   2.017   3.295   5.804  0.2502  0.0041 -0.0226
 1896SOL    HW1 6266   1.923   3.312   5.812 -0.3174 -2.2540 -1.0040
 1896SOL    HW2 6267   2.038   3.240   5.879 -0.0381 -2.3317 -1.5583
 1897SOL     OW 6268   6.217   8.688   5.730 -0.2692 -0.1272  0.0901
 1897SOL    HW1 6269   6.261   8.699   5.646 -0.1926  0.3082  0.1846
 1897SOL    HW2 6270   6.232   8.771   5.776 -1.7333  0.2949 -0.1343
 1898SOL     OW 6271   8.896   4.294   4.436  0.2119  0.5496  0.2847
 1898SOL    HW1 6272   8.814   4.269   4.393 -1.1089  1.9926  1.8088
 1898SOL    HW2 6273   8.869   4.320   4.524  2.8989 -3.3286  2.5382
 1899SOL     OW 6274   9.182   0.786   6.357 -0.1498 -0.3014  0.0468
 1899SOL    HW1 6275   9.252   0.727   6.330 -0.4384  0.9148 -3.9373
 1899SOL    HW2 6276   9.214   0.873   6.336 -1.7243  0.5537  0.9560
 1900SOL     OW 6277   4.034   1.693   2.133 -0.0661 -0.0890  0.4001
 1900SOL    HW1 6278   3.979   1.760   2.175 -0.9457 -0.3742 -0.2716
 1900SOL    HW2 6279   4.118   1.736   2.121 -1.0806  1.5402 -1.5885
 1901SOL     OW 6280   0.609   1.240   8.658  0.2218  0.3344 -0.0769
 1901SOL    HW1 6281   0.544   1.182   8.619  1.1205  0.5713 -2.0288
 1901SOL    HW2 6282   0.694   1.202   8.634  0.8611  0.5204  1.6647
 1902SOL     OW 6283   4.947   5.610   4.661 -0.0483 -0.0674 -0.0084
 1902SOL    HW1 6284   5.041   5.607   4.677 -0.5129 -0.7719  3.1456
 1902SOL    HW2 6285   4.921   5.518   4.652 -0.6169  0.0351  0.5086
 1903SOL     OW 6286   2.521   3.305   1.203  0.4936 -0.1482  0.1566
 1903SOL    HW1 6287   2.579   3.243   1.248  0.8503 -0.4648 -0.7101
 1903SOL    HW2 6288   2.445   3.313   1.261  1.0571 -0.3163  0.9455
 1904SOL     OW 6289   0.067   9.675   2.822  0.3179 -0.4355  0.2230
 1904SOL    HW1 6290  -0.002   9.648   2.882  1.4744 -0.4183  1.6227
 1904SOL    HW2 6291   0.129   9.602   2.822  1.0413  0.1655  0.1931
 1905SOL     OW 6292   3.483   4.870   8.637 -0.2408 -0.0082  0.6239
 1905SOL    HW1 6293   3.531   4.791   8.661 -0.2010  0.1219  0.9866
 1905SOL    HW2 6294   3.404   4.867   8.690 -0.3696  0.0541  0.4324
 1906SOL     OW 6295   6.315   5.881   6.191  0.3512 -0.1491 -0.0138
 1906SOL    HW1 6296   6.394   5.828   6.190  2.0485  2.2210 -1.8216
 1906SOL    HW2 6297   6.259   5.843   6.124  0.5078 -1.0039  0.3257
 1907SOL     OW 6298   9.268   9.832   0.489 -0.7505  0.2292 -0.6276
 1907SOL    HW1 6299   9.259   9.770   0.417 -0.9102  0.6212 -0.9529
 1907SOL    HW2 6300   9.355   9.871   0.477  0.1765 -1.3128  0.7039
 1908SOL     OW 6301   0.990   1.263   0.680  0.3988  0.2467  0.1043
 1908SOL    HW1 6302   1.013   1.198   0.746  1.0864 -0.7325 -1.0458
 1908SOL    HW2 6303   1.074   1.291   0.643  0.1399  2.0894  0.8232
 1909SOL     OW 6304   8.185   4.167   5.470 -0.0598 -0.0055 -0.0419
 1909SOL    HW1 6305   8.264   4.219   5.479  0.1224 -0.1264 -0.8402
 1909SOL    HW2 6306   8.208   4.081   5.505  0.2279 -0.0950 -0.4409
 1910SOL     OW 6307   2.247   7.141   1.813 -0.6062 -0.2487 -0.1467
 1910SOL    HW1 6308   2.161   7.177   1.791  0.1357  0.7970 -1.5190
 1910SOL    HW2 6309   2.250   7.140   1.908 -1.3345  1.7774 -0.0548
 1911SOL     OW 6310   2.528   7.808   8.724  0.2887 -0.0620  0.6218
 1911SOL    HW1 6311   2.556   7.806   8.633  1.0918 -2.1964  0.8547
 1911SOL    HW2 6312   2.609   7.813   8.774 -0.0019 -1.0769  1.2238
 1912SOL     OW 6313   6.502   3.565   8.262  0.1003  0.1681 -0.4415
 1912SOL    HW1 6314   6.437   3.506   8.300  0.5198 -0.3580 -0.5334
 1912SOL    HW2 6315   6.546   3.603   8.338  0.7294 -0.6506 -0.3884
 1913SOL     OW 6316   4.798   7.994   9.859 -0.0258  0.3574 -0.0088
 1913SOL    HW1 6317   4.866   8.061   9.863  0.3324  0.0791 -1.1356
 1913SOL    HW2 6318   4.774   7.979   9.950 -0.0575  1.9506  0.2862
 1914SOL     OW 6319   1.970   9.736   2.071 -0.0378  0.0543 -0.0861
 1914SOL    HW1 6320   2.011   9.652   2.091  0.6226  0.3862 -0.0272
 1914SOL    HW2 6321   1.941   9.728   1.980 -0.0905 -0.2774 -0.0428
 1915SOL     OW 6322   5.365   8.334   2.838  0.4274  0.2409  0.1682
 1915SOL    HW1 6323   5.392   8.370   2.753 -0.1492 -0.8086 -0.4841
 1915SOL    HW2 6324   5.379   8.240   2.830 -0.3384  0.0429  0.9680
 1916SOL     OW 6325   2.514   2.071   5.744 -0.3172  0.1898  0.2248
 1916SOL    HW1 6326   2.561   2.035   5.669 -0.7798  0.3037 -0.1294
 1916SOL    HW2 6327   2.443   2.122   5.705 -1.9581 -1.5933  0.7341
 1917SOL     OW 6328   0.491   6.448   2.577  0.1118 -0.7593  0.1428
 1917SOL    HW1 6329   0.464   6.420   2.664 -1.7651  1.1993  0.2577
 1917SOL    HW2 6330   0.409   6.465   2.530  1.0979  0.9201 -1.0753
 1918SOL     OW 6331   3.023   0.397   0.727 -0.1809 -0.4161  0.1284
 1918SOL    HW1 6332   2.945   0.450   0.714  0.4572  0.6571  0.5692
 1918SOL    HW2 6333   3.089   0.437   0.670 -0.1901 -1.8906 -0.9760
 1919SOL     OW 6334   0.020   5.033   1.853  0.2615 -0.0214 -0.1232
 1919SOL    HW1 6335   0.035   5.009   1.762  0.7512  0.7502 -0.2606
 1919SOL    HW2 6336   0.089   5.097   1.872 -1.2223  1.5956  0.0786
 1920SOL     OW 6337   7.553   1.324   7.646 -0.3252 -0.9694  0.3126
 1920SOL    HW1 6338   7.586   1.386   7.581 -1.0854 -1.0161 -0.1355
 1920SOL    HW2 6339   7.562   1.238   7.603  0.8601 -1.1916  0.9856
 1921SOL     OW 6340   6.967   7.598   0.133  0.5301 -0.1114  0.0817
 1921SOL    HW1 6341   6.900   7.644   0.082  0.6490 -1.5273 -1.4278
 1921SOL    HW2 6342   7.004   7.666   0.190 -0.0688  1.3984 -1.2411
 1922SOL     OW 6343   5.253   0.505   8.400  0.2300  0.1619  0.4031
 1922SOL    HW1 6344   5.292   0.577   8.350  0.0259  0.5763  0.8323
 1922SOL    HW2 6345   5.327   0.464   8.445  0.5993 -1.0060 -1.2036
 1923SOL     OW 6346   2.002   7.927   7.022  0.0686 -0.3042 -0.0874
 1923SOL    HW1 6347   2.058   7.851   7.008  0.5816  0.3177 -1.5612
 1923SOL    HW2 6348   1.961   7.944   6.937 -0.1549  0.9758  0.2460
 1924SOL     OW 6349   5.520   9.842   8.277  0.5078 -0.2200 -0.3095
 1924SOL    HW1 6350   5.451   9.822   8.340 -0.2541  0.9676 -0.7458
 1924SOL    HW2 6351   5.518   9.937   8.266  2.4121 -0.1049 -0.1259
 1925SOL     OW 6352   4.108   3.529   8.838  0.0439 -0.3142  0.0266
 1925SOL    HW1 6353   4.185   3.509   8.784 -1.1046  0.7565 -2.1267
 1925SOL    HW2 6354   4.141   3.526   8.928  2.6053  0.1291 -0.8122
 1926SOL     OW 6355   3.037   3.341   1.359  0.5874  0.2685 -0.2642
 1926SOL    HW1 6356   3.034   3.261   1.306  0.1571  0.2766 -0.2551
 1926SOL    HW2 6357   3.028   3.310   1.449 -2.2196  0.4867 -0.3918
 1927SOL     OW 6358   9.094   4.843   7.379  0.3194  0.8637 -0.5208
 1927SOL    HW1 6359   9.013   4.842   7.431  1.6158  2.0848  1.7250
 1927SOL    HW2 6360   9.162   4.869   7.442  2.5524 -0.4975 -2.2116
 1928SOL     OW 6361   1.626   6.564   9.273  0.4431 -0.0565  0.0690
 1928SOL    HW1 6362   1.666   6.636   9.320 -1.7662  1.2954  0.0245
 1928SOL    HW2 6363   1.602   6.600   9.187  1.0812 -1.4213 -0.7198
 1929SOL     OW 6364   1.204   2.312   8.649 -0.1028 -0.4133 -0.6286
 1929SOL    HW1 6365   1.226   2.247   8.582 -0.5996  0.1515 -1.3594
 1929SOL    HW2 6366   1.119   2.347   8.622  1.5668  2.9265 -2.2123
 1930SOL     OW 6367   2.435   4.708   9.217 -0.3891  0.3388  0.2484
 1930SOL    HW1 6368   2.436   4.619   9.181  0.4538  0.6629 -0.5873
 1930SOL    HW2 6369   2.399   4.761   9.146 -0.3768  0.7419  0.5424
 1931SOL     OW 6370   9.107   2.576   1.626 -0.3321  0.9146  0.1102
 1931SOL    HW1 6371   9.052   2.585   1.548 -2.1476  0.5829  1.2917
 1931SOL    HW2 6372   9.058   2.517   1.684  2.3675 -1.3772  0.3089
 1932SOL     OW 6373   1.354   1.290   9.402  0.4055  0.3030 -0.3992
 1932SOL    HW1 6374   1.264   1.266   9.381 -0.2183  0.3654  1.9202
 1932SOL    HW2 6375   1.350   1.383   9.426  1.0109  0.2401 -0.0166
 1933SOL     OW 6376   5.691   2.376   2.118 -0.0762  0.1418 -0.7959
 1933SOL    HW1 6377   5.728   2.438   2.181  1.1606 -0.3177 -1.0509
 1933SOL    HW2 6378   5.721   2.408   2.033  1.8496 -1.5923 -0.8479
 1934SOL     OW 6379   7.213   9.693   6.119 -0.1997 -0.2522  0.3510
 1934SOL    HW1 6380   7.132   9.661   6.160 -0.6081  1.8703  1.3212
 1934SOL    HW2 6381   7.283   9.655   6.172 -0.6394 -0.2593  0.9460
 1935SOL     OW 6382   5.190   9.758   5.596 -0.0617 -0.2590  0.2396
 1935SOL    HW1 6383   5.165   9.843   5.558 -0.2773 -0.1741  0.5649
 1935SOL    HW2 6384   5.122   9.741   5.662  0.4392 -0.2889  0.7557
 1936SOL     OW 6385   5.078   1.773   7.797  0.1701 -0.0985  0.4473
 1936SOL    HW1 6386   5.062   1.834   7.870 -0.4734 -0.5812  0.7248
 1936SOL    HW2 6387   5.001   1.783   7.741  0.7333  0.3790 -0.2616
 1937SOL     OW 6388   9.618   9.749   9.227 -0.0095  0.0089 -0.2928
 1937SOL    HW1 6389   9.657   9.827   9.188  0.6565 -0.3426 -0.3491
 1937SOL    HW2 6390   9.562   9.713   9.159  1.2053 -0.6471 -0.9898
 1938SOL     OW 6391   0.848   4.258   9.221 -0.2094  0.3822  0.0491
 1938SOL    HW1 6392   0.813   4.172   9.197  0.1997  0.3987 -0.6568
 1938SOL    HW2 6393   0.899   4.243   9.300 -0.4836  0.0499  0.1624
 1939SOL     OW 6394   3.984   5.310   6.366 -0.6680 -0.1712  0.0960
 1939SOL    HW1 6395   3.890   5.292   6.359 -1.0425  2.1848 -2.7204
 1939SOL    HW2 6396   4.025   5.253   6.302 -0.6263  1.1274 -1.0809
 1940SOL     OW 6397   3.226   1.999   6.214  0.4184 -0.0702  0.0221
 1940SOL    HW1 6398   3.286   1.946   6.161  0.6806 -1.8928  1.9934
 1940SOL    HW2 6399   3.201   2.072   6.157  1.9246 -1.0378 -1.9954
 1941SOL     OW 6400   4.590   9.287   3.343 -0.1010  0.5507 -0.1947
 1941SOL    HW1 6401   4.670   9.339   3.346 -0.7536  1.6267 -0.6788
 1941SOL    HW2 6402   4.614   9.203   3.382  1.1040  1.0584  0.2049
 1942SOL     OW 6403   8.914   0.582   3.582  1.1426  0.1572 -0.0242
 1942SOL    HW1 6404   8.901   0.494   3.548  1.8707  0.3168 -0.7548
 1942SOL    HW2 6405   8.843   0.633   3.543 -1.0241 -0.6180  2.6029
 1943SOL     OW 6406   5.108   9.447   3.759 -0.2185  0.7718 -0.3670
 1943SOL    HW1 6407   5.123   9.363   3.716  0.0399  0.6773 -0.0991
 1943SOL    HW2 6408   5.015   9.446   3.781 -0.4394  0.9903 -1.2678
 1944SOL     OW 6409   6.354   6.357   8.968 -0.6518 -0.0874  0.7682
 1944SOL    HW1 6410   6.266   6.321   8.954 -0.5090 -0.3489  0.5419
 1944SOL    HW2 6411   6.399   6.292   9.021 -0.0296 -0.7942 -0.5745
 1945SOL     OW 6412   2.018   2.182   1.814  0.2964  0.3893 -0.5480
 1945SOL    HW1 6413   2.024   2.139   1.729  1.4312  0.1498 -0.3627
 1945SOL    HW2 6414   2.109   2.189   1.844 -0.1908 -1.4664  1.6137
 1946SOL     OW 6415   0.943   7.353   6.385 -0.3877  0.1059 -0.2744
 1946SOL    HW1 6416   0.954   7.364   6.291 -0.1048 -1.7771 -0.4962
 1946SOL    HW2 6417   0.869   7.410   6.407 -0.7401  0.2356 -1.6937
 1947SOL     OW 6418   2.159   8.643   9.745 -0.1940  0.3360 -0.7257
 1947SOL    HW1 6419   2.192   8.733   9.744 -1.1584  0.7287  0.5739
 1947SOL    HW2 6420   2.064   8.652   9.742 -0.2936 -0.6728 -1.0967
 1948SOL     OW 6421   2.285   6.924   5.612  0.2669 -0.5590 -0.1300
 1948SOL    HW1 6422   2.257   6.887   5.528  0.5609 -2.3084  0.5017
 1948SOL    HW2 6423   2.380   6.931   5.604  0.1436  0.7910 -0.5125
 1949SOL     OW 6424   2.664   5.520   9.546 -0.3121  0.1333 -0.4417
 1949SOL    HW1 6425   2.649   5.522   9.641 -0.6046 -1.8734 -0.3851
 1949SOL    HW2 6426   2.744   5.569   9.533 -0.4464  0.7212  0.8051
 1950SOL     OW 6427   9.477   7.520   6.185 -0.0524 -0.5437  0.3560
 1950SOL    HW1 6428   9.430   7.572   6.121  0.9014 -0.7901 -0.5758
 1950SOL    HW2 6429   9.411   7.496   6.250 -1.2859 -1.1543 -1.0698
 1951SOL     OW 6430   6.695   7.554   8.080 -0.4423 -0.6494  0.0424
 1951SOL    HW1 6431   6.716   7.609   8.155  0.6163 -1.7914  0.6204
 1951SOL    HW2 6432   6.649   7.479   8.118  1.8226 -2.2224 -0.1162
 1952SOL     OW 6433   1.770   1.024   4.139  0.6772  0.2542 -0.3377
 1952SOL    HW1 6434   1.755   1.116   4.159  2.5222  1.0015 -2.0361
 1952SOL    HW2 6435   1.684   0.989   4.117 -0.5491  0.7397  3.1365
 1953SOL     OW 6436   7.663   6.864   0.870 -0.0243  0.3510 -0.1388
 1953SOL    HW1 6437   7.749   6.862   0.826  1.1140 -1.1568  1.9709
 1953SOL    HW2 6438   7.643   6.772   0.887 -0.0705  0.8461  2.9843
 1954SOL     OW 6439   8.098   5.157   6.339 -0.6794 -0.0441  0.2954
 1954SOL    HW1 6440   8.175   5.147   6.282 -0.2041 -0.6654  1.0194
 1954SOL    HW2 6441   8.041   5.217   6.292 -0.7730 -1.3337 -1.3336
 1955SOL     OW 6442   0.998   5.424   1.972 -0.1326  0.1093  0.1500
 1955SOL    HW1 6443   0.964   5.374   1.898  2.3304  1.6094 -2.1853
 1955SOL    HW2 6444   1.080   5.381   1.994 -1.3756 -1.0664  3.0158
 1956SOL     OW 6445   9.141   2.561   8.448  0.1822 -0.8082 -0.0610
 1956SOL    HW1 6446   9.064   2.617   8.456 -0.7500 -1.8127 -1.4519
 1956SOL    HW2 6447   9.156   2.555   8.354  1.1868 -1.6706  0.1410
 1957SOL     OW 6448   4.302   9.148   8.540 -0.0449  0.3224  0.5739
 1957SOL    HW1 6449   4.256   9.158   8.457  1.2339 -0.0396 -0.1986
 1957SOL    HW2 6450   4.250   9.198   8.603  0.0589  2.3085 -0.8555
 1958SOL     OW 6451   0.490   3.789   4.177 -0.1146 -0.1672  0.2076
 1958SOL    HW1 6452   0.520   3.827   4.094 -0.4461  0.3911  0.3429
 1958SOL    HW2 6453   0.569   3.784   4.231 -0.0740  0.3321  0.1927
 1959SOL     OW 6454   9.240   7.776   7.519  0.1658  0.3106  0.2196
 1959SOL    HW1 6455   9.259   7.830   7.442 -1.1437  0.0268 -0.3334
 1959SOL    HW2 6456   9.295   7.813   7.588  0.9203  0.9534 -0.6883
 1960SOL     OW 6457   6.939   9.388   6.466  0.2171  0.2250 -0.8998
 1960SOL    HW1 6458   6.937   9.330   6.542  3.1670  3.5520  2.0857
 1960SOL    HW2 6459   7.021   9.366   6.422  0.5091  0.9684 -0.7329
 1961SOL     OW 6460   0.950   2.182   6.211  0.2484  0.4460 -0.2250
 1961SOL    HW1 6461   0.883   2.176   6.144 -1.8983 -2.2938  1.9072
 1961SOL    HW2 6462   0.950   2.273   6.238 -0.7734  1.0133 -2.0029
 1962SOL     OW 6463   7.924   5.313   9.625 -0.4951  0.0490  0.0348
 1962SOL    HW1 6464   7.856   5.267   9.674 -2.1048  1.6856 -0.5446
 1962SOL    HW2 6465   7.880   5.345   9.547  0.5369  2.3567  0.3130
 1963SOL     OW 6466   3.020   8.185   4.811 -0.1798 -0.4977 -0.1121
 1963SOL    HW1 6467   3.072   8.253   4.854 -0.0378 -0.2623 -0.6372
 1963SOL    HW2 6468   3.025   8.109   4.869  0.2385 -0.2784  0.1396
 1964SOL     OW 6469   4.574   7.745   5.630  0.0961  0.5059 -0.4321
 1964SOL    HW1 6470   4.552   7.836   5.607 -0.7093  0.3235 -0.4332
 1964SOL    HW2 6471   4.647   7.723   5.573 -0.9802  0.5152 -1.8591
 1965SOL     OW 6472   9.219   2.239   9.405  0.6261  0.1098  0.3176
 1965SOL    HW1 6473   9.243   2.149   9.425 -0.7136 -0.9295 -2.3891
 1965SOL    HW2 6474   9.124   2.238   9.400  0.5047  1.9669  1.2953
 1966SOL     OW 6475   2.665   6.195   9.006  0.0210  0.0225  0.0158
 1966SOL    HW1 6476   2.680   6.179   8.913 -0.7958  1.5759 -0.3990
 1966SOL    HW2 6477   2.753   6.191   9.045  0.4637  0.1896 -0.9426
 1967SOL     OW 6478   0.385   4.578   2.838  0.1424  0.0273 -0.2514
 1967SOL    HW1 6479   0.382   4.500   2.893 -0.5735 -0.8231 -1.4511
 1967SOL    HW2 6480   0.417   4.547   2.754  0.3068  1.1342 -0.6138
 1968SOL     OW 6481   7.632   4.550   6.274 -0.3429 -0.4237 -0.0718
 1968SOL    HW1 6482   7.675   4.522   6.193  0.6043  1.1177 -0.1445
 1968SOL    HW2 6483   7.598   4.638   6.254  0.1883  0.1171  1.2909
 1969SOL     OW 6484   5.777   8.518   0.735  0.0682 -0.3736 -0.5418
 1969SOL    HW1 6485   5.776   8.560   0.650  1.8658  0.7552 -0.0655
 1969SOL    HW2 6486   5.842   8.447   0.727 -0.3401 -0.7785 -0.3388
 1970SOL     OW 6487   4.738   7.350   9.497  0.1909  0.2036  0.1432
 1970SOL    HW1 6488   4.697   7.419   9.549  0.3206  0.2710  0.1580
 1970SOL    HW2 6489   4.826   7.384   9.478 -0.5677  1.1325 -1.9627
 1971SOL     OW 6490   8.306   2.231   4.243  0.9406  0.3034 -0.3720
 1971SOL    HW1 6491   8.366   2.201   4.175  0.6623 -0.9094 -0.1228
 1971SOL    HW2 6492   8.220   2.231   4.200  0.9708  1.0342 -0.4419
 1972SOL     OW 6493   2.951   3.629   6.209  0.2687  0.2924  0.5577
 1972SOL    HW1 6494   2.967   3.621   6.115  0.4014  0.4865  0.5628
 1972SOL    HW2 6495   2.857   3.647   6.217  0.4886  1.6084  0.3817
 1973SOL     OW 6496   7.969   5.634   5.359 -0.3642 -0.0342  0.1318
 1973SOL    HW1 6497   7.986   5.644   5.453  0.0889 -0.5334  0.1056
 1973SOL    HW2 6498   8.000   5.546   5.338  0.9185  0.6126 -0.7888
 1974SOL     OW 6499   2.639   7.116   7.314  0.3059  0.0182 -0.0060
 1974SOL    HW1 6500   2.661   7.193   7.367 -0.6454  0.6567 -0.5058
 1974SOL    HW2 6501   2.702   7.117   7.243 -0.9645  1.5743 -1.1831
 1975SOL     OW 6502   3.159   2.105   7.907  0.0192 -0.5682  0.0096
 1975SOL    HW1 6503   3.156   2.036   7.973  1.0261 -0.3819  0.2770
 1975SOL    HW2 6504   3.089   2.084   7.846 -1.8981  0.0303  1.8975
 1976SOL     OW 6505   0.244   3.467   4.310  0.0265 -0.1815  0.3719
 1976SOL    HW1 6506   0.319   3.459   4.251  1.0039  1.1694  1.3731
 1976SOL    HW2 6507   0.232   3.561   4.322 -0.1618 -0.3995  2.2937
 1977SOL     OW 6508   9.523   7.146   9.924 -0.0577  0.1926 -0.2441
 1977SOL    HW1 6509   9.514   7.051   9.927  0.3139  0.1310 -0.8563
 1977SOL    HW2 6510   9.513   7.168   9.831  0.6910  0.6608 -0.2213
 1978SOL     OW 6511   3.972   8.064   9.721 -0.2942 -0.0317 -0.2202
 1978SOL    HW1 6512   3.882   8.084   9.697 -0.3594 -0.1101 -0.0379
 1978SOL    HW2 6513   3.981   8.097   9.811 -0.0488  0.2673 -0.3511
 1979SOL     OW 6514   6.164   8.859   0.661  0.3241  0.0206 -0.2311
 1979SOL    HW1 6515   6.097   8.926   0.677  0.6822 -0.0940  1.9931
 1979SOL    HW2 6516   6.241   8.890   0.708  0.8295 -1.4321 -0.0698
 1980SOL     OW 6517   1.135   3.276   4.673  0.7368 -0.0012 -0.3558
 1980SOL    HW1 6518   1.214   3.226   4.694  0.2742 -0.1182  1.2930
 1980SOL    HW2 6519   1.091   3.287   4.758 -0.0247  1.7431 -0.9322
 1981SOL     OW 6520   8.473   6.920   0.210  0.3023  0.3584 -0.3321
 1981SOL    HW1 6521   8.408   6.864   0.253  0.8368 -1.5647 -1.8553
 1981SOL    HW2 6522   8.459   6.905   0.116  2.7095  0.1249 -0.7209
 1982SOL     OW 6523   5.912   1.998   2.158  0.0222  0.2623  0.4025
 1982SOL    HW1 6524   5.910   1.919   2.211 -0.5213  1.4202  2.1637
 1982SOL    HW2 6525   5.960   2.062   2.211  0.4582  1.1383 -0.9803
 1983SOL     OW 6526   0.231   1.796   1.294  0.1860 -0.4841 -0.3251
 1983SOL    HW1 6527   0.270   1.804   1.207  0.9937 -2.9401 -0.2497
 1983SOL    HW2 6528   0.262   1.873   1.341  2.4840 -0.7845 -1.2228
 1984SOL     OW 6529   3.492   1.661   2.771 -0.0861  0.1095  0.0849
 1984SOL    HW1 6530   3.475   1.606   2.847 -1.3668 -0.8834 -0.8628
 1984SOL    HW2 6531   3.413   1.715   2.762 -0.0949 -0.0221 -0.7064
 1985SOL     OW 6532   5.722   9.423   9.078  0.1539  0.0551  0.1933
 1985SOL    HW1 6533   5.757   9.378   9.155 -1.1453  1.2141  1.5189
 1985SOL    HW2 6534   5.761   9.377   9.004 -1.9527 -4.1500  1.3579
 1986SOL     OW 6535   7.292   5.066   4.685  0.0810 -0.4206  0.3288
 1986SOL    HW1 6536   7.289   5.146   4.633 -1.1772 -0.6408  0.0481
 1986SOL    HW2 6537   7.217   5.015   4.656  0.1871 -1.1862  1.3475
 1987SOL     OW 6538   8.335   9.616   0.488  0.0188 -0.6311  0.1945
 1987SOL    HW1 6539   8.247   9.580   0.500 -1.0679  1.6889 -0.0158
 1987SOL    HW2 6540   8.323   9.682   0.418  1.9049 -0.2215  0.2249
 1988SOL     OW 6541   9.789   7.042   7.777 -0.7956 -0.2822 -0.4453
 1988SOL    HW1 6542   9.844   7.099   7.831 -1.4955 -0.1669  0.1512
 1988SOL    HW2 6543   9.704   7.041   7.821 -1.7347  0.7030 -2.1226
 1989SOL     OW 6544   4.431   3.328   0.509  0.0563 -0.1075 -0.1681
 1989SOL    HW1 6545   4.433   3.354   0.417 -0.7547  0.0080 -0.1603
 1989SOL    HW2 6546   4.442   3.233   0.508 -1.0384 -0.2454 -0.4654
 1990SOL     OW 6547   3.389   9.765   1.947  0.0487 -0.0321  0.0142
 1990SOL    HW1 6548   3.329   9.749   1.875 -0.1241  0.6135  0.0133
 1990SOL    HW2 6549   3.382   9.859   1.964 -0.8406 -0.3630  1.6804
 1991SOL     OW 6550   7.176   1.162   8.059  0.4505  1.1215  0.4215
 1991SOL    HW1 6551   7.084   1.184   8.049  0.6448  1.6052 -0.3645
 1991SOL    HW2 6552   7.191   1.169   8.154 -0.9934 -1.8714  0.9719
 1992SOL     OW 6553   4.605   4.181   9.620 -0.4536 -0.8244  0.2040
 1992SOL    HW1 6554   4.599   4.215   9.709 -2.0115  1.1147 -0.5512
 1992SOL    HW2 6555   4.668   4.239   9.577 -1.2010 -0.4818 -0.4499
 1993SOL     OW 6556   0.993   6.487   4.359  0.0150 -0.1570 -0.3909
 1993SOL    HW1 6557   0.939   6.535   4.422 -0.3998 -1.4926  0.3117
 1993SOL    HW2 6558   0.962   6.515   4.273 -0.7260  0.2477  0.0055
 1994SOL     OW 6559   5.036   2.401   3.865 -0.1497  0.5829  0.0136
 1994SOL    HW1 6560   4.995   2.323   3.903 -1.5593  0.5615 -1.4343
 1994SOL    HW2 6561   5.121   2.371   3.833 -1.0721 -0.6309 -1.4032
 1995SOL     OW 6562   5.929   9.378   0.335  0.2716  0.6168  0.4123
 1995SOL    HW1 6563   5.845   9.401   0.296 -0.6012 -0.2804  1.6627
 1995SOL    HW2 6564   5.992   9.438   0.294 -0.4202 -0.6006 -2.7526
 1996SOL     OW 6565   0.161   7.400   6.276  0.0079  0.1849  0.0714
 1996SOL    HW1 6566   0.155   7.490   6.244  0.4582 -0.6553 -2.6122
 1996SOL    HW2 6567   0.252   7.376   6.261 -0.3564 -1.0527 -0.2189
 1997SOL     OW 6568   2.723   0.469   1.458 -0.8420 -0.3046  0.2385
 1997SOL    HW1 6569   2.764   0.452   1.543 -1.8770  1.3027  1.0989
 1997SOL    HW2 6570   2.760   0.402   1.400  1.2846 -0.3121  1.4962
 1998SOL     OW 6571   8.367   2.907   3.091 -0.0655  0.2042 -0.4269
 1998SOL    HW1 6572   8.398   2.937   3.005  0.9967 -1.2279 -0.5913
 1998SOL    HW2 6573   8.327   2.822   3.073  1.3798 -0.7546  0.6279
 1999SOL     OW 6574   7.959   9.125   7.523 -0.1338 -0.3848  0.1926
 1999SOL    HW1 6575   7.989   9.054   7.466  0.5084 -0.5594  0.7332
 1999SOL    HW2 6576   7.924   9.190   7.464  0.3334 -0.6541 -0.3909
 2000SOL     OW 6577   6.086   6.984   8.064 -0.0187 -0.1139  0.8214
 2000SOL    HW1 6578   6.060   7.076   8.054  0.0512  0.1283  2.6721
 2000SOL    HW2 6579   6.030   6.950   8.134  0.9697 -1.0760  1.1705
 2001SOL     OW 6580   6.577   0.863   2.865 -0.5849 -0.0797 -0.0177
 2001SOL    HW1 6581   6.569   0.939   2.922  1.1592  0.3379 -0.2992
 2001SOL    HW2 6582   6.487   0.830   2.858 -0.8026 -0.8158  3.8367
 2002SOL     OW 6583   3.586   5.966   7.943  0.0326 -1.0177  0.4195
 2002SOL    HW1 6584   3.617   5.877   7.963  2.4118 -0.9909 -2.4880
 2002SOL    HW2 6585   3.528   5.954   7.867 -1.5434 -0.2463  1.4373
 2003SOL     OW 6586   1.910   1.871   3.620  0.4340 -0.4509  0.2223
 2003SOL    HW1 6587   1.918   1.943   3.558  0.0617  0.6210  1.3824
 2003SOL    HW2 6588   1.816   1.857   3.629  0.5068 -1.2744 -0.1994
 2004SOL     OW 6589   6.628   1.856   2.602  0.1090  0.2909  0.1689
 2004SOL    HW1 6590   6.627   1.917   2.676 -0.5927  1.6589 -0.9282
 2004SOL    HW2 6591   6.539   1.823   2.597 -0.4768  1.9556 -1.4169
 2005SOL     OW 6592   3.610   2.625   3.369  0.3826  0.0498 -0.3511
 2005SOL    HW1 6593   3.549   2.557   3.396  1.6989 -1.2113 -0.4798
 2005SOL    HW2 6594   3.689   2.610   3.421  0.1905  2.4787  0.8211
 2006SOL     OW 6595   4.194   1.932   4.267 -0.1231  0.4468  0.1681
 2006SOL    HW1 6596   4.151   1.856   4.305 -1.6025 -0.0454 -2.2591
 2006SOL    HW2 6597   4.270   1.897   4.221  0.1735  0.6677  0.4877
 2007SOL     OW 6598   2.888   6.501   6.126 -0.0772 -0.0148 -0.1241
 2007SOL    HW1 6599   2.847   6.414   6.125  0.7067 -0.4904  2.1745
 2007SOL    HW2 6600   2.978   6.485   6.097 -0.7868  0.6726 -3.0387
 2008SOL     OW 6601   1.963   1.605   8.092 -0.4713  0.0190  0.1043
 2008SOL    HW1 6602   1.997   1.554   8.018  1.1692  1.2062 -0.0080
 2008SOL    HW2 6603   1.939   1.539   8.157 -1.3120 -1.0254 -1.1859
 2009SOL     OW 6604   6.228   3.244   7.268 -0.2269 -0.2340 -0.4038
 2009SOL    HW1 6605   6.150   3.230   7.321  0.1641 -0.3561  0.1519
 2009SOL    HW2 6606   6.215   3.188   7.191 -0.7037 -0.2192 -0.3351
 2010SOL     OW 6607   0.853   6.656   1.525  0.0802 -0.2044  0.2281
 2010SOL    HW1 6608   0.910   6.671   1.450 -0.5992 -3.4149 -1.0785
 2010SOL    HW2 6609   0.913   6.637   1.598  0.7110  0.1207 -0.2025
 2011SOL     OW 6610   5.295   8.871   6.951  0.0212 -0.1018  0.0632
 2011SOL    HW1 6611   5.321   8.893   7.040  0.7829  1.2599 -0.4565
 2011SOL    HW2 6612   5.344   8.792   6.930 -0.0267 -0.3257  0.7909
 2012SOL     OW 6613   1.853   8.643   3.133  0.1743 -0.4889  0.1050
 2012SOL    HW1 6614   1.884   8.699   3.061  0.4651  1.6078  1.7579
 2012SOL    HW2 6615   1.918   8.573   3.138  0.8459  0.0353 -0.8479
 2013SOL     OW 6616   8.557   4.524   4.260  0.2428  0.2034  0.4558
 2013SOL    HW1 6617   8.543   4.606   4.307  0.4532  0.5393 -0.0620
 2013SOL    HW2 6618   8.493   4.527   4.189  0.7919  0.2866 -0.0388
 2014SOL     OW 6619   1.370   2.461   7.821  0.0104 -0.4562  0.4732
 2014SOL    HW1 6620   1.402   2.451   7.732  0.2367 -0.2884  0.5342
 2014SOL    HW2 6621   1.360   2.556   7.833  2.5161 -0.2228  1.4846
 2015SOL     OW 6622   4.995   8.735   8.844  0.2410  0.2018  0.1980
 2015SOL    HW1 6623   4.957   8.759   8.929  0.5451 -1.2556  0.7826
 2015SOL    HW2 6624   5.080   8.779   8.842  0.4443 -0.1350  0.8886
 2016SOL     OW 6625   3.395   7.326   4.717  0.5177  0.3399 -0.1139
 2016SOL    HW1 6626   3.466   7.277   4.761 -0.8285 -0.9319  0.7403
 2016SOL    HW2 6627   3.346   7.365   4.789  0.4588  1.3938 -0.7137
 2017SOL     OW 6628   5.247   7.854   5.408  0.7410 -0.2721 -0.5264
 2017SOL    HW1 6629   5.176   7.910   5.439 -0.5472 -1.6257 -0.9094
 2017SOL    HW2 6630   5.308   7.914   5.366 -0.7197  0.8297 -1.1719
 2018SOL     OW 6631   4.902   3.120   3.797 -0.1135 -0.1763 -0.2493
 2018SOL    HW1 6632   4.824   3.073   3.823 -0.2452  0.3067  0.2430
 2018SOL    HW2 6633   4.932   3.076   3.718  0.5288 -1.9492  0.9211
 2019SOL     OW 6634   4.498   3.987   9.432 -0.2017 -0.2112  0.0912
 2019SOL    HW1 6635   4.411   3.992   9.472 -1.3775  3.4436 -2.4221
 2019SOL    HW2 6636   4.545   4.062   9.469  1.1891 -0.9423 -0.1311
 2020SOL     OW 6637   7.803   2.954   2.412  0.1872 -0.5936  0.3388
 2020SOL    HW1 6638   7.876   3.004   2.448  0.3919 -1.1231  0.6645
 2020SOL    HW2 6639   7.755   3.017   2.358  2.1212 -0.7173 -1.6990
 2021SOL     OW 6640   5.012   8.761   3.569 -0.4295  0.0901  0.2945
 2021SOL    HW1 6641   5.005   8.796   3.479  1.3508 -0.5130 -0.1151
 2021SOL    HW2 6642   5.079   8.694   3.563 -1.0303 -0.6867  1.8997
 2022SOL     OW 6643   0.854   9.953   4.606  0.5167  0.3178  0.3068
 2022SOL    HW1 6644   0.761   9.974   4.605  0.4980  0.2883  1.0770
 2022SOL    HW2 6645   0.857   9.857   4.601  0.5801  0.3956 -2.2284
 2023SOL     OW 6646   1.734   7.598   9.652 -0.2190  0.1383  0.2325
 2023SOL    HW1 6647   1.698   7.650   9.723 -0.2720  0.4783 -0.0442
 2023SOL    HW2 6648   1.676   7.613   9.578 -0.4386 -0.5924  0.2480
 2024SOL     OW 6649   0.554   3.408   8.421  0.0245  0.4874  0.0514
 2024SOL    HW1 6650   0.553   3.503   8.411 -1.5375  0.6160  1.0679
 2024SOL    HW2 6651   0.570   3.394   8.514  2.2662 -0.3305 -0.4084
 2025SOL     OW 6652   7.461   3.068   8.489  0.2231 -0.2938 -0.3608
 2025SOL    HW1 6653   7.403   3.062   8.414 -1.1150 -1.1333  0.6929
 2025SOL    HW2 6654   7.544   3.098   8.453 -0.5599 -0.0667 -2.0654
 2026SOL     OW 6655   0.352   5.626   5.742  0.0844 -0.3916  0.5379
 2026SOL    HW1 6656   0.413   5.601   5.811  1.1087  2.0316  0.6275
 2026SOL    HW2 6657   0.325   5.715   5.765  0.0430  0.2870 -1.8729
 2027SOL     OW 6658   1.047   7.714   4.532 -0.2458  0.3911  0.1692
 2027SOL    HW1 6659   0.984   7.671   4.590 -0.4678 -1.3007 -1.2327
 2027SOL    HW2 6660   1.125   7.657   4.534 -0.9356 -0.8564 -2.5540
 2028SOL     OW 6661   0.969   6.656   5.751  0.5589 -0.5842 -0.5338
 2028SOL    HW1 6662   1.056   6.643   5.788  0.2793 -1.5287 -0.1961
 2028SOL    HW2 6663   0.908   6.628   5.819 -0.0289  0.3678 -0.6448
 2029SOL     OW 6664   5.146   0.972   0.972  0.2548  0.3035  0.0932
 2029SOL    HW1 6665   5.116   0.888   1.008  0.5018 -0.1865 -0.8243
 2029SOL    HW2 6666   5.198   1.011   1.043 -0.9983  0.3315  1.0355
 2030SOL     OW 6667   7.320   1.325   0.664  0.2558  0.1695 -0.4552
 2030SOL    HW1 6668   7.394   1.386   0.670  0.0304  0.4969 -0.9789
 2030SOL    HW2 6669   7.354   1.251   0.615  1.0231 -0.8911  1.5497
 2031SOL     OW 6670   5.118   7.089   7.958 -0.4505 -0.2994 -0.1942
 2031SOL    HW1 6671   5.086   6.999   7.967 -0.0658 -0.7196 -2.4841
 2031SOL    HW2 6672   5.190   7.095   8.021 -1.6308 -0.9787  1.2885
 2032SOL     OW 6673   3.456   6.843   3.986 -0.3452 -0.3205 -0.1551
 2032SOL    HW1 6674   3.432   6.910   3.922 -0.3501 -0.7463 -0.6088
 2032SOL    HW2 6675   3.379   6.835   4.042  0.0053  0.7237  0.4940
 2033SOL     OW 6676   8.952   6.203   9.161 -0.1665  0.8350  0.3082
 2033SOL    HW1 6677   9.041   6.176   9.184 -0.2599 -0.8332 -1.1072
 2033SOL    HW2 6678   8.932   6.274   9.222  1.8133  0.6778  1.2067
 2034SOL     OW 6679   4.790   7.403   0.462  0.0507 -0.9718 -0.9890
 2034SOL    HW1 6680   4.792   7.323   0.515 -0.9674 -0.5488 -0.2700
 2034SOL    HW2 6681   4.763   7.471   0.524  1.4447  0.0522 -1.4547
 2035SOL     OW 6682   7.125   8.979  10.000  0.2091  0.8465 -0.3035
 2035SOL    HW1 6683   7.133   9.003   9.908 -0.4960 -1.2822 -0.9922
 2035SOL    HW2 6684   7.031   8.978  10.017 -0.0987 -3.4010 -1.0648
 2036SOL     OW 6685   3.996   1.961   0.977 -0.6077  0.2920 -0.5337
 2036SOL    HW1 6686   3.985   1.986   0.885 -0.4010  1.6469 -0.2181
 2036SOL    HW2 6687   3.978   2.042   1.026 -0.2803 -0.2939  0.5917
 2037SOL     OW 6688   5.759   3.558   9.301 -0.1451 -0.6515  0.5691
 2037SOL    HW1 6689   5.728   3.628   9.243 -0.9719  0.3728  2.1861
 2037SOL    HW2 6690   5.718   3.479   9.265 -2.8530  0.3264  1.2147
 2038SOL     OW 6691   2.054   8.420   0.600 -0.0774 -0.3223  0.0662
 2038SOL    HW1 6692   2.055   8.411   0.505  0.9281  1.6241 -0.1842
 2038SOL    HW2 6693   1.971   8.384   0.628 -0.0144 -1.7295 -1.4516
 2039SOL     OW 6694   8.457   1.298   3.858 -0.5332 -0.1645 -0.0460
 2039SOL    HW1 6695   8.476   1.215   3.901  0.3736  0.5664  1.0372
 2039SOL    HW2 6696   8.385   1.279   3.797 -1.5439 -1.3529  1.4593
 2040SOL     OW 6697   3.546   9.041   4.818 -0.4056 -0.3288  0.0714
 2040SOL    HW1 6698   3.532   8.972   4.753 -1.1499  0.4215 -0.5844
 2040SOL    HW2 6699   3.476   9.104   4.802 -1.1668 -0.5531  2.2084
 2041SOL     OW 6700   6.200   6.243   5.905  0.1963 -0.1697  0.0184
 2041SOL    HW1 6701   6.296   6.242   5.908  0.2117 -0.5315 -0.5068
 2041SOL    HW2 6702   6.178   6.314   5.846  0.1599 -0.5319 -0.4101
 2042SOL     OW 6703   1.892   0.844   0.947 -0.3368  0.3407 -0.1648
 2042SOL    HW1 6704   1.855   0.932   0.942 -2.4595 -0.3993  1.2103
 2042SOL    HW2 6705   1.933   0.839   1.033  0.0647  0.0876 -0.3665
 2043SOL     OW 6706   2.680   9.528   2.997  0.1444  0.3410  1.2482
 2043SOL    HW1 6707   2.657   9.435   2.999 -2.0484  0.8057  0.3821
 2043SOL    HW2 6708   2.752   9.533   2.934 -2.3977 -0.3568 -1.9645
 2044SOL     OW 6709   4.724   8.947   6.640 -0.5440 -0.2677 -0.2897
 2044SOL    HW1 6710   4.632   8.938   6.614 -0.9897  1.3304  0.6045
 2044SOL    HW2 6711   4.752   8.858   6.661 -1.4285 -0.9881 -1.9868
 2045SOL     OW 6712   9.967   5.379   4.666  0.1958  0.6676  0.4478
 2045SOL    HW1 6713   9.913   5.406   4.592  0.7708 -1.3866 -0.8027
 2045SOL    HW2 6714  10.052   5.360   4.627  0.1692 -1.6666  1.3647
 2046SOL     OW 6715   3.763   4.623   6.194 -0.2776 -0.4892 -0.2650
 2046SOL    HW1 6716   3.709   4.643   6.270 -0.1382  0.6822 -0.4579
 2046SOL    HW2 6717   3.758   4.528   6.186 -0.3951 -0.6277  1.1259
 2047SOL     OW 6718   8.168   9.818   9.604  0.2714  0.1124  0.1920
 2047SOL    HW1 6719   8.073   9.829   9.603  0.4058  1.6766 -2.1311
 2047SOL    HW2 6720   8.185   9.763   9.681 -2.4219  0.3634  1.0564
 2048SOL     OW 6721   9.207   0.577   8.193  0.1092 -0.0315  0.1257
 2048SOL    HW1 6722   9.155   0.657   8.195  0.3907  0.1791 -0.6102
 2048SOL    HW2 6723   9.173   0.525   8.265 -0.3073  0.6069  0.4041
 2049SOL     OW 6724  -0.001   0.059   9.282  0.7234 -0.2022  0.7957
 2049SOL    HW1 6725   0.030  -0.018   9.330  0.5750 -0.2260  0.8527
 2049SOL    HW2 6726  -0.007   0.127   9.349  2.3083  0.2872  0.4957
 2050SOL     OW 6727   8.632   2.672   4.412 -0.1538  0.6852 -0.1711
 2050SOL    HW1 6728   8.666   2.692   4.325  1.2104  1.0785  0.4243
 2050SOL    HW2 6729   8.555   2.617   4.396  0.5049  0.1222 -1.6004
 2051SOL     OW 6730   8.259   3.204   8.992 -0.2196  0.3501  0.1530
 2051SOL    HW1 6731   8.328   3.248   9.041 -0.5479  0.9904  0.0426
 2051SOL    HW2 6732   8.241   3.124   9.043  1.1971 -0.2764 -0.2808
 2052SOL     OW 6733   3.745   3.362   4.411 -0.2051 -0.6234 -0.2836
 2052SOL    HW1 6734   3.655   3.380   4.440  0.6942  1.8570  1.2906
 2052SOL    HW2 6735   3.779   3.448   4.386  1.6576 -1.5761 -1.1650
 2053SOL     OW 6736   1.400   5.786   9.094 -0.3590 -0.1621  0.2251
 2053SOL    HW1 6737   1.376   5.878   9.087 -1.2454 -0.3679  0.4725
 2053SOL    HW2 6738   1.317   5.739   9.093  0.1508 -1.1243 -1.9588
 2054SOL     OW 6739   4.910   3.227   4.438  0.3997  0.1764 -0.0949
 2054SOL    HW1 6740   4.874   3.299   4.386  1.6142  0.3946 -0.6689
 2054SOL    HW2 6741   4.976   3.268   4.493  1.2531 -0.5250 -0.5744
 2055SOL     OW 6742   0.607   9.406   3.697  0.2043 -0.8718  0.3345
 2055SOL    HW1 6743   0.592   9.326   3.647 -0.4267 -0.7683  0.3475
 2055SOL    HW2 6744   0.535   9.464   3.672  0.3511 -0.5095  0.7349
 2056SOL     OW 6745   0.597   6.500   1.808  0.6349  0.1145  0.4353
 2056SOL    HW1 6746   0.564   6.532   1.724  2.9273  3.1736  0.5734
 2056SOL    HW2 6747   0.529   6.524   1.871 -0.3664 -0.7626 -0.2701
 2057SOL     OW 6748   0.867   4.896   8.419  0.0716  0.1888 -0.2498
 2057SOL    HW1 6749   0.866   4.811   8.463  0.7727 -0.9580 -2.2861
 2057SOL    HW2 6750   0.959   4.923   8.422  0.5144 -0.8332 -2.5344
 2058SOL     OW 6751   8.063   2.591   8.175 -0.3276  0.5506  0.3075
 2058SOL    HW1 6752   8.136   2.532   8.153 -0.2359  1.2590 -1.4328
 2058SOL    HW2 6753   8.046   2.575   8.268  0.0129 -1.8747  0.0145
 2059SOL     OW 6754   9.647   3.908   3.987  0.0904 -0.4997  0.0509
 2059SOL    HW1 6755   9.585   3.897   4.060 -0.4794 -0.6271 -0.4436
 2059SOL    HW2 6756   9.732   3.887   4.025 -0.2495 -0.9599  0.5848
 2060SOL     OW 6757   8.445   9.717   1.807  0.1971 -0.7678 -0.1050
 2060SOL    HW1 6758   8.470   9.779   1.875  1.2429 -1.0987 -0.1640
 2060SOL    HW2 6759   8.438   9.633   1.852  3.2337 -1.4750 -0.7175
 2061SOL     OW 6760   5.845   1.559   1.493  0.4822 -0.0198  0.1566
 2061SOL    HW1 6761   5.872   1.641   1.451  0.8725 -0.8021 -1.1960
 2061SOL    HW2 6762   5.752   1.573   1.514  0.3809  0.5623 -0.6037
 2062SOL     OW 6763   1.424   8.720   1.749  0.6122 -0.2043  0.3481
 2062SOL    HW1 6764   1.468   8.699   1.831 -0.7248  1.1749  1.4881
 2062SOL    HW2 6765   1.489   8.766   1.697  1.8476 -2.1459  0.0884
 2063SOL     OW 6766   0.305   0.224   9.736  0.1722 -0.0498  0.4308
 2063SOL    HW1 6767   0.284   0.130   9.735  0.6383 -0.1611 -0.9179
 2063SOL    HW2 6768   0.283   0.252   9.825 -0.6426 -1.2799  0.6509
 2064SOL     OW 6769   7.999   3.744   0.057 -0.0528  0.6168  0.6744
 2064SOL    HW1 6770   7.991   3.680  -0.014 -1.4736  2.3898 -0.8800
 2064SOL    HW2 6771   8.057   3.811   0.022  2.1133 -0.1209  2.6033
 2065SOL     OW 6772   5.057   9.145   8.646  0.1895  0.1468  0.0882
 2065SOL    HW1 6773   5.126   9.196   8.604  0.2823 -0.7774 -0.9270
 2065SOL    HW2 6774   5.095   9.058   8.658  0.0771  0.2953  1.9049
 2066SOL     OW 6775   3.358   6.001   9.671  0.0040 -0.6451 -0.0331
 2066SOL    HW1 6776   3.358   5.961   9.584  0.6731 -0.9379  0.0974
 2066SOL    HW2 6777   3.428   5.955   9.719 -2.1599 -2.5584  1.5808
 2067SOL     OW 6778   3.114   7.553   4.469  0.2264 -0.1553  0.1788
 2067SOL    HW1 6779   3.101   7.459   4.453  1.0232  0.0374 -1.9023
 2067SOL    HW2 6780   3.208   7.563   4.483  0.2435  0.4142 -0.2920
 2068SOL     OW 6781   9.073   7.642   1.859  0.1062 -0.3545  0.2139
 2068SOL    HW1 6782   9.000   7.696   1.829 -1.3131 -0.9104  2.4218
 2068SOL    HW2 6783   9.031   7.562   1.891  1.9068 -1.5927 -0.3804
 2069SOL     OW 6784   9.255   8.824   5.004 -0.0005 -0.9925  0.2868
 2069SOL    HW1 6785   9.311   8.759   4.961 -0.8509 -1.8206  0.4140
 2069SOL    HW2 6786   9.176   8.827   4.950 -0.7858 -1.5175  1.3763
 2070SOL     OW 6787   6.559   8.176   4.469  0.5596 -0.2389 -0.1286
 2070SOL    HW1 6788   6.483   8.126   4.498  0.3569 -0.0598 -0.3448
 2070SOL    HW2 6789   6.532   8.215   4.385  1.0350 -0.5212 -0.4167
 2071SOL     OW 6790   4.974   0.254   1.272  0.0030 -0.3239  0.3846
 2071SOL    HW1 6791   5.048   0.313   1.258 -0.5521  0.1561 -0.6825
 2071SOL    HW2 6792   4.962   0.211   1.187 -2.1152  1.0116 -0.0482
 2072SOL     OW 6793   7.298   9.493   8.218  0.2740  0.2598  0.3998
 2072SOL    HW1 6794   7.392   9.514   8.220  0.2388  0.4654  0.0336
 2072SOL    HW2 6795   7.283   9.443   8.298  0.9456 -0.8270 -0.1310
 2073SOL     OW 6796   4.592   1.136   6.473 -0.1435  0.2235 -0.2564
 2073SOL    HW1 6797   4.602   1.218   6.423  2.1671  0.8111  1.0111
 2073SOL    HW2 6798   4.562   1.164   6.560  0.6854 -0.2569  0.1968
 2074SOL     OW 6799   7.308   5.804   4.474 -0.2386 -0.0982 -0.1852
 2074SOL    HW1 6800   7.389   5.814   4.523 -0.4401 -0.1577  0.1637
 2074SOL    HW2 6801   7.253   5.878   4.502 -1.5083 -1.7282  1.9777
 2075SOL     OW 6802   3.366   4.270   9.721 -0.7816 -0.0760 -0.0520
 2075SOL    HW1 6803   3.285   4.227   9.747 -0.0893  0.0931  2.6119
 2075SOL    HW2 6804   3.425   4.197   9.700 -0.4725 -0.3993  1.7686
 2076SOL     OW 6805   7.358   0.302   8.626 -0.5449 -0.1217 -0.3384
 2076SOL    HW1 6806   7.362   0.248   8.705 -3.8491 -2.4501 -1.5038
 2076SOL    HW2 6807   7.361   0.239   8.554 -0.1510  1.7041 -2.0046
 2077SOL     OW 6808   1.518   2.598   2.339 -0.4603 -0.4816 -0.5651
 2077SOL    HW1 6809   1.560   2.561   2.417 -1.0479  1.3754  0.7245
 2077SOL    HW2 6810   1.586   2.595   2.272  0.9594  0.2048  0.7611
 2078SOL     OW 6811   9.544   4.440   7.418  0.2167  0.4551 -0.7571
 2078SOL    HW1 6812   9.620   4.481   7.458 -0.4055  2.3443 -1.4040
 2078SOL    HW2 6813   9.506   4.508   7.362 -1.1645 -0.8623 -1.5166
 2079SOL     OW 6814   5.990   9.341   1.162 -0.8438  0.7260 -0.8367
 2079SOL    HW1 6815   6.060   9.277   1.171 -0.5261  1.2293  0.5339
 2079SOL    HW2 6816   5.915   9.301   1.206 -0.9480  0.8768 -0.8762
 2080SOL     OW 6817   2.174   2.319   5.283 -0.5450  0.4646 -0.0777
 2080SOL    HW1 6818   2.091   2.286   5.317 -0.3479  1.0201  0.9801
 2080SOL    HW2 6819   2.204   2.381   5.349  1.6300 -1.0741  0.5132
 2081SOL     OW 6820   9.627   9.230   3.085  0.1264  0.2821  0.7104
 2081SOL    HW1 6821   9.612   9.321   3.112 -1.2002 -0.6605  3.6004
 2081SOL    HW2 6822   9.682   9.194   3.155  1.8606 -0.8154 -1.1306
 2082SOL     OW 6823   7.643   1.707   1.748 -0.1931 -0.4402  0.3120
 2082SOL    HW1 6824   7.614   1.620   1.720 -0.2536 -0.4842  0.5136
 2082SOL    HW2 6825   7.567   1.746   1.790 -0.4947  0.1266 -0.7162
 2083SOL     OW 6826   9.557   4.334   4.788  0.4424 -0.3997 -0.4373
 2083SOL    HW1 6827   9.525   4.384   4.863  0.5797  0.4967 -0.9733
 2083SOL    HW2 6828   9.611   4.265   4.828  2.1269  1.2202  0.2354
 2084SOL     OW 6829   2.675   3.327   6.956  0.0564 -0.1957  0.4539
 2084SOL    HW1 6830   2.754   3.273   6.952 -0.5596 -1.2244  1.4945
 2084SOL    HW2 6831   2.704   3.409   6.995  0.8699 -0.0195 -0.4858
 2085SOL     OW 6832   0.582   1.265   9.155  0.3654 -0.0270  0.1999
 2085SOL    HW1 6833   0.508   1.325   9.148 -0.0514 -0.3797  1.3774
 2085SOL    HW2 6834   0.632   1.279   9.074 -1.0928  0.0545 -0.7193
 2086SOL     OW 6835   6.619   2.050   6.587 -0.1584 -0.0580 -0.1396
 2086SOL    HW1 6836   6.651   2.117   6.648  1.2644 -0.2539 -0.6255
 2086SOL    HW2 6837   6.629   1.967   6.634  1.8478 -0.3134 -0.9185
 2087SOL     OW 6838   9.528   9.178   6.692 -0.2698 -0.7525 -0.2833
 2087SOL    HW1 6839   9.597   9.117   6.667 -0.3133  0.4511 -3.7699
 2087SOL    HW2 6840   9.471   9.183   6.615 -1.4401  2.0986  0.6502
 2088SOL     OW 6841   9.363   7.161   3.365 -1.0018 -0.9185 -0.0109
 2088SOL    HW1 6842   9.435   7.144   3.305  0.5249  0.9481  1.1710
 2088SOL    HW2 6843   9.395   7.131   3.450 -0.1897  2.7578  1.1729
 2089SOL     OW 6844   0.958   2.472   6.377  0.3334  0.6018  0.0165
 2089SOL    HW1 6845   0.975   2.536   6.309 -0.0803 -0.9054 -1.5871
 2089SOL    HW2 6846   1.042   2.461   6.422  0.5036  1.9201  0.0654
 2090SOL     OW 6847   2.606   7.183   2.644  0.2997 -0.4261 -0.1177
 2090SOL    HW1 6848   2.612   7.088   2.632 -0.9543 -0.5132 -0.1692
 2090SOL    HW2 6849   2.576   7.216   2.560  2.4617  0.2522 -0.6861
 2091SOL     OW 6850   5.606   9.812   7.538  0.2852  0.3598  0.4195
 2091SOL    HW1 6851   5.679   9.850   7.588  0.5989  0.3179  0.0029
 2091SOL    HW2 6852   5.557   9.761   7.602  0.6594  0.3395  0.6937
 2092SOL     OW 6853   2.858   9.360   5.021 -0.1548  0.0642  0.2492
 2092SOL    HW1 6854   2.780   9.412   5.037 -1.0155 -1.4754  1.2912
 2092SOL    HW2 6855   2.830   9.269   5.034  1.7165 -0.5507  0.3112
 2093SOL     OW 6856   9.396   6.498   2.760 -0.9497  0.0358 -0.0182
 2093SOL    HW1 6857   9.473   6.444   2.781 -0.9072 -0.1543 -0.6517
 2093SOL    HW2 6858   9.356   6.517   2.845 -1.3526 -1.5649  0.1787
 2094SOL     OW 6859   1.745   0.829   6.586  0.4346  0.4853  0.0200
 2094SOL    HW1 6860   1.791   0.751   6.556 -1.1286 -0.3261 -0.3804
 2094SOL    HW2 6861   1.672   0.794   6.638  0.5142  1.7346  1.0022
 2095SOL     OW 6862   5.238   5.605   4.361  0.5607  0.4426 -0.2426
 2095SOL    HW1 6863   5.272   5.541   4.423  0.3850  0.7627  0.1866
 2095SOL    HW2 6864   5.284   5.587   4.280  0.6186 -0.1353 -0.0822
 2096SOL     OW 6865   1.688   9.551   6.823  0.3684  0.0705  0.2162
 2096SOL    HW1 6866   1.730   9.470   6.793  0.8809 -0.5486  2.3664
 2096SOL    HW2 6867   1.752   9.619   6.804 -0.2214  0.0904 -1.9642
 2097SOL     OW 6868   6.008   2.465   6.431 -0.3663  0.4323  0.1168
 2097SOL    HW1 6869   6.074   2.398   6.411 -0.0192  0.8880 -0.2746
 2097SOL    HW2 6870   6.039   2.543   6.386  1.1081  1.8715  3.3155
 2098SOL     OW 6871   7.242   4.008   1.219  0.0240  0.4259  0.0760
 2098SOL    HW1 6872   7.328   4.048   1.208 -0.4095  1.4378  0.2609
 2098SOL    HW2 6873   7.246   3.928   1.166  0.9715  0.6192 -0.1610
 2099SOL     OW 6874   9.469   9.644   8.352 -0.1765 -0.2001  0.7170
 2099SOL    HW1 6875   9.469   9.730   8.394  0.4870 -0.1148  0.5620
 2099SOL    HW2 6876   9.377   9.620   8.344 -0.3782  0.6390  0.4618
 2100SOL     OW 6877   0.748   2.939   6.514  0.2972 -0.8897 -0.7007
 2100SOL    HW1 6878   0.811   2.866   6.513  1.4114  0.0515 -1.2832
 2100SOL    HW2 6879   0.796   3.011   6.554 -0.6560 -0.3460 -0.5234
 2101SOL     OW 6880   0.499   1.565   2.093 -0.6054 -0.6990  0.0323
 2101SOL    HW1 6881   0.540   1.483   2.122  0.1836 -0.4349 -0.3366
 2101SOL    HW2 6882   0.490   1.555   1.999 -0.7340 -0.4535  0.0199
 2102SOL     OW 6883   1.426   3.762   2.336  0.0304 -0.5701 -0.4800
 2102SOL    HW1 6884   1.496   3.770   2.401 -1.1878 -2.6191  1.2152
 2102SOL    HW2 6885   1.413   3.668   2.326 -2.2711 -0.2671 -0.9583
 2103SOL     OW 6886   1.629   5.341   5.762  0.5458  0.1328 -0.3084
 2103SOL    HW1 6887   1.569   5.356   5.690  0.7925  0.6811 -0.4028
 2103SOL    HW2 6888   1.656   5.249   5.753 -0.5808 -0.2433 -0.0241
 2104SOL     OW 6889   9.596   1.640   5.139 -0.5306 -0.0896 -0.2673
 2104SOL    HW1 6890   9.651   1.719   5.137 -2.5263  1.5021  1.6538
 2104SOL    HW2 6891   9.549   1.642   5.055  0.4863 -0.0687 -0.8522
 2105SOL     OW 6892   6.925   1.758   7.635  0.1626  0.0043  0.4499
 2105SOL    HW1 6893   6.894   1.845   7.660  1.3582  0.5015  0.2294
 2105SOL    HW2 6894   6.956   1.720   7.717 -1.0962 -0.5548  0.6999
 2106SOL     OW 6895   5.040   0.389   1.836 -0.1264 -0.7191  0.1301
 2106SOL    HW1 6896   4.974   0.380   1.906 -1.1964 -0.6709 -0.8448
 2106SOL    HW2 6897   5.002   0.453   1.776  1.3532  0.1974  0.1240
 2107SOL     OW 6898   4.284   1.479   3.987 -0.0400 -0.1248  0.0882
 2107SOL    HW1 6899   4.360   1.432   3.953 -0.5541 -0.8211 -0.1267
 2107SOL    HW2 6900   4.291   1.567   3.950  0.0201 -0.5397 -0.8951
 2108SOL     OW 6901   9.177   1.951   9.739 -0.6486  0.0519 -0.3879
 2108SOL    HW1 6902   9.112   2.008   9.781 -1.0692  0.3055 -1.3366
 2108SOL    HW2 6903   9.260   1.998   9.749 -0.8246  0.3389 -0.2571
 2109SOL     OW 6904   1.588   5.707   0.545 -0.4613  0.2806  0.0729
 2109SOL    HW1 6905   1.537   5.769   0.493 -1.0630 -0.7631 -0.6069
 2109SOL    HW2 6906   1.585   5.625   0.496  2.2305  0.2635 -0.2212
 2110SOL     OW 6907   0.570   8.303   8.956  0.0396 -0.2545 -0.3877
 2110SOL    HW1 6908   0.537   8.376   8.904  1.7425  0.9784  0.1528
 2110SOL    HW2 6909   0.493   8.264   8.997 -1.1036  0.0267 -2.1973
 2111SOL     OW 6910   6.574   4.323   8.888 -0.0132 -0.2303  0.3966
 2111SOL    HW1 6911   6.483   4.305   8.913  0.1766  0.8705  2.0430
 2111SOL    HW2 6912   6.605   4.386   8.953  2.1481 -1.0457  0.2475
 2112SOL     OW 6913   0.650   8.823   1.532  0.0283  0.0144 -0.2566
 2112SOL    HW1 6914   0.665   8.818   1.438  0.3550  1.6936 -0.3109
 2112SOL    HW2 6915   0.595   8.900   1.544 -0.3474 -0.4049  0.9090
 2113SOL     OW 6916   7.470   7.008   1.946  0.0525 -0.3736  0.3610
 2113SOL    HW1 6917   7.507   7.048   2.024 -2.2331  1.8024  0.4133
 2113SOL    HW2 6918   7.546   6.969   1.902  1.8282  0.7762  2.2208
 2114SOL     OW 6919   0.360   1.902   4.363  0.3373 -0.1380 -0.0648
 2114SOL    HW1 6920   0.360   1.984   4.314 -0.0565 -1.1285 -1.7964
 2114SOL    HW2 6921   0.290   1.851   4.323  0.5371 -1.3063  1.0324
 2115SOL     OW 6922   9.823   9.485   0.817  0.2030  0.4354 -0.0510
 2115SOL    HW1 6923   9.775   9.565   0.796  0.7790  1.1662  1.2883
 2115SOL    HW2 6924   9.788   9.457   0.902 -0.5210 -1.1884 -0.8321
 2116SOL     OW 6925   0.390   2.044   0.771  0.6359  0.0647  0.5155
 2116SOL    HW1 6926   0.336   1.973   0.735 -0.9116  0.9731  0.9348
 2116SOL    HW2 6927   0.387   2.112   0.705  3.3057 -0.7435 -0.5255
 2117SOL     OW 6928   7.433   6.757   8.654 -0.5277 -0.1983 -0.2707
 2117SOL    HW1 6929   7.506   6.747   8.716 -0.5381  0.1634 -0.1990
 2117SOL    HW2 6930   7.435   6.849   8.631  0.0008 -0.4850 -1.4477
 2118SOL     OW 6931   7.214   0.068   2.728  0.4323  0.5459  0.2258
 2118SOL    HW1 6932   7.132   0.023   2.747  0.1558 -0.0772 -2.2002
 2118SOL    HW2 6933   7.282   0.012   2.767 -0.0812 -0.7236 -0.6476
 2119SOL     OW 6934   9.892   5.437   4.397  0.7552 -0.1263  0.1500
 2119SOL    HW1 6935   9.890   5.531   4.417  0.9263  0.3047 -1.7379
 2119SOL    HW2 6936   9.946   5.430   4.319 -2.3800 -1.3156 -2.1121
 2120SOL     OW 6937   4.193   7.289   5.759 -0.1819  0.1243  0.4253
 2120SOL    HW1 6938   4.282   7.310   5.729 -0.0431 -0.3600  0.4965
 2120SOL    HW2 6939   4.200   7.202   5.798 -0.3739  0.6877  1.8021
 2121SOL     OW 6940   4.166   6.403   0.085  0.0994 -0.1419 -0.3476
 2121SOL    HW1 6941   4.138   6.494   0.070 -1.2794 -0.4773  0.0676
 2121SOL    HW2 6942   4.201   6.403   0.174 -3.5998 -0.7680  1.2889
 2122SOL     OW 6943   8.094   4.534   7.961  0.3799 -0.0015 -0.2421
 2122SOL    HW1 6944   8.099   4.502   8.051  1.3433 -2.2191 -1.0281
 2122SOL    HW2 6945   8.143   4.616   7.962 -1.2813  1.0700  1.6155
 2123SOL     OW 6946   9.052   5.684   0.130  0.3190 -0.6173 -0.4912
 2123SOL    HW1 6947   9.072   5.772   0.100 -0.0879 -0.8642 -1.5465
 2123SOL    HW2 6948   9.102   5.674   0.211 -0.5948  1.0234  0.3400
 2124SOL     OW 6949   6.004   0.237   9.152  0.1585 -0.0824 -0.0499
 2124SOL    HW1 6950   6.080   0.263   9.100 -0.4559 -0.6669 -1.2795
 2124SOL    HW2 6951   6.021   0.273   9.239  0.8432  1.6111 -0.8449
 2125SOL     OW 6952   9.815   3.320   4.984 -0.5085  0.0189  0.2764
 2125SOL    HW1 6953   9.809   3.397   4.928 -1.3085  1.1566  1.8566
 2125SOL    HW2 6954   9.760   3.255   4.941 -2.2669  1.3400  0.4443
 2126SOL     OW 6955   9.632   9.131   7.623  0.3713  0.0227 -0.2591
 2126SOL    HW1 6956   9.613   9.114   7.715 -0.5264 -0.0951 -0.4585
 2126SOL    HW2 6957   9.596   9.056   7.576 -0.8512  0.9465 -0.8625
 2127SOL     OW 6958   2.407   5.398   4.159 -0.2580  0.0850 -0.3437
 2127SOL    HW1 6959   2.333   5.337   4.150 -0.3607  0.0885  0.4261
 2127SOL    HW2 6960   2.481   5.342   4.185 -0.7037  0.4501  1.8775
 2128SOL     OW 6961   4.149   0.029   6.513  0.0684 -0.5236  0.4085
 2128SOL    HW1 6962   4.143   0.048   6.607 -0.3236 -0.1064  0.2984
 2128SOL    HW2 6963   4.112  -0.059   6.504  0.8200 -0.8931  0.7488
 2129SOL     OW 6964   0.774   7.130   1.042 -0.3936 -0.0917 -0.5513
 2129SOL    HW1 6965   0.777   7.112   1.136 -1.0359 -2.0070 -0.8410
 2129SOL    HW2 6966   0.764   7.224   1.035 -2.0467 -0.0764  1.3382
 2130SOL     OW 6967   5.199   2.077   8.822  0.2471  0.0638  0.1938
 2130SOL    HW1 6968   5.250   2.085   8.903  2.0103  1.6422 -1.0132
 2130SOL    HW2 6969   5.134   2.147   8.827  0.6915  0.4878  0.0044
 2131SOL     OW 6970   8.856   4.836   4.558  0.4887  0.6562 -0.1795
 2131SOL    HW1 6971   8.914   4.801   4.490  2.6545 -2.1119  2.7768
 2131SOL    HW2 6972   8.892   4.923   4.576  1.2444  0.5519 -1.0552
 2132SOL     OW 6973   9.206   5.835   3.248 -0.3542 -0.1023  0.3050
 2132SOL    HW1 6974   9.300   5.841   3.233 -0.3410 -0.6257  0.1607
 2132SOL    HW2 6975   9.171   5.790   3.171 -0.6118 -0.6089  0.7010
 2133SOL     OW 6976   2.987   3.374   0.137  0.1857  0.1704 -0.0951
 2133SOL    HW1 6977   2.928   3.396   0.209 -0.5166  0.2972 -0.6977
 2133SOL    HW2 6978   3.061   3.330   0.179  0.6070  1.7302  0.9132
 2134SOL     OW 6979   7.312   6.825   6.190 -0.0415  0.1338 -0.3531
 2134SOL    HW1 6980   7.336   6.733   6.199 -0.6211 -0.0370 -0.4679
 2134SOL    HW2 6981   7.379   6.863   6.134 -0.3981 -0.4804 -1.2240
 2135SOL     OW 6982   9.047   3.513   6.868  0.0810  0.1696 -0.1193
 2135SOL    HW1 6983   9.002   3.582   6.916  2.5278  1.6157  0.2827
 2135SOL    HW2 6984   9.006   3.432   6.898 -1.6756  1.3316  0.7522
 2136SOL     OW 6985   2.486   7.935   4.709  0.2691  0.7339 -0.0472
 2136SOL    HW1 6986   2.393   7.913   4.719  0.4897 -0.4967 -0.5337
 2136SOL    HW2 6987   2.497   8.016   4.758 -0.7485  0.0921  1.2973
 2137SOL     OW 6988   4.518   8.135   0.496  0.3117  0.2601 -0.2396
 2137SOL    HW1 6989   4.527   8.044   0.523 -0.8459  0.6899  1.8930
 2137SOL    HW2 6990   4.597   8.178   0.527  0.3240  0.2031 -0.1936
 2138SOL     OW 6991   3.725   1.014   6.433  0.5699  0.1678 -0.0054
 2138SOL    HW1 6992   3.684   1.088   6.478 -1.2997 -1.7686  1.7156
 2138SOL    HW2 6993   3.775   0.969   6.501  0.3141 -1.0374 -0.5898
 2139SOL     OW 6994   4.657   0.300   7.434  0.5623  0.4304 -0.8707
 2139SOL    HW1 6995   4.699   0.354   7.501  1.7214 -1.3327 -0.1151
 2139SOL    HW2 6996   4.709   0.220   7.431 -1.8260 -1.2227 -0.9932
 2140SOL     OW 6997   2.658   1.777   5.002  0.1153  0.0588  0.0410
 2140SOL    HW1 6998   2.665   1.683   4.988 -2.8618 -0.5190  1.5719
 2140SOL    HW2 6999   2.623   1.811   4.919 -0.4807 -0.4925  0.0551
 2141SOL     OW 7000   1.370   5.847   9.777 -0.6303  0.6342  0.7153
 2141SOL    HW1 7001   1.324   5.787   9.718  0.4682  1.5590 -1.1754
 2141SOL    HW2 7002   1.446   5.797   9.807 -1.2285  0.1370  1.4487
 2142SOL     OW 7003   8.838   9.757   4.974 -0.9651 -0.1966 -0.0910
 2142SOL    HW1 7004   8.905   9.825   4.983 -2.0553  0.7898  0.9978
 2142SOL    HW2 7005   8.888   9.676   4.968  0.3613  0.6112 -0.6956
 2143SOL     OW 7006   5.215   6.971   2.945 -0.4303  0.8589  0.4897
 2143SOL    HW1 7007   5.295   6.944   2.902 -1.1375 -1.5887  0.5682
 2143SOL    HW2 7008   5.215   7.067   2.938  2.1177  0.8902 -0.0987
 2144SOL     OW 7009   4.019   2.804   8.102 -0.1698  0.3440  0.0296
 2144SOL    HW1 7010   3.957   2.877   8.106  0.3032  0.7592 -0.0858
 2144SOL    HW2 7011   4.097   2.837   8.146 -0.7980 -0.9848  2.3115
 2145SOL     OW 7012   0.841   2.179   5.580 -0.4928  0.3542  0.2757
 2145SOL    HW1 7013   0.933   2.169   5.604 -0.5534 -2.4482 -0.3365
 2145SOL    HW2 7014   0.840   2.251   5.517  1.4232 -0.2097 -0.4618
 2146SOL     OW 7015   6.292   4.107   7.345  0.3761 -0.6587  0.1145
 2146SOL    HW1 7016   6.244   4.072   7.420  0.2222  0.0917  0.3716
 2146SOL    HW2 7017   6.236   4.177   7.312  0.6505 -0.6966 -0.4380
 2147SOL     OW 7018   2.933   3.512   6.556 -0.0768  0.2792 -0.1725
 2147SOL    HW1 7019   2.839   3.518   6.576  0.0573  1.7713  0.1307
 2147SOL    HW2 7020   2.973   3.581   6.609  1.3435 -0.9960  0.5008
 2148SOL     OW 7021   6.178   7.025   1.455  0.3151 -0.3098 -0.0732
 2148SOL    HW1 7022   6.237   7.025   1.380  0.2367 -0.4597 -0.1354
 2148SOL    HW2 7023   6.156   7.117   1.469  0.0524 -0.3142 -0.4516
 2149SOL     OW 7024   1.125   9.699   3.604  0.2338 -0.0713  0.1969
 2149SOL    HW1 7025   1.206   9.653   3.581  1.2075  2.0267 -0.8199
 2149SOL    HW2 7026   1.153   9.765   3.667 -0.6930  0.6318 -0.1176
 2150SOL     OW 7027   2.510   4.770   7.571  0.1481  0.0838 -0.0325
 2150SOL    HW1 7028   2.589   4.715   7.569  1.0924  1.3975 -0.6090
 2150SOL    HW2 7029   2.457   4.734   7.642  1.8771 -0.0398  1.2578
 2151SOL     OW 7030   7.293   0.411   2.212 -0.6067  0.3883  0.3172
 2151SOL    HW1 7031   7.204   0.436   2.238 -0.7765 -1.3507  1.6395
 2151SOL    HW2 7032   7.282   0.370   2.126 -0.9844  0.7104  0.2081
 2152SOL     OW 7033   5.707   0.526   6.769 -0.1582 -0.4762 -0.3565
 2152SOL    HW1 7034   5.649   0.485   6.834 -0.4006 -0.0582 -0.3050
 2152SOL    HW2 7035   5.704   0.619   6.790 -0.4589 -0.3077 -1.1455
 2153SOL     OW 7036   5.983   7.356   4.282 -0.2469  0.3938 -0.4186
 2153SOL    HW1 7037   5.892   7.367   4.255 -0.2031  0.7705 -0.4193
 2153SOL    HW2 7038   6.028   7.434   4.247  0.2019 -0.0994 -0.9725
 2154SOL     OW 7039   5.045   8.991   0.991 -0.6522  0.4400  0.4396
 2154SOL    HW1 7040   5.080   8.903   0.980 -1.0712  0.3674 -0.4432
 2154SOL    HW2 7041   5.075   9.019   1.077  1.0259  0.1336 -0.0058
 2155SOL     OW 7042   0.614   1.056   7.930  0.1542  0.3102 -0.3910
 2155SOL    HW1 7043   0.528   1.016   7.916  0.2649 -0.0484 -0.0534
 2155SOL    HW2 7044   0.621   1.067   8.024  1.2601 -1.4411 -0.2310
 2156SOL     OW 7045   1.233   0.289   6.630 -0.0272 -0.1019 -0.4660
 2156SOL    HW1 7046   1.306   0.252   6.679 -1.3917 -1.5835  0.5377
 2156SOL    HW2 7047   1.201   0.217   6.576 -1.3151  0.2227 -0.1825
 2157SOL     OW 7048   4.520   7.155   5.212 -0.2431  0.4810 -0.3938
 2157SOL    HW1 7049   4.575   7.096   5.160  0.0784 -0.5798  1.0904
 2157SOL    HW2 7050   4.530   7.240   5.169 -2.0433 -0.7460 -3.6285
 2158SOL     OW 7051   2.584   0.969   9.971 -0.6410 -0.4885 -0.1619
 2158SOL    HW1 7052   2.495   0.979   9.936 -0.6097 -2.4571 -0.9157
 2158SOL    HW2 7053   2.588   0.877   9.999  0.8332 -0.1496  0.8300
 2159SOL     OW 7054   6.169   4.716   8.720  0.1671 -0.7864 -0.1751
 2159SOL    HW1 7055   6.093   4.742   8.668 -0.7893 -0.3335  1.3773
 2159SOL    HW2 7056   6.136   4.644   8.774  0.3765  0.4243  1.6254
 2160SOL     OW 7057   6.629   8.639   5.177 -0.1690  0.3856  0.3460
 2160SOL    HW1 7058   6.699   8.619   5.114  0.4570  1.4088  0.6918
 2160SOL    HW2 7059   6.670   8.629   5.262 -0.5818  0.5275  0.5633
 2161SOL     OW 7060   9.379   8.643   8.539  0.0448  0.2814  0.6730
 2161SOL    HW1 7061   9.308   8.584   8.514  1.2079 -0.3759 -1.3099
 2161SOL    HW2 7062   9.438   8.588   8.591  0.4772  0.0212 -0.0725
 2162SOL     OW 7063   7.974   4.179   0.480 -0.1480 -0.0265 -0.0030
 2162SOL    HW1 7064   8.014   4.125   0.411  0.2776 -1.1089  1.0428
 2162SOL    HW2 7065   8.033   4.253   0.490  0.2309 -0.2899 -0.2486
 2163SOL     OW 7066   2.293   7.144   7.609  0.4449  0.0159 -0.2443
 2163SOL    HW1 7067   2.258   7.233   7.609  0.4094  0.0107  0.6187
 2163SOL    HW2 7068   2.387   7.155   7.627  0.6525 -0.0566 -1.2312
 2164SOL     OW 7069   9.803   7.336   1.875 -0.3368 -0.3128  0.3983
 2164SOL    HW1 7070   9.820   7.250   1.836  0.8314 -0.5827  1.4480
 2164SOL    HW2 7071   9.744   7.379   1.813 -1.6432 -2.1918  0.2465
 2165SOL     OW 7072   2.643   0.212   3.043  0.4188  0.0796 -0.1955
 2165SOL    HW1 7073   2.669   0.200   2.952  0.0458  1.0864 -0.4447
 2165SOL    HW2 7074   2.726   0.211   3.092  0.5433 -1.8480 -0.3430
 2166SOL     OW 7075   8.588   6.473   6.395  0.0812 -0.0108 -0.0959
 2166SOL    HW1 7076   8.652   6.442   6.459  0.1576  1.3733  0.5180
 2166SOL    HW2 7077   8.608   6.565   6.384 -2.0921  0.5866  0.4869
 2167SOL     OW 7078   5.585   6.421   7.544 -0.0950 -0.2014 -0.1245
 2167SOL    HW1 7079   5.569   6.329   7.523 -2.8553  0.0079  0.6075
 2167SOL    HW2 7080   5.497   6.458   7.554  0.9506  2.0088  1.7159
 2168SOL     OW 7081   1.830   2.651   1.902  0.4602  0.2486 -0.2535
 2168SOL    HW1 7082   1.767   2.670   1.833  1.5202 -0.0430 -1.3264
 2168SOL    HW2 7083   1.837   2.555   1.903  1.1677  0.2921 -0.4150
 2169SOL     OW 7084   6.112   8.402   9.574 -0.3546  0.0202  0.6769
 2169SOL    HW1 7085   6.205   8.402   9.550 -0.7619  1.0888 -1.1358
 2169SOL    HW2 7086   6.074   8.331   9.522 -0.7459  0.3568  0.4993
 2170SOL     OW 7087   4.697   6.107   0.186  0.0043 -0.2677  0.1307
 2170SOL    HW1 7088   4.688   6.175   0.252 -0.9418  1.6061 -1.7890
 2170SOL    HW2 7089   4.792   6.100   0.171  0.1800 -0.2430  1.1546
 2171SOL     OW 7090   1.215   1.976   5.835  0.0787  0.2627  0.0169
 2171SOL    HW1 7091   1.288   2.009   5.888 -1.5284  1.2437  1.8058
 2171SOL    HW2 7092   1.219   1.881   5.845  0.0478  0.3929  1.7013
 2172SOL     OW 7093   0.849   9.202   8.153 -0.6682  0.1062 -0.3147
 2172SOL    HW1 7094   0.771   9.246   8.119 -0.3542  0.6480 -0.3547
 2172SOL    HW2 7095   0.920   9.264   8.137 -0.3591 -0.0318  0.4582
 2173SOL     OW 7096   2.691   5.578   3.347  0.6285  0.4104  0.2215
 2173SOL    HW1 7097   2.731   5.564   3.433 -1.3151  0.6242  1.2159
 2173SOL    HW2 7098   2.633   5.502   3.336  0.0900  0.9109 -0.4320
 2174SOL     OW 7099   7.793   1.992   7.534  0.0873  0.0059  0.6007
 2174SOL    HW1 7100   7.704   1.986   7.568 -0.7702  1.3423 -1.2502
 2174SOL    HW2 7101   7.817   2.084   7.545  0.4427  0.0947 -0.7342
 2175SOL     OW 7102   8.862   5.993   2.212 -0.3952  0.4016 -0.1809
 2175SOL    HW1 7103   8.936   5.933   2.204 -1.5618 -1.1891  0.4498
 2175SOL    HW2 7104   8.795   5.942   2.258 -1.3140  2.3085  0.7076
 2176SOL     OW 7105   0.220   9.756   7.321 -0.3978 -0.7528 -0.2329
 2176SOL    HW1 7106   0.294   9.699   7.341  2.0753  2.7574  1.7365
 2176SOL    HW2 7107   0.231   9.777   7.228  0.0449 -1.6143 -0.3886
 2177SOL     OW 7108   6.017   5.403   7.422 -0.4899 -0.1288 -0.0409
 2177SOL    HW1 7109   6.006   5.440   7.334 -2.9152  0.5591  0.4702
 2177SOL    HW2 7110   6.051   5.315   7.407 -0.7746  0.0048 -1.6709
 2178SOL     OW 7111   0.963   8.345   4.354  1.0678  0.3253 -0.2740
 2178SOL    HW1 7112   0.997   8.378   4.271 -1.3274 -0.2181 -1.5408
 2178SOL    HW2 7113   1.024   8.275   4.379  1.1828 -0.3146 -2.2112
 2179SOL     OW 7114   2.411   9.091   3.274 -0.1843  0.0006 -0.6057
 2179SOL    HW1 7115   2.366   9.114   3.193 -2.5629  0.7797  0.8378
 2179SOL    HW2 7116   2.352   9.029   3.318  0.4060  0.5688  1.0886
 2180SOL     OW 7117   7.361   3.175   5.827 -0.2358  0.1531  0.4494
 2180SOL    HW1 7118   7.334   3.162   5.736 -0.2027 -1.0941  0.5908
 2180SOL    HW2 7119   7.280   3.191   5.875 -0.3946 -0.4562  0.3895
 2181SOL     OW 7120   9.347   2.978   9.812 -0.1009  0.3368  0.2581
 2181SOL    HW1 7121   9.275   2.932   9.855  0.3388 -0.2670  0.3761
 2181SOL    HW2 7122   9.327   3.071   9.823 -0.6621  0.1783  0.6170
 2182SOL     OW 7123   1.505   3.964   5.746  0.0557  0.4816 -0.2895
 2182SOL    HW1 7124   1.591   4.003   5.734 -0.2114  0.9097 -0.8620
 2182SOL    HW2 7125   1.504   3.888   5.687 -0.6586  1.6276 -1.8287
 2183SOL     OW 7126   6.676   4.125   0.390  0.4738 -0.9494  0.1515
 2183SOL    HW1 7127   6.607   4.159   0.446  3.2054  1.4062  2.4138
 2183SOL    HW2 7128   6.666   4.173   0.307  0.0491  0.1583  0.8297
 2184SOL     OW 7129   1.638   4.567   0.681  0.0610 -0.4014  0.1370
 2184SOL    HW1 7130   1.718   4.617   0.696  0.2875 -1.2619  2.0266
 2184SOL    HW2 7131   1.659   4.511   0.606  0.7776  0.2984 -0.1975
 2185SOL     OW 7132   5.968   7.858   1.553  0.5084 -0.1758  0.5034
 2185SOL    HW1 7133   6.059   7.881   1.537  0.5075  0.1901  1.0001
 2185SOL    HW2 7134   5.934   7.929   1.608 -0.0080 -0.4280  0.5211
 2186SOL     OW 7135   5.040   7.411   2.085 -0.4364  0.4517  0.1069
 2186SOL    HW1 7136   5.093   7.354   2.029 -0.1724  0.5656  0.2382
 2186SOL    HW2 7137   4.963   7.359   2.107  0.0045 -0.0175  0.5726
 2187SOL     OW 7138   3.413   2.905   7.748 -0.1415  0.0389  0.0288
 2187SOL    HW1 7139   3.453   2.937   7.667 -0.0612  0.5908  0.2841
 2187SOL    HW2 7140   3.487   2.871   7.799 -0.3642 -1.6439 -0.7275
 2188SOL     OW 7141   5.329   7.823   8.242  0.8069 -0.7619  0.1989
 2188SOL    HW1 7142   5.307   7.735   8.271  0.0052 -0.1431  1.5974
 2188SOL    HW2 7143   5.415   7.814   8.200 -0.2696 -2.5558 -1.7395
 2189SOL     OW 7144   4.666   5.998   3.306 -0.8760 -0.4692 -0.3907
 2189SOL    HW1 7145   4.679   5.943   3.229 -1.1601 -0.1969 -0.6369
 2189SOL    HW2 7146   4.574   6.024   3.301 -0.7536 -0.0065 -0.2518
 2190SOL     OW 7147   3.370   0.417   1.918 -0.2407 -0.1517 -0.1473
 2190SOL    HW1 7148   3.312   0.491   1.938 -1.2132 -1.1136  0.6648
 2190SOL    HW2 7149   3.313   0.353   1.874  0.3037 -0.9403  0.2797
 2191SOL     OW 7150   9.497   8.437   1.215  0.1709 -0.0528 -0.2814
 2191SOL    HW1 7151   9.578   8.446   1.165 -1.1853 -1.8206 -3.0666
 2191SOL    HW2 7152   9.523   8.400   1.299  2.5353  2.6740  0.3287
 2192SOL     OW 7153   7.001   9.778   7.430 -0.1202  0.1304  0.5140
 2192SOL    HW1 7154   7.004   9.775   7.525 -0.6726  1.2456  0.5889
 2192SOL    HW2 7155   7.080   9.826   7.405  0.0305 -0.1720  0.4038
 2193SOL     OW 7156   5.383   7.567   4.458  0.1430 -0.1738  0.1866
 2193SOL    HW1 7157   5.373   7.534   4.547  0.5964  1.1072  0.7302
 2193SOL    HW2 7158   5.302   7.615   4.441 -0.0982 -0.7187 -0.2421
 2194SOL     OW 7159   3.371   2.556   8.700 -0.3940  0.5532  0.6642
 2194SOL    HW1 7160   3.286   2.590   8.674 -1.0525 -1.7299 -0.3919
 2194SOL    HW2 7161   3.425   2.562   8.621  0.0018  0.7205  0.9443
 2195SOL     OW 7162   0.254   9.433   6.416  0.2268  0.3913  0.3801
 2195SOL    HW1 7163   0.260   9.397   6.504  1.6839  0.0350  0.1640
 2195SOL    HW2 7164   0.319   9.384   6.365 -0.6371  0.5408 -0.9138
 2196SOL     OW 7165   8.744   9.506   8.875  0.1910  0.0575 -0.1386
 2196SOL    HW1 7166   8.824   9.495   8.928 -0.4590 -0.4966  0.7570
 2196SOL    HW2 7167   8.697   9.423   8.886 -0.1099  0.0546 -1.3507
 2197SOL     OW 7168   0.023   8.771   1.905 -0.3526  0.4037  0.3560
 2197SOL    HW1 7169   0.016   8.852   1.855  0.4596  0.4492  0.2987
 2197SOL    HW2 7170  -0.022   8.706   1.851 -1.3319  0.8771  0.5734
 2198SOL     OW 7171   6.434   6.837   5.773  0.3738 -0.9102 -1.1481
 2198SOL    HW1 7172   6.409   6.753   5.734  1.1386 -2.1425  0.8227
 2198SOL    HW2 7173   6.529   6.831   5.785  0.3939  0.0946 -0.6654
 2199SOL     OW 7174   2.471   6.255   2.334 -0.2760 -0.0919 -0.0953
 2199SOL    HW1 7175   2.431   6.279   2.250  0.0911 -2.1973 -0.9305
 2199SOL    HW2 7176   2.490   6.162   2.326  2.5813  0.2718  1.1819
 2200SOL     OW 7177   0.735   3.073   0.436  0.3761 -0.2296  0.3117
 2200SOL    HW1 7178   0.711   3.071   0.529  0.0072  0.3210  0.2336
 2200SOL    HW2 7179   0.687   3.000   0.397  2.1734 -1.8066  0.9182
 2201SOL     OW 7180   8.496   6.544   2.600  0.3510 -0.2873 -0.3105
 2201SOL    HW1 7181   8.590   6.546   2.617  0.0054 -0.7386  2.1069
 2201SOL    HW2 7182   8.484   6.600   2.524  2.1619  3.3250  1.7638
 2202SOL     OW 7183   0.717   1.443   4.819 -0.2107 -0.4066 -0.2821
 2202SOL    HW1 7184   0.801   1.419   4.857  0.4066 -1.0991 -1.9756
 2202SOL    HW2 7185   0.699   1.530   4.853  0.6687 -0.6764  0.9362
 2203SOL     OW 7186   4.268   1.287   5.144  0.0791 -0.4564  0.0174
 2203SOL    HW1 7187   4.259   1.382   5.154 -0.3883 -0.4793 -0.1286
 2203SOL    HW2 7188   4.206   1.251   5.208 -0.7456 -0.6371 -0.8501
 2204SOL     OW 7189   4.328   8.429   7.397  0.1832  0.5122  0.1781
 2204SOL    HW1 7190   4.303   8.372   7.325  2.3838  0.2031 -0.4156
 2204SOL    HW2 7191   4.279   8.395   7.472 -1.1673  0.0339 -0.8760
 2205SOL     OW 7192   0.368   7.518   7.358 -0.2831 -0.0729 -0.2753
 2205SOL    HW1 7193   0.360   7.519   7.262  0.4490  1.4382 -0.3539
 2205SOL    HW2 7194   0.292   7.568   7.388 -1.0765 -1.4075  0.0170
 2206SOL     OW 7195   8.439   7.402   0.765  0.0284 -0.3827 -0.3232
 2206SOL    HW1 7196   8.487   7.414   0.847  0.7605  2.4781 -1.0479
 2206SOL    HW2 7197   8.347   7.402   0.791  0.2397  0.7861  0.5254
 2207SOL     OW 7198   7.969   9.911   1.693  0.1782  0.0509 -0.0496
 2207SOL    HW1 7199   7.962   9.882   1.602  0.9726  1.1329 -0.4766
 2207SOL    HW2 7200   8.059   9.891   1.717 -0.1086 -0.4850  0.6033
 2208SOL     OW 7201   1.868   3.594   3.366  0.5171 -0.5296  0.1690
 2208SOL    HW1 7202   1.917   3.664   3.408  0.4242 -0.3983  0.0581
 2208SOL    HW2 7203   1.840   3.537   3.439 -2.6449  1.5316  0.7658
 2209SOL     OW 7204   4.228   1.396   2.954 -0.4412 -0.4357  0.4423
 2209SOL    HW1 7205   4.167   1.394   3.027  0.7548  0.0840  1.5055
 2209SOL    HW2 7206   4.180   1.439   2.883 -1.3259 -0.1143  1.2167
 2210SOL     OW 7207   8.970   6.399   5.391 -0.2005 -0.0180  0.0406
 2210SOL    HW1 7208   8.900   6.400   5.325 -0.0694  0.1551 -0.0982
 2210SOL    HW2 7209   8.992   6.307   5.402 -1.1050 -0.1549  0.7838
 2211SOL     OW 7210   8.033   2.735   0.476  0.4598 -0.3086  0.1346
 2211SOL    HW1 7211   8.090   2.773   0.408 -0.7152  0.8316 -0.2488
 2211SOL    HW2 7212   8.083   2.744   0.557  0.1431  2.3904  0.1116
 2212SOL     OW 7213   1.122   4.626   1.278 -0.3804 -0.3284  0.3602
 2212SOL    HW1 7214   1.094   4.592   1.193 -0.9657  1.8097 -0.3478
 2212SOL    HW2 7215   1.107   4.720   1.273 -0.7522 -0.1868  2.9832
 2213SOL     OW 7216   7.914   1.601   3.202 -0.1928 -0.3056 -0.2296
 2213SOL    HW1 7217   7.821   1.593   3.222 -0.5728 -0.1392 -1.7794
 2213SOL    HW2 7218   7.921   1.579   3.109  1.2420  0.1820 -0.2722
 2214SOL     OW 7219   3.724   2.739   9.449 -0.5733 -0.2097  0.2705
 2214SOL    HW1 7220   3.687   2.733   9.361 -0.2978 -1.3661  0.2175
 2214SOL    HW2 7221   3.775   2.819   9.448 -2.5716  1.1416  0.1701
 2215SOL     OW 7222   1.744   2.235   9.293 -0.5417 -0.8545 -0.2164
 2215SOL    HW1 7223   1.807   2.287   9.244  0.9443 -0.9461  1.4687
 2215SOL    HW2 7224   1.721   2.290   9.368 -0.6625 -1.7297  0.4022
 2216SOL     OW 7225   1.842   5.757   0.656 -0.2928 -0.5620  0.4795
 2216SOL    HW1 7226   1.749   5.741   0.640 -0.0638 -1.6276  0.1911
 2216SOL    HW2 7227   1.847   5.852   0.672 -0.9119  0.2931 -3.3022
 2217SOL     OW 7228   3.607   4.964   4.691  0.3883 -0.3248  0.5795
 2217SOL    HW1 7229   3.648   4.886   4.730 -0.2506  0.3808  2.7996
 2217SOL    HW2 7230   3.516   4.960   4.720 -0.1869  0.1823 -1.0405
 2218SOL     OW 7231   8.650   6.823   9.898  0.0646  0.4772 -0.1511
 2218SOL    HW1 7232   8.555   6.832   9.887  0.1501  0.8016 -0.6915
 2218SOL    HW2 7233   8.681   6.913   9.904  0.2257  0.3496  1.1595
 2219SOL     OW 7234   2.442   0.395   2.881  0.2861 -0.0086 -0.2328
 2219SOL    HW1 7235   2.347   0.378   2.885 -0.3394  3.0401  1.6057
 2219SOL    HW2 7236   2.479   0.338   2.948 -0.4245 -0.3724 -0.1360
 2220SOL     OW 7237   9.628   5.633   5.382  0.9249  0.1245 -0.6023
 2220SOL    HW1 7238   9.652   5.668   5.468  1.1665 -1.0156 -0.1846
 2220SOL    HW2 7239   9.617   5.539   5.397 -3.2146  0.3571 -0.8486
 2221SOL     OW 7240   5.811   3.643   4.882  0.4596 -0.1753  0.0515
 2221SOL    HW1 7241   5.743   3.621   4.819  1.5651 -0.2927 -1.1222
 2221SOL    HW2 7242   5.871   3.568   4.881  0.5066 -0.1792  1.2352
 2222SOL     OW 7243   6.968   8.389   7.944 -0.4206 -0.3034  0.6242
 2222SOL    HW1 7244   7.005   8.447   8.009  0.4312 -1.0286  0.8045
 2222SOL    HW2 7245   7.027   8.397   7.868 -2.3692  1.9077 -0.8066
 2223SOL     OW 7246   1.002   0.451   4.609 -0.1011  0.1350  0.3617
 2223SOL    HW1 7247   1.079   0.417   4.565  0.5829  0.4257  1.2923
 2223SOL    HW2 7248   0.929   0.424   4.554  0.5085 -1.7091  0.3775
 2224SOL     OW 7249   4.719   7.247   0.855  0.4384 -0.2173  0.1453
 2224SOL    HW1 7250   4.700   7.167   0.904  0.4021 -0.3324 -0.0580
 2224SOL    HW2 7251   4.801   7.278   0.892  0.3004 -0.1885  0.4289
 2225SOL     OW 7252   4.630   1.752   7.573  0.2183  0.0074 -0.0074
 2225SOL    HW1 7253   4.596   1.719   7.491 -0.5883 -1.8864  1.0206
 2225SOL    HW2 7254   4.720   1.720   7.577 -0.7074 -2.7413  1.2078
 2226SOL     OW 7255   4.804   3.859   5.564  0.2516 -0.1767  0.4772
 2226SOL    HW1 7256   4.745   3.787   5.584  0.8253 -0.4866  1.0944
 2226SOL    HW2 7257   4.883   3.840   5.615  0.7067  0.4697  0.0266
 2227SOL     OW 7258   6.524   2.854   9.746  0.4794  0.2917  0.4015
 2227SOL    HW1 7259   6.429   2.859   9.742  0.4464  0.7188  1.3886
 2227SOL    HW2 7260   6.554   2.929   9.694  0.3222 -0.7408 -1.2313
 2228SOL     OW 7261   1.783   7.870   5.561  0.1860 -0.4004 -0.0730
 2228SOL    HW1 7262   1.729   7.852   5.638  1.1695 -0.3133  0.6486
 2228SOL    HW2 7263   1.831   7.788   5.546 -0.6474 -0.7140 -1.1358
 2229SOL     OW 7264   4.474   4.971   6.358 -0.3443  0.7694  0.5336
 2229SOL    HW1 7265   4.435   4.951   6.273 -1.2505 -2.2250  1.5281
 2229SOL    HW2 7266   4.530   5.047   6.342 -1.3170  0.9640 -2.4607
 2230SOL     OW 7267   7.901   8.922   8.435 -0.0927 -0.2156  0.6379
 2230SOL    HW1 7268   7.889   8.929   8.530  1.4858 -1.1739  0.9507
 2230SOL    HW2 7269   7.984   8.965   8.418 -1.1345  1.4288 -0.5977
 2231SOL     OW 7270   4.135   1.192   2.456 -0.0003 -0.5149 -0.2570
 2231SOL    HW1 7271   4.165   1.105   2.430 -0.1279 -0.1618 -1.6905
 2231SOL    HW2 7272   4.094   1.227   2.377  1.9678  1.7071 -0.3709
 2232SOL     OW 7273   5.472   0.262   2.908 -0.0025  0.4511 -0.4318
 2232SOL    HW1 7274   5.491   0.332   2.846  0.0705  0.0254 -0.8976
 2232SOL    HW2 7275   5.450   0.187   2.853  1.4745 -0.3493  0.0163
 2233SOL     OW 7276   2.267   0.940   1.413 -0.3021  0.4156  0.5061
 2233SOL    HW1 7277   2.231   0.851   1.417  0.1034  0.2879  1.5312
 2233SOL    HW2 7278   2.361   0.928   1.425 -0.3337  1.0403  1.4246
 2234SOL     OW 7279   5.326   4.963   0.976  0.1049  0.0911  0.0935
 2234SOL    HW1 7280   5.271   4.913   0.916 -2.0771  0.0405  2.0107
 2234SOL    HW2 7281   5.314   5.054   0.949  0.8894 -0.0798 -0.8823
 2235SOL     OW 7282   8.051   0.541   6.455 -0.1401  0.4043  0.2265
 2235SOL    HW1 7283   7.981   0.573   6.398  1.1130 -0.8296 -2.2065
 2235SOL    HW2 7284   8.128   0.592   6.429  1.4320 -2.8238 -2.3414
 2236SOL     OW 7285   1.854   1.690   3.143  0.1434 -0.0866  0.1505
 2236SOL    HW1 7286   1.919   1.682   3.213 -1.0214  0.4430  1.3333
 2236SOL    HW2 7287   1.906   1.685   3.063  2.0194  2.6691  1.0102
 2237SOL     OW 7288   7.498   3.617   2.622 -0.2451 -0.5186 -0.2755
 2237SOL    HW1 7289   7.540   3.600   2.707  1.7591  0.6278 -0.9780
 2237SOL    HW2 7290   7.454   3.534   2.601  1.2904 -1.6696  0.7450
 2238SOL     OW 7291   9.357   8.427   8.221 -0.6460  0.3866 -0.2709
 2238SOL    HW1 7292   9.302   8.365   8.173  0.9726 -1.3777  0.0515
 2238SOL    HW2 7293   9.332   8.414   8.313 -0.0254 -0.0787 -0.1666
 2239SOL     OW 7294   6.127   9.625   8.420 -0.6182 -0.7860 -0.1936
 2239SOL    HW1 7295   6.125   9.693   8.487  1.2190  0.6341 -1.4801
 2239SOL    HW2 7296   6.073   9.555   8.455 -0.5030  0.2957  2.3138
 2240SOL     OW 7297   9.999   2.753   9.828  0.1503  0.3662 -0.2450
 2240SOL    HW1 7298   9.914   2.720   9.858  0.3535 -0.2197 -0.3028
 2240SOL    HW2 7299   9.977   2.821   9.764 -0.2721 -0.0668 -0.5650
 2241SOL     OW 7300   4.246   2.755   4.441 -0.2182 -0.4636 -0.0687
 2241SOL    HW1 7301   4.212   2.667   4.424  3.8550 -2.3147  0.0615
 2241SOL    HW2 7302   4.255   2.758   4.536  2.1446 -1.1232 -0.2057
 2242SOL     OW 7303   3.089   9.292   3.360  0.0281 -0.1774 -0.2677
 2242SOL    HW1 7304   3.146   9.218   3.381  0.4455 -0.0880 -1.0574
 2242SOL    HW2 7305   3.057   9.273   3.272 -0.7383  0.0445 -0.0423
 2243SOL     OW 7306   0.639   7.402   2.988 -0.5589 -0.0342  0.0776
 2243SOL    HW1 7307   0.561   7.458   2.993 -0.3129  0.3547 -0.4323
 2243SOL    HW2 7308   0.692   7.440   2.918 -0.6983 -1.2875 -0.7422
 2244SOL     OW 7309   4.152   5.466   5.337  0.1823  0.3685 -0.7048
 2244SOL    HW1 7310   4.220   5.528   5.311 -1.2729  2.1560 -0.3997
 2244SOL    HW2 7311   4.105   5.446   5.256 -0.2838  0.8507 -0.5584
 2245SOL     OW 7312   6.793   0.480   4.251  0.2802  0.5180 -0.2823
 2245SOL    HW1 7313   6.799   0.466   4.157 -0.6176  2.3669 -0.6684
 2245SOL    HW2 7314   6.877   0.519   4.276  0.6677 -0.3338 -0.2237
 2246SOL     OW 7315   9.124   2.201   5.853 -0.2442 -0.0050  0.7977
 2246SOL    HW1 7316   9.185   2.129   5.836 -1.7773 -0.9421 -1.2624
 2246SOL    HW2 7317   9.061   2.164   5.915 -2.2788 -1.3780 -1.8466
 2247SOL     OW 7318   7.193   8.625   8.566 -0.8810 -0.0499  0.4179
 2247SOL    HW1 7319   7.197   8.679   8.645 -1.8445 -0.4784  0.7638
 2247SOL    HW2 7320   7.168   8.538   8.598 -0.1896 -0.4977 -0.2370
 2248SOL     OW 7321   9.880   0.143   7.955  0.5615  0.1369  0.3491
 2248SOL    HW1 7322   9.871   0.052   7.927  2.1533  0.3743 -1.1100
 2248SOL    HW2 7323   9.813   0.190   7.906 -0.0237 -0.1798  0.8339
 2249SOL     OW 7324   5.646   4.540   2.421  0.3262  0.1477 -0.4511
 2249SOL    HW1 7325   5.696   4.486   2.483  2.1880  1.9956 -0.2119
 2249SOL    HW2 7326   5.700   4.541   2.342 -1.3641 -1.0701 -1.6817
 2250SOL     OW 7327   7.559   6.598   0.904  0.5836 -0.1334  0.6341
 2250SOL    HW1 7328   7.491   6.547   0.859  0.1857  0.1511  0.9042
 2250SOL    HW2 7329   7.635   6.540   0.906  0.1839 -0.6547  0.7958
 2251SOL     OW 7330   3.617   4.787   0.336  0.1808  0.2456 -0.9179
 2251SOL    HW1 7331   3.625   4.855   0.270 -0.0738  0.3572 -0.8376
 2251SOL    HW2 7332   3.625   4.705   0.287  2.6650  0.3218 -0.7238
 2252SOL     OW 7333   7.782   4.305   6.655 -0.0579  0.1912  0.2346
 2252SOL    HW1 7334   7.696   4.287   6.691 -0.3931 -0.7148 -0.9645
 2252SOL    HW2 7335   7.825   4.358   6.722 -1.4036  0.3519  1.0070
 2253SOL     OW 7336   3.006   3.667   5.946 -0.0263  0.1951 -0.1005
 2253SOL    HW1 7337   3.083   3.610   5.937 -1.4885 -2.0023  0.5154
 2253SOL    HW2 7338   2.943   3.632   5.882 -1.5614  0.0416  1.4419
 2254SOL     OW 7339   3.509   8.611   5.940  0.1252  0.0241  0.6083
 2254SOL    HW1 7340   3.515   8.682   5.875  0.2317 -1.0112 -0.5542
 2254SOL    HW2 7341   3.543   8.650   6.020  0.9255  1.0683 -0.1924
 2255SOL     OW 7342   3.777   5.692   8.912  0.6223  0.0095 -0.3955
 2255SOL    HW1 7343   3.785   5.680   8.817 -0.6675  2.9162 -0.9881
 2255SOL    HW2 7344   3.848   5.751   8.935  0.3646  0.0723  0.2621
 2256SOL     OW 7345   6.318   8.364   1.860  0.2754  0.2275  0.2946
 2256SOL    HW1 7346   6.315   8.286   1.804  1.3474 -0.5422  1.2645
 2256SOL    HW2 7347   6.246   8.418   1.829 -2.6645 -2.5761  1.6205
 2257SOL     OW 7348   7.583   9.108   6.994  0.0911 -0.6186  0.0377
 2257SOL    HW1 7349   7.505   9.141   6.951 -0.2423  1.5085  2.0373
 2257SOL    HW2 7350   7.556   9.094   7.085  1.3798 -2.4224  0.1912
 2258SOL     OW 7351   8.190   4.262   8.839 -0.1564 -0.4734  0.1965
 2258SOL    HW1 7352   8.208   4.291   8.928 -0.1909  0.0045  0.0490
 2258SOL    HW2 7353   8.216   4.169   8.838 -0.5209 -0.5818  0.8056
 2259SOL     OW 7354   9.111   9.091   9.370  0.9716  1.1298  0.3417
 2259SOL    HW1 7355   9.121   9.068   9.462 -0.0494 -0.6341  0.0611
 2259SOL    HW2 7356   9.191   9.058   9.329  0.4420 -0.1196  0.2743
 2260SOL     OW 7357   8.552   0.606   7.435 -0.2395 -0.6143 -0.0938
 2260SOL    HW1 7358   8.555   0.556   7.353 -0.9960 -0.6924 -0.0735
 2260SOL    HW2 7359   8.471   0.656   7.430 -0.7782 -1.3433  1.0361
 2261SOL     OW 7360   3.124   4.057   8.740  0.1355 -0.3300 -0.0307
 2261SOL    HW1 7361   3.202   4.014   8.775  0.5968  2.0716  2.2752
 2261SOL    HW2 7362   3.057   4.041   8.807 -0.4293  0.2311 -0.4582
 2262SOL     OW 7363   0.883   5.390   0.931  0.3163 -0.2825  0.1411
 2262SOL    HW1 7364   0.846   5.478   0.935 -0.2987 -0.4344 -1.6228
 2262SOL    HW2 7365   0.972   5.402   0.897  0.6379 -0.2708  0.9429
 2263SOL     OW 7366   5.395   0.785   9.886 -0.7483  0.2453  0.5480
 2263SOL    HW1 7367   5.324   0.818   9.831 -0.5202  0.9385  0.6578
 2263SOL    HW2 7368   5.465   0.850   9.875 -0.5002  0.0923  1.2176
 2264SOL     OW 7369   4.307   0.653   5.295 -0.2081 -0.4782  0.0670
 2264SOL    HW1 7370   4.251   0.718   5.337  0.4041  0.0428  0.1016
 2264SOL    HW2 7371   4.273   0.646   5.206  0.8781  1.3517 -0.5618
 2265SOL     OW 7372   1.239   4.070   8.893 -0.0665  0.2240 -0.0482
 2265SOL    HW1 7373   1.330   4.056   8.921 -0.0313 -3.0032 -1.3270
 2265SOL    HW2 7374   1.187   4.033   8.963 -0.3001 -0.0896 -0.3867
 2266SOL     OW 7375   8.140   5.991   4.291  0.3898  0.1703 -0.5170
 2266SOL    HW1 7376   8.215   5.934   4.308  1.4981  1.3756 -1.2093
 2266SOL    HW2 7377   8.164   6.040   4.212 -1.0594  0.6946 -0.6632
 2267SOL     OW 7378   1.538   1.621   2.875 -0.0654 -0.3512 -0.4058
 2267SOL    HW1 7379   1.537   1.561   2.801  1.1805 -1.3036  0.3207
 2267SOL    HW2 7380   1.541   1.564   2.952 -1.2102  0.6137  0.3938
 2268SOL     OW 7381   3.403   9.545   0.577 -0.0878 -0.1636  0.3570
 2268SOL    HW1 7382   3.364   9.626   0.545 -0.5839 -0.0960  1.1124
 2268SOL    HW2 7383   3.347   9.519   0.650  2.3631  0.9595  2.7783
 2269SOL     OW 7384   9.664   5.135   7.703  0.5185  0.3409  0.6351
 2269SOL    HW1 7385   9.715   5.215   7.716  0.9392  0.1845 -0.0139
 2269SOL    HW2 7386   9.701   5.072   7.766  0.9638  0.3041  0.3388
 2270SOL     OW 7387   6.625   1.298   4.324  0.1032 -0.0776 -0.1940
 2270SOL    HW1 7388   6.669   1.354   4.388  0.3135 -1.0605  0.5484
 2270SOL    HW2 7389   6.545   1.345   4.302  0.6661  0.9024 -0.2247
 2271SOL     OW 7390   9.497   4.916   3.027 -0.2654 -0.0785 -0.0801
 2271SOL    HW1 7391   9.457   4.906   2.940  0.5106  1.7491 -0.6896
 2271SOL    HW2 7392   9.447   4.985   3.069  0.1723 -0.0626  0.4265
 2272SOL     OW 7393   7.191   2.109   8.067  0.1451 -0.0238 -0.3401
 2272SOL    HW1 7394   7.160   2.024   8.035 -0.9242  0.0776  0.3643
 2272SOL    HW2 7395   7.284   2.111   8.044 -0.5450  0.1357 -3.5497
 2273SOL     OW 7396   6.868   9.133   8.514  0.3279 -0.4571 -0.2023
 2273SOL    HW1 7397   6.934   9.198   8.490 -0.6352  1.1408  1.2553
 2273SOL    HW2 7398   6.919   9.055   8.537  1.5901  0.1408 -0.8645
 2274SOL     OW 7399   8.647   7.296   9.323  0.3480  0.2826 -0.0523
 2274SOL    HW1 7400   8.695   7.376   9.298 -0.9229  2.0851  2.7342
 2274SOL    HW2 7401   8.696   7.262   9.398 -1.6863  1.2937  1.8607
 2275SOL     OW 7402   8.614   2.130   3.054  0.1127 -0.1521  0.0567
 2275SOL    HW1 7403   8.709   2.142   3.055  0.2183 -0.9098  0.9456
 2275SOL    HW2 7404   8.599   2.061   3.119 -0.9474 -0.7357 -0.7879
 2276SOL     OW 7405   3.602   5.860   0.588  0.9812 -0.0729 -0.3034
 2276SOL    HW1 7406   3.625   5.773   0.555  0.3366 -1.1381  1.8448
 2276SOL    HW2 7407   3.628   5.920   0.518  2.2482 -1.9046 -1.5045
 2277SOL     OW 7408   0.962   9.653   4.082 -0.2018 -0.4962 -0.1806
 2277SOL    HW1 7409   0.963   9.735   4.133 -0.1865 -0.4680 -0.2261
 2277SOL    HW2 7410   0.969   9.681   3.991 -3.2347 -0.3178 -0.4721
 2278SOL     OW 7411   4.997   6.883   0.196 -0.2735  0.7504  0.5977
 2278SOL    HW1 7412   4.980   6.815   0.130 -1.2090  1.5906 -0.0559
 2278SOL    HW2 7413   5.061   6.941   0.156 -0.9577  1.3496  0.3369
 2279SOL     OW 7414   2.062   3.080   7.219 -0.0307  0.0065 -0.4908
 2279SOL    HW1 7415   2.063   3.148   7.286 -1.8579 -0.8080  0.4204
 2279SOL    HW2 7416   2.118   3.115   7.149  1.5951  1.0581  1.2364
 2280SOL     OW 7417   4.294   4.282   5.402  0.2480 -0.0639 -0.0851
 2280SOL    HW1 7418   4.344   4.266   5.322 -0.8362  0.0465 -0.8088
 2280SOL    HW2 7419   4.246   4.201   5.418  0.3466 -0.0358  0.3799
 2281SOL     OW 7420   2.261   5.645   0.644 -0.3989 -0.6916 -0.0998
 2281SOL    HW1 7421   2.191   5.605   0.593  1.3998 -2.9956 -0.9533
 2281SOL    HW2 7422   2.218   5.715   0.693 -2.1781  2.7804 -5.6094
 2282SOL     OW 7423   8.290   0.655   9.935 -0.9777 -0.4881 -0.2621
 2282SOL    HW1 7424   8.228   0.673   9.865 -0.1267  0.6463 -0.7522
 2282SOL    HW2 7425   8.305   0.740   9.976  0.6772 -0.6099 -0.5432
 2283SOL     OW 7426   5.340   6.566   7.473  0.2543  0.4707  0.6467
 2283SOL    HW1 7427   5.359   6.632   7.407 -0.5123  0.3489  0.2931
 2283SOL    HW2 7428   5.305   6.616   7.547 -3.8165  0.2862 -0.9031
 2284SOL     OW 7429   6.254   0.964   0.380  0.2343  0.8256 -0.0514
 2284SOL    HW1 7430   6.215   1.038   0.333  1.1550  1.5463  0.2952
 2284SOL    HW2 7431   6.326   0.934   0.323  0.1056  0.4332 -0.0124
 2285SOL     OW 7432   7.936   2.043   3.064 -0.3044  0.5641 -0.1498
 2285SOL    HW1 7433   7.996   1.971   3.086 -0.6184  0.5668  0.7112
 2285SOL    HW2 7434   7.906   2.076   3.148  0.9432  2.6581 -0.4570
 2286SOL     OW 7435   1.487   3.448   1.962  0.3320  0.6680  0.0868
 2286SOL    HW1 7436   1.405   3.431   1.915  0.4865  1.0051 -0.3041
 2286SOL    HW2 7437   1.507   3.539   1.944  2.1528 -0.0536 -1.9680
 2287SOL     OW 7438   9.898   3.947   6.233  0.0461 -0.0193 -0.0823
 2287SOL    HW1 7439   9.925   3.873   6.178  1.0471  0.1789  0.1288
 2287SOL    HW2 7440   9.810   3.924   6.262  0.4117 -1.2146  0.1221
 2288SOL     OW 7441   6.292   8.103   4.046 -0.3975 -0.1173  0.4829
 2288SOL    HW1 7442   6.232   8.126   3.975 -2.0730 -0.5430  1.7188
 2288SOL    HW2 7443   6.240   8.050   4.106  0.5523  1.3177  2.7173
 2289SOL     OW 7444   6.151   4.906   1.254  0.2536  0.1039 -0.0408
 2289SOL    HW1 7445   6.106   4.824   1.237  0.4211 -0.1412  0.6590
 2289SOL    HW2 7446   6.239   4.893   1.218  0.0423  0.2660 -0.6263
 2290SOL     OW 7447   7.887   6.368   9.108 -0.3972 -0.3273  0.6319
 2290SOL    HW1 7448   7.889   6.277   9.078 -2.3757 -0.3777  0.5255
 2290SOL    HW2 7449   7.799   6.399   9.084  0.1945  1.5756  0.7839
 2291SOL     OW 7450   2.770   8.810   5.414 -0.3448 -0.6262 -0.0381
 2291SOL    HW1 7451   2.829   8.864   5.362 -1.1806 -0.0323 -0.3932
 2291SOL    HW2 7452   2.808   8.723   5.411  0.2705 -0.3439 -0.6376
 2292SOL     OW 7453   0.284   0.876   4.854 -0.2903  0.1995 -0.5153
 2292SOL    HW1 7454   0.294   0.781   4.858 -0.2868  0.2157 -0.1380
 2292SOL    HW2 7455   0.268   0.902   4.945 -0.8070  0.5017 -0.6944
 2293SOL     OW 7456   9.056   5.566   7.141  0.3849 -0.1788  0.3297
 2293SOL    HW1 7457   9.136   5.618   7.136  0.1588  0.1237 -0.2383
 2293SOL    HW2 7458   9.065   5.516   7.223  1.1986 -0.2382  0.2122
 2294SOL     OW 7459   0.696   6.256   9.903 -0.2226  0.4047  0.0157
 2294SOL    HW1 7460   0.750   6.226   9.830 -0.7780  1.0161 -0.6661
 2294SOL    HW2 7461   0.632   6.187   9.916  0.6881 -0.3126  0.8136
 2295SOL     OW 7462   6.582   1.110   7.321  0.6964 -0.1760 -0.9209
 2295SOL    HW1 7463   6.499   1.109   7.272  0.3862 -1.6158 -0.4243
 2295SOL    HW2 7464   6.572   1.183   7.383 -1.4146 -1.9346  1.0222
 2296SOL     OW 7465   9.817   4.455   6.132 -0.1277  1.0405  0.6669
 2296SOL    HW1 7466   9.860   4.499   6.205  0.7991  0.5435  0.4289
 2296SOL    HW2 7467   9.869   4.377   6.116 -0.9996  0.5336  0.2271
 2297SOL     OW 7468   0.926   1.128   9.853  0.4333  0.3644  0.2905
 2297SOL    HW1 7469   0.841   1.109   9.893  0.4373  0.0657  0.1642
 2297SOL    HW2 7470   0.904   1.167   9.768  0.4229  1.6009  0.8433
 2298SOL     OW 7471   5.129   9.899   1.704  0.0526 -0.0097  0.3764
 2298SOL    HW1 7472   5.060   9.898   1.638 -0.3827  0.8117  0.7917
 2298SOL    HW2 7473   5.083   9.887   1.787  0.5046 -0.3028  0.5874
 2299SOL     OW 7474   1.086   5.379   7.148  0.6521  0.7026 -0.3488
 2299SOL    HW1 7475   1.037   5.458   7.172 -1.7211 -0.6080 -0.5632
 2299SOL    HW2 7476   1.074   5.370   7.054  0.8861  0.0828 -0.3268
 2300SOL     OW 7477   2.426   2.322   3.714 -0.0588 -0.7645  0.1239
 2300SOL    HW1 7478   2.349   2.293   3.763  0.4094  0.1753  1.4829
 2300SOL    HW2 7479   2.394   2.336   3.625 -1.6472  0.3031  0.8130
 2301SOL     OW 7480   7.785   7.010   4.441 -0.0344 -0.1282  0.1563
 2301SOL    HW1 7481   7.728   6.934   4.446 -1.4263  0.7259 -1.6461
 2301SOL    HW2 7482   7.782   7.049   4.528 -0.4142 -1.3353  0.6973
 2302SOL     OW 7483   8.416   9.394   5.495  0.4508 -0.7300  0.4100
 2302SOL    HW1 7484   8.467   9.409   5.415  1.5520 -0.6587  1.1114
 2302SOL    HW2 7485   8.342   9.341   5.466  2.0678 -2.7333 -0.2900
 2303SOL     OW 7486   8.596   2.664   8.661  0.6780  0.0253  0.2436
 2303SOL    HW1 7487   8.617   2.738   8.718  0.7339  0.6650 -0.5861
 2303SOL    HW2 7488   8.566   2.704   8.580  1.8191 -0.8376 -0.6495
 2304SOL     OW 7489   2.344   5.828   6.094 -0.2843  0.6252  0.0263
 2304SOL    HW1 7490   2.389   5.822   6.010  1.5232 -0.5057  1.0154
 2304SOL    HW2 7491   2.409   5.864   6.154 -0.7211 -0.8786  1.4750
 2305SOL     OW 7492   7.950   7.773   4.244 -0.1229 -0.1717 -0.5369
 2305SOL    HW1 7493   7.965   7.687   4.205 -0.7769 -0.6278  0.1880
 2305SOL    HW2 7494   7.857   7.773   4.266  0.2489  0.0160  1.1459
 2306SOL     OW 7495   6.553   8.376   7.809  1.0615 -0.1824  0.0960
 2306SOL    HW1 7496   6.607   8.453   7.824  1.1230 -0.3376  0.7070
 2306SOL    HW2 7497   6.583   8.312   7.874 -0.6364  0.1390  1.2424
 2307SOL     OW 7498   9.219   9.441   2.434  0.2049  0.3331  0.0734
 2307SOL    HW1 7499   9.287   9.472   2.375  0.9193 -1.2026  0.0201
 2307SOL    HW2 7500   9.257   9.363   2.475  0.2184  1.9552  3.4886
 2308SOL     OW 7501   3.396   3.269   7.625 -0.3466  0.1151 -0.5951
 2308SOL    HW1 7502   3.308   3.251   7.658 -0.1637  0.1437 -0.0801
 2308SOL    HW2 7503   3.444   3.188   7.641 -0.0773  0.3549 -0.1703
 2309SOL     OW 7504   4.683   6.540   4.150  0.0536 -0.1353  0.5628
 2309SOL    HW1 7505   4.773   6.522   4.177  0.4551  1.5729  0.4758
 2309SOL    HW2 7506   4.662   6.470   4.089  0.4706 -1.9068  2.3547
 2310SOL     OW 7507   0.670   0.433   4.935  0.2172 -0.4565 -0.4415
 2310SOL    HW1 7508   0.743   0.372   4.949  0.8140  0.7464  2.4831
 2310SOL    HW2 7509   0.592   0.383   4.959  0.6327 -0.3505  1.2712
 2311SOL     OW 7510   2.216   9.535   2.981 -0.1424 -0.0037 -0.1987
 2311SOL    HW1 7511   2.141   9.496   2.936 -1.8529  1.9960  0.7255
 2311SOL    HW2 7512   2.194   9.628   2.987  1.3379  0.2753  2.1386
 2312SOL     OW 7513   2.059   8.203   0.851  0.4441 -0.2251 -0.2096
 2312SOL    HW1 7514   2.046   8.164   0.937  0.9411 -0.6043 -0.3015
 2312SOL    HW2 7515   1.971   8.229   0.822  0.3036  0.0962  0.4966
 2313SOL     OW 7516   5.630   2.130   2.177  0.4757  0.3740 -0.0471
 2313SOL    HW1 7517   5.705   2.098   2.228  0.3590  1.0617  0.5620
 2313SOL    HW2 7518   5.664   2.207   2.132 -0.0240  1.0476  0.7071
 2314SOL     OW 7519   4.460   1.696   8.301 -0.4179 -0.0368  0.5315
 2314SOL    HW1 7520   4.504   1.773   8.338 -0.6916 -0.4527  1.7998
 2314SOL    HW2 7521   4.517   1.623   8.323  0.4913 -0.1084 -1.7849
 2315SOL     OW 7522   9.860   3.231   6.808 -0.2158 -0.1210  0.0463
 2315SOL    HW1 7523   9.841   3.241   6.901 -2.1166  1.4640 -0.4332
 2315SOL    HW2 7524   9.804   3.160   6.779  0.4228 -0.6574  0.1128
 2316SOL     OW 7525   9.802   2.974   4.361  0.3887 -0.2045 -0.3453
 2316SOL    HW1 7526   9.795   2.891   4.313 -0.3398  0.0468 -0.6875
 2316SOL    HW2 7527   9.712   2.996   4.385  0.5575  0.5551 -0.3712
 2317SOL     OW 7528   1.428   4.861   2.052 -0.1940  0.1051  0.0913
 2317SOL    HW1 7529   1.379   4.887   1.973  0.4877 -0.2049 -0.4427
 2317SOL    HW2 7530   1.496   4.928   2.060  0.7130 -0.7149 -0.4983
 2318SOL     OW 7531   2.345   7.490   6.975 -0.0081  0.1655 -0.3810
 2318SOL    HW1 7532   2.331   7.395   6.976  2.6250 -0.2914  1.0158
 2318SOL    HW2 7533   2.355   7.513   7.067  1.4223  1.4346 -0.8304
 2319SOL     OW 7534   1.395   2.769   7.504  0.1833 -0.5141 -0.5045
 2319SOL    HW1 7535   1.457   2.713   7.550 -1.0918 -0.4035  1.4648
 2319SOL    HW2 7536   1.425   2.858   7.521  0.7965 -0.5096 -1.5422
 2320SOL     OW 7537   3.907   5.540   8.033 -0.2502  0.5325  0.1044
 2320SOL    HW1 7538   3.975   5.478   8.005 -0.3095 -0.1591  1.4135
 2320SOL    HW2 7539   3.839   5.532   7.967  0.1993 -0.0296 -0.3092
 2321SOL     OW 7540   4.179   7.903   5.585 -0.0586 -0.7216 -0.3275
 2321SOL    HW1 7541   4.228   7.837   5.635  1.5231  1.5301  1.3138
 2321SOL    HW2 7542   4.088   7.893   5.614  0.5128 -0.7829  1.5999
 2322SOL     OW 7543   4.781   3.004   3.329  0.4509  0.7185 -0.2439
 2322SOL    HW1 7544   4.781   2.967   3.241 -1.5515 -1.1895  0.4592
 2322SOL    HW2 7545   4.790   2.928   3.386  1.1549  1.8661  1.2253
 2323SOL     OW 7546   5.970   6.403   5.761  0.0434  0.1866 -0.3008
 2323SOL    HW1 7547   5.973   6.335   5.694 -0.6741  1.1217 -1.3214
 2323SOL    HW2 7548   5.878   6.405   5.789 -0.3473  1.8802 -1.5444
 2324SOL     OW 7549   9.618   0.472   7.616  0.7807 -0.1138 -0.9356
 2324SOL    HW1 7550   9.595   0.408   7.548 -0.1352  0.3591 -1.0860
 2324SOL    HW2 7551   9.703   0.507   7.589  1.1802 -1.0770 -0.9802
 2325SOL     OW 7552   0.051   6.532   8.459  0.0527 -0.1582 -0.3243
 2325SOL    HW1 7553   0.108   6.539   8.535 -1.1359 -1.9747  0.8069
 2325SOL    HW2 7554  -0.012   6.603   8.469  0.3756  0.0890 -0.0298
 2326SOL     OW 7555   4.621   3.125   2.968  0.2130 -0.2564 -0.2720
 2326SOL    HW1 7556   4.646   3.041   3.006  0.7997 -0.7538 -1.6980
 2326SOL    HW2 7557   4.607   3.182   3.043 -0.1484 -1.6066  0.7288
 2327SOL     OW 7558   9.796   2.205   1.278  0.8274  0.3823 -0.4888
 2327SOL    HW1 7559   9.882   2.164   1.275 -0.0391 -1.6599  0.4470
 2327SOL    HW2 7560   9.747   2.164   1.206 -0.2438 -0.7905  0.8403
 2328SOL     OW 7561   2.772   4.949   1.431 -0.0030 -0.7127 -0.4907
 2328SOL    HW1 7562   2.770   4.990   1.344 -1.1183 -1.4135 -0.8243
 2328SOL    HW2 7563   2.684   4.911   1.440  0.5471 -1.7985  0.3899
 2329SOL     OW 7564   4.176   5.625   0.372  0.5887 -0.4331 -0.5514
 2329SOL    HW1 7565   4.166   5.574   0.452 -0.4588 -0.6569 -0.8099
 2329SOL    HW2 7566   4.092   5.614   0.326 -0.2573  2.6899  0.0596
 2330SOL     OW 7567   3.271   6.136   2.822 -0.1106 -0.4381  0.3726
 2330SOL    HW1 7568   3.239   6.226   2.817 -3.2488 -1.3740  1.1029
 2330SOL    HW2 7569   3.297   6.126   2.914 -1.8558 -0.8197  0.8682
 2331SOL     OW 7570   0.199   1.754   2.249  0.0200  0.4908  0.0467
 2331SOL    HW1 7571   0.167   1.837   2.283 -1.2526 -0.4059  1.1486
 2331SOL    HW2 7572   0.169   1.751   2.159 -2.0588  0.2044  0.7019
 2332SOL     OW 7573   8.844   7.292   1.885 -0.6268  0.2972 -0.2198
 2332SOL    HW1 7574   8.890   7.270   1.804  0.1854  2.2276 -0.3383
 2332SOL    HW2 7575   8.913   7.307   1.949 -1.2369 -0.2863  0.5982
 2333SOL     OW 7576   3.555   5.262   1.932 -0.1490  0.1598 -0.2350
 2333SOL    HW1 7577   3.529   5.342   1.978  0.9369 -0.0697  0.8261
 2333SOL    HW2 7578   3.546   5.283   1.840  1.3284  1.9583 -0.0222
 2334SOL     OW 7579   0.653   5.329   5.814 -0.3627 -0.4271  0.1425
 2334SOL    HW1 7580   0.654   5.240   5.778 -2.9176 -1.1557  1.6434
 2334SOL    HW2 7581   0.713   5.325   5.889 -0.8829 -1.0510  0.5318
 2335SOL     OW 7582   5.934   3.906   0.472  0.4419 -0.2767 -0.4707
 2335SOL    HW1 7583   5.904   3.951   0.393  0.8687 -0.8968 -0.9862
 2335SOL    HW2 7584   6.025   3.884   0.455  1.3339  1.7380  1.1568
 2336SOL     OW 7585   3.461   0.256   7.867  0.8904 -0.2531  0.4552
 2336SOL    HW1 7586   3.538   0.233   7.815  1.3458  0.2984  0.8710
 2336SOL    HW2 7587   3.496   0.303   7.943  0.0949  0.7606  0.2240
 2337SOL     OW 7588   1.090   7.844   3.057 -0.2198  0.1203  0.1272
 2337SOL    HW1 7589   1.133   7.762   3.031 -0.1272 -0.0394  0.7775
 2337SOL    HW2 7590   1.059   7.881   2.974  0.4959 -0.1431 -0.2707
 2338SOL     OW 7591   9.483   9.134   5.339 -0.3920 -0.4896  0.0384
 2338SOL    HW1 7592   9.408   9.079   5.317 -1.3322  1.0864 -0.8796
 2338SOL    HW2 7593   9.522   9.092   5.416 -3.1492 -0.5262  1.5460
 2339SOL     OW 7594   9.210   9.015   4.607  0.4240 -0.5008 -0.5078
 2339SOL    HW1 7595   9.147   9.080   4.575  0.9362 -1.0278 -2.7889
 2339SOL    HW2 7596   9.293   9.062   4.611 -0.0390  0.2669  2.7587
 2340SOL     OW 7597   1.379   6.030   6.923  0.2227  0.3470 -0.2298
 2340SOL    HW1 7598   1.405   6.064   7.009 -0.3549 -1.6979  0.8118
 2340SOL    HW2 7599   1.430   5.950   6.913 -2.5757 -1.6286  0.0830
 2341SOL     OW 7600   8.590   4.534   9.391 -0.1159 -0.6010 -0.1768
 2341SOL    HW1 7601   8.663   4.561   9.447  0.0271  0.3197 -0.7784
 2341SOL    HW2 7602   8.541   4.614   9.374  0.2061 -0.7097 -1.8612
 2342SOL     OW 7603   1.764   6.405   3.093 -0.0026 -0.1865 -0.4187
 2342SOL    HW1 7604   1.676   6.442   3.105 -0.3985 -1.3229  0.4007
 2342SOL    HW2 7605   1.807   6.465   3.032 -0.9414  1.0545  0.0821
 2343SOL     OW 7606   7.525   0.597   1.704 -0.1749  0.6797  0.1877
 2343SOL    HW1 7607   7.449   0.593   1.761 -0.1524  0.5385  0.2084
 2343SOL    HW2 7608   7.494   0.560   1.621 -0.0771  0.4504  0.2537
 2344SOL     OW 7609   8.045   1.388   5.591  0.2448  0.2605  0.4300
 2344SOL    HW1 7610   8.139   1.371   5.583  0.3784  1.5460 -1.3546
 2344SOL    HW2 7611   8.008   1.305   5.622  1.4941 -1.5832 -2.6196
 2345SOL     OW 7612   5.473   5.379   5.863 -0.6193  0.4507  0.4000
 2345SOL    HW1 7613   5.547   5.326   5.833 -0.1461  1.3120  0.0132
 2345SOL    HW2 7614   5.434   5.327   5.933  0.5252  0.1031  0.8171
 2346SOL     OW 7615   9.205   1.699   9.750 -0.2785  0.2916 -0.4283
 2346SOL    HW1 7616   9.210   1.794   9.739  1.4312  0.2539 -0.1849
 2346SOL    HW2 7617   9.202   1.665   9.661 -0.8528  0.5526 -0.5169
 2347SOL     OW 7618   2.515   9.091   4.519 -0.1545 -0.1722 -0.4632
 2347SOL    HW1 7619   2.425   9.120   4.504  0.1814  0.8977 -0.5007
 2347SOL    HW2 7620   2.564   9.128   4.446  0.5272  0.3285  0.2344
 2348SOL     OW 7621   2.567   6.162   4.653 -0.4336 -0.8819  0.1728
 2348SOL    HW1 7622   2.591   6.106   4.579  0.6279 -0.0389 -0.1590
 2348SOL    HW2 7623   2.640   6.153   4.715  0.6276  1.3646 -0.6365
 2349SOL     OW 7624   1.318   5.451   9.887  0.0226  0.1872  0.2744
 2349SOL    HW1 7625   1.398   5.412   9.851 -0.7156 -1.4405  0.3010
 2349SOL    HW2 7626   1.331   5.449   9.982  0.0098  0.0623  0.2731
 2350SOL     OW 7627   0.251   1.039   9.801  0.1308  0.0078  0.0472
 2350SOL    HW1 7628   0.215   0.961   9.758 -0.3003 -0.1016  0.5921
 2350SOL    HW2 7629   0.345   1.024   9.801  0.3321  0.7672 -2.3120
 2351SOL     OW 7630   7.739   3.211   5.316 -0.2297 -0.0220  0.1221
 2351SOL    HW1 7631   7.676   3.139   5.323 -1.6214  0.9295 -1.8730
 2351SOL    HW2 7632   7.717   3.268   5.390 -0.6218 -0.4972  0.3840
 2352SOL     OW 7633   7.595   1.415   4.962  0.9260  0.0936 -0.0768
 2352SOL    HW1 7634   7.586   1.493   5.017 -0.6023 -0.3903  0.4094
 2352SOL    HW2 7635   7.607   1.450   4.873 -0.9945  0.9402 -0.0656
 2353SOL     OW 7636   6.299   3.616   2.412 -0.3982 -0.0380 -0.5245
 2353SOL    HW1 7637   6.305   3.641   2.504  0.8998 -1.7861 -0.1082
 2353SOL    HW2 7638   6.304   3.521   2.411  1.9223  0.0124 -2.5484
 2354SOL     OW 7639   9.131   1.264   6.636 -0.0655  0.1684 -0.5228
 2354SOL    HW1 7640   9.106   1.356   6.630 -1.5393 -0.0851  1.0419
 2354SOL    HW2 7641   9.112   1.228   6.550  0.3945  1.2756 -1.1069
 2355SOL     OW 7642   6.468   0.415   0.593  0.3004 -0.7057 -0.3051
 2355SOL    HW1 7643   6.560   0.399   0.618  0.3745 -1.9275 -1.2847
 2355SOL    HW2 7644   6.419   0.350   0.642 -0.3344  1.2871  1.8699
 2356SOL     OW 7645   4.895   6.607   0.415  0.7662 -0.0419 -0.6963
 2356SOL    HW1 7646   4.976   6.597   0.365  0.5318 -2.6265 -0.6999
 2356SOL    HW2 7647   4.825   6.596   0.351  0.4550 -1.1479 -0.1919
 2357SOL     OW 7648   0.131   5.721   4.622  0.7598  0.3430 -0.1009
 2357SOL    HW1 7649   0.182   5.641   4.633 -1.0778 -1.1295 -1.7519
 2357SOL    HW2 7650   0.103   5.744   4.711  0.9158 -1.1022  0.3469
 2358SOL     OW 7651   0.496   2.561   3.104 -0.1595 -0.2275 -0.0783
 2358SOL    HW1 7652   0.503   2.466   3.114  0.1138 -0.0814  1.3650
 2358SOL    HW2 7653   0.559   2.596   3.168  0.0376  0.9199 -0.8818
 2359SOL     OW 7654   3.896   6.962   5.238 -0.3467 -0.3541  0.4841
 2359SOL    HW1 7655   3.895   6.893   5.304 -1.6605 -0.7523  0.0853
 2359SOL    HW2 7656   3.891   7.044   5.288  0.5268 -0.5664  0.9318
 2360SOL     OW 7657   9.878   6.386   3.376  0.1080 -0.0500 -0.5035
 2360SOL    HW1 7658   9.804   6.436   3.409  0.4519  0.1303  0.0050
 2360SOL    HW2 7659   9.863   6.297   3.407  1.0749  0.3636  1.2742
 2361SOL     OW 7660   7.734   8.373   7.246  0.0383 -0.1227  0.7489
 2361SOL    HW1 7661   7.726   8.467   7.266 -1.1078 -0.1024  0.3026
 2361SOL    HW2 7662   7.701   8.365   7.156  1.0842 -0.8175  0.4143
 2362SOL     OW 7663   2.095   5.358   1.334  0.1430  0.0012 -0.1244
 2362SOL    HW1 7664   2.109   5.453   1.332  0.7642 -0.0118  1.6850
 2362SOL    HW2 7665   2.174   5.324   1.376 -0.9530 -1.1167  1.0813
 2363SOL     OW 7666   2.206   8.946   7.301  0.0124 -0.2392  0.0137
 2363SOL    HW1 7667   2.231   8.858   7.274 -0.2213 -0.1999 -0.3406
 2363SOL    HW2 7668   2.182   8.990   7.219  0.9714  0.4311  0.0655
 2364SOL     OW 7669   9.901   2.898   9.639 -0.2579 -0.1858  0.1518
 2364SOL    HW1 7670   9.885   2.983   9.682  1.7971  0.8391 -0.9929
 2364SOL    HW2 7671   9.831   2.892   9.574 -0.6118  0.4716  0.4466
 2365SOL     OW 7672   0.491   3.281   0.647 -0.2968 -0.1874 -0.1039
 2365SOL    HW1 7673   0.460   3.290   0.557 -0.1044 -0.2850 -0.1807
 2365SOL    HW2 7674   0.419   3.314   0.700  0.0246  0.9578 -0.3364
 2366SOL     OW 7675   3.394   5.090   0.609 -0.1396  0.0993 -0.2625
 2366SOL    HW1 7676   3.400   5.134   0.524  0.9261  0.2279 -0.1286
 2366SOL    HW2 7677   3.348   5.008   0.590 -1.8287  1.0707 -0.5719
 2367SOL     OW 7678   2.266   4.487   0.444 -0.7418 -0.1664  0.1470
 2367SOL    HW1 7679   2.279   4.500   0.350 -0.1017 -0.1396  0.2362
 2367SOL    HW2 7680   2.249   4.393   0.453 -1.6702 -0.0350 -0.0818
 2368SOL     OW 7681   4.820   7.906   8.809 -0.2091 -0.1676  0.4534
 2368SOL    HW1 7682   4.833   7.992   8.769  2.0687 -0.2546  0.8578
 2368SOL    HW2 7683   4.824   7.844   8.736  1.1692 -0.1133  0.4471
 2369SOL     OW 7684   6.101   3.571   0.449  0.0586  0.0720 -0.2015
 2369SOL    HW1 7685   6.153   3.651   0.454  0.1437  0.0486 -0.6615
 2369SOL    HW2 7686   6.063   3.562   0.536 -0.4490  0.9523 -0.3094
 2370SOL     OW 7687   4.747   1.418   3.637  0.3188 -0.7190 -0.3658
 2370SOL    HW1 7688   4.702   1.378   3.563  1.0357  1.0238 -1.8055
 2370SOL    HW2 7689   4.719   1.509   3.636 -0.2257 -0.7920  2.0057
 2371SOL     OW 7690   5.993   4.248   8.861 -0.0021 -0.4699 -0.1172
 2371SOL    HW1 7691   5.963   4.225   8.949 -0.7462  2.1438  0.4168
 2371SOL    HW2 7692   5.924   4.216   8.803 -0.0964 -1.1618  0.3655
 2372SOL     OW 7693   6.616   8.906   6.467 -0.1555 -0.4100 -0.1511
 2372SOL    HW1 7694   6.526   8.874   6.455 -0.5178  0.7830 -0.7809
 2372SOL    HW2 7695   6.614   8.952   6.550 -0.6913  1.3795 -1.1063
 2373SOL     OW 7696   5.508   3.762   7.045 -0.9740  0.0971 -0.0048
 2373SOL    HW1 7697   5.471   3.675   7.061  0.3730 -0.3671  0.7410
 2373SOL    HW2 7698   5.602   3.746   7.032 -0.8392  1.3459 -0.7677
 2374SOL     OW 7699   9.180   5.672   7.867 -0.1517 -0.2273 -0.2124
 2374SOL    HW1 7700   9.178   5.767   7.876 -0.7852 -0.1808 -0.7498
 2374SOL    HW2 7701   9.148   5.639   7.951  1.2232 -0.0096  0.4269
 2375SOL     OW 7702   0.984   6.207   0.569  0.5768  0.2730 -0.1438
 2375SOL    HW1 7703   0.943   6.188   0.485  0.5442  0.4701 -0.1719
 2375SOL    HW2 7704   1.078   6.197   0.553  0.5913  0.6660 -0.2914
 2376SOL     OW 7705   5.936   0.150   1.830 -0.0367  0.2885 -0.0618
 2376SOL    HW1 7706   5.992   0.127   1.756 -1.0298  1.3229 -1.1808
 2376SOL    HW2 7707   5.964   0.239   1.854 -0.7731  0.5818 -0.2510
 2377SOL     OW 7708   0.123   1.812   6.316  0.2607 -0.0497 -0.1954
 2377SOL    HW1 7709   0.123   1.904   6.292 -1.3709  0.0565  0.1088
 2377SOL    HW2 7710   0.213   1.794   6.343  1.2404  0.8115 -2.5962
 2378SOL     OW 7711   2.951   8.603   4.355 -0.3463 -0.4666  0.7134
 2378SOL    HW1 7712   2.877   8.545   4.337 -0.7775 -0.6065  2.6360
 2378SOL    HW2 7713   2.970   8.647   4.272 -2.0252 -1.0642 -0.0121
 2379SOL     OW 7714   9.244   7.584   4.836 -0.6849  0.5592 -0.5380
 2379SOL    HW1 7715   9.161   7.573   4.881 -0.2493 -3.8418 -0.3720
 2379SOL    HW2 7716   9.310   7.554   4.899  0.5815  0.1648 -1.9875
 2380SOL     OW 7717   0.829   7.420   2.761  0.8359 -0.3753 -0.1951
 2380SOL    HW1 7718   0.876   7.348   2.803 -2.0523 -2.1823  0.2495
 2380SOL    HW2 7719   0.815   7.389   2.671  0.5051  0.1190 -0.3152
 2381SOL     OW 7720   3.951   6.340   9.917 -0.3305  0.4490 -0.1011
 2381SOL    HW1 7721   3.925   6.299  10.000 -0.5827 -0.4163 -0.5918
 2381SOL    HW2 7722   4.029   6.391   9.939 -0.9611  1.0304  0.8676
 2382SOL     OW 7723   9.620   6.559   0.791 -0.7229 -0.0040 -0.2222
 2382SOL    HW1 7724   9.643   6.492   0.726  0.1732 -1.9171  1.9505
 2382SOL    HW2 7725   9.559   6.516   0.850 -0.6451  1.3009  0.8721
 2383SOL     OW 7726   4.744   8.143   3.809 -0.4772 -0.0385  0.0885
 2383SOL    HW1 7727   4.698   8.227   3.804 -0.1170  0.1766  0.2807
 2383SOL    HW2 7728   4.831   8.166   3.841 -0.4188 -0.5034  0.2730
 2384SOL     OW 7729   0.325   5.748   2.282  0.2145  0.5088  0.0775
 2384SOL    HW1 7730   0.349   5.677   2.342 -0.3198  0.6896  0.5177
 2384SOL    HW2 7731   0.336   5.711   2.195  1.8099  0.5020  0.2637
 2385SOL     OW 7732   0.538   2.666   3.417 -0.3899 -0.1474 -0.2061
 2385SOL    HW1 7733   0.445   2.661   3.438 -0.1047  2.1370  2.0506
 2385SOL    HW2 7734   0.578   2.596   3.469 -0.7879 -1.4484 -1.5387
 2386SOL     OW 7735   7.144   8.329   6.210  0.1207  0.1525  0.0614
 2386SOL    HW1 7736   7.048   8.332   6.202 -0.1399  1.0889  2.6038
 2386SOL    HW2 7737   7.171   8.420   6.214  0.7779 -0.0793  2.0164
 2387SOL     OW 7738   3.084   5.083   3.678 -0.7498 -0.0344  0.2670
 2387SOL    HW1 7739   3.050   5.039   3.756 -3.6774 -0.4397 -1.1049
 2387SOL    HW2 7740   3.100   5.173   3.707 -1.1701 -0.3295  1.4817
 2388SOL     OW 7741   2.786   9.221   8.366 -0.1314 -0.3121 -0.4434
 2388SOL    HW1 7742   2.731   9.289   8.405  0.6712  1.0772 -1.6540
 2388SOL    HW2 7743   2.723   9.153   8.339 -1.2565  1.0766 -1.4813
 2389SOL     OW 7744   0.620   1.358   7.845  0.0605  0.2744 -0.4925
 2389SOL    HW1 7745   0.655   1.273   7.817 -0.6584  0.1122 -0.9350
 2389SOL    HW2 7746   0.526   1.353   7.824 -0.0307  1.0880 -0.3005
 2390SOL     OW 7747   7.903   4.506   5.058  0.3432 -0.0642 -0.3788
 2390SOL    HW1 7748   7.956   4.427   5.058 -0.1473 -0.4271  1.0318
 2390SOL    HW2 7749   7.878   4.518   5.150  0.2992  1.6526 -0.5825
 2391SOL     OW 7750   8.849   0.230   5.924  0.2376  0.3135 -0.4547
 2391SOL    HW1 7751   8.774   0.289   5.927 -0.4935 -0.5535 -1.1540
 2391SOL    HW2 7752   8.864   0.206   6.015 -0.2577  0.5910 -0.2965
 2392SOL     OW 7753   2.319   8.525   1.881 -0.9502 -0.4068 -0.5012
 2392SOL    HW1 7754   2.362   8.445   1.910  0.9912  0.9475  0.6011
 2392SOL    HW2 7755   2.297   8.509   1.789 -2.5752 -2.9362  0.2378
 2393SOL     OW 7756   3.457   6.748   6.948 -0.1416 -0.6322 -0.3375
 2393SOL    HW1 7757   3.504   6.673   6.912 -1.0527 -0.8592 -1.0981
 2393SOL    HW2 7758   3.523   6.796   6.998  1.2827 -0.1148 -2.5810
 2394SOL     OW 7759   3.100   9.564   7.650 -0.3027 -0.1145 -0.2273
 2394SOL    HW1 7760   3.158   9.488   7.656 -0.1964  0.0334  0.7077
 2394SOL    HW2 7761   3.047   9.547   7.572  1.2547 -0.0526 -1.3471
 2395SOL     OW 7762   7.938   6.384   2.402  0.1440  0.1417  0.2670
 2395SOL    HW1 7763   7.926   6.362   2.494 -0.0418  2.0078  0.7222
 2395SOL    HW2 7764   7.950   6.479   2.401  1.0230  0.0617 -1.5488
 2396SOL     OW 7765   9.898   5.167   7.410  0.1553 -0.2171 -0.0745
 2396SOL    HW1 7766   9.829   5.112   7.448 -0.2685  1.6753  2.1448
 2396SOL    HW2 7767   9.979   5.132   7.446  0.1090 -0.6467 -0.3682
 2397SOL     OW 7768   4.621   3.962   9.999  0.2915 -0.4170 -0.1377
 2397SOL    HW1 7769   4.648   3.989   9.911  1.9416  2.7279  1.1805
 2397SOL    HW2 7770   4.675   3.884  10.017  0.6527 -0.5249 -1.5213
 2398SOL     OW 7771   9.028   9.463   8.589  0.0827  0.0302 -0.4109
 2398SOL    HW1 7772   9.001   9.376   8.617  1.4154 -0.7118 -1.3231
 2398SOL    HW2 7773   8.956   9.495   8.535  0.2805 -1.2196 -1.4656
 2399SOL     OW 7774   6.457   1.951   4.328 -0.2034  0.2634 -0.4395
 2399SOL    HW1 7775   6.514   1.919   4.398  0.9649 -0.1505 -1.5355
 2399SOL    HW2 7776   6.448   2.044   4.345 -2.2588 -0.2491  1.8326
 2400SOL     OW 7777   8.070   7.488   0.544 -0.3400  0.0307 -0.3618
 2400SOL    HW1 7778   8.036   7.504   0.456  0.1439 -1.1448 -0.7824
 2400SOL    HW2 7779   8.158   7.452   0.529  0.2719  1.0516  0.6448
 2401SOL     OW 7780   9.760   4.674   8.782  0.2887 -0.3537 -0.3398
 2401SOL    HW1 7781   9.691   4.612   8.761  0.3436 -1.0128  1.2358
 2401SOL    HW2 7782   9.837   4.620   8.797  1.0028  0.3234 -1.4440
 2402SOL     OW 7783   9.893   3.479   3.993  0.6345  0.4517 -0.1388
 2402SOL    HW1 7784   9.823   3.539   4.017 -0.8106 -1.4784  0.7987
 2402SOL    HW2 7785   9.970   3.535   3.981 -0.3724  2.3659  1.6697
 2403SOL     OW 7786   7.748   0.994   7.720  0.0795 -0.0570 -0.2678
 2403SOL    HW1 7787   7.674   0.988   7.659 -1.3136  0.7106  1.2636
 2403SOL    HW2 7788   7.717   0.949   7.798  0.8361  1.1842  0.7784
 2404SOL     OW 7789   0.724   2.311   3.020  0.4723  0.4265  0.2457
 2404SOL    HW1 7790   0.800   2.258   3.044  0.6333  0.4603 -0.1912
 2404SOL    HW2 7791   0.758   2.400   3.013  0.7710  0.1901 -1.6879
 2405SOL     OW 7792   4.628   0.081   7.708 -0.6745  0.1580 -0.0491
 2405SOL    HW1 7793   4.592   0.169   7.719 -0.2645  0.6508 -2.1243
 2405SOL    HW2 7794   4.649   0.052   7.796 -0.6015  2.2502  0.6737
 2406SOL     OW 7795   1.043   3.898   9.983 -0.0300  0.2432  0.1555
 2406SOL    HW1 7796   0.982   3.867   9.916 -0.5867  1.5376  0.0409
 2406SOL    HW2 7797   1.130   3.880   9.946 -0.3239 -1.0888  0.0746
 2407SOL     OW 7798   7.983   7.560   0.288  0.2968  0.4195  0.3420
 2407SOL    HW1 7799   7.949   7.555   0.198  0.8879 -1.9037  0.2029
 2407SOL    HW2 7800   8.016   7.650   0.295 -1.4524  1.2525 -1.1148
 2408SOL     OW 7801   9.012   1.279   8.632  0.3058  0.1849  0.2028
 2408SOL    HW1 7802   9.016   1.362   8.585  2.0225  0.9635  1.6082
 2408SOL    HW2 7803   8.930   1.239   8.604 -0.2133  2.0199 -1.0447
 2409SOL     OW 7804   7.707   8.555   8.090 -0.1164 -0.0930 -0.0290
 2409SOL    HW1 7805   7.635   8.556   8.154  0.3588  2.7019  0.5653
 2409SOL    HW2 7806   7.671   8.597   8.012  0.5004  0.2124 -0.1564
 2410SOL     OW 7807   1.784   2.060   5.160  0.2799 -0.3497 -0.4900
 2410SOL    HW1 7808   1.827   2.142   5.135  1.4439 -0.8709 -0.3032
 2410SOL    HW2 7809   1.691   2.080   5.160  0.5872  1.2627  0.5777
 2411SOL     OW 7810   6.819   3.972   5.251  0.4642  0.2649 -0.2503
 2411SOL    HW1 7811   6.755   3.905   5.228  2.0940 -1.1193 -1.0246
 2411SOL    HW2 7812   6.881   3.928   5.309  0.5803  1.6515  0.7465
 2412SOL     OW 7813   1.761   4.093   7.670 -0.0600 -0.0255 -0.4497
 2412SOL    HW1 7814   1.812   4.157   7.719  0.8418  0.1621 -1.5787
 2412SOL    HW2 7815   1.826   4.035   7.631 -0.7215 -0.1408 -1.4352
 2413SOL     OW 7816   4.377   2.283   2.406  0.2574 -0.0407  0.2660
 2413SOL    HW1 7817   4.325   2.260   2.483 -0.6716  0.6857 -0.1210
 2413SOL    HW2 7818   4.421   2.201   2.382 -0.6364 -0.6660  0.6799
 2414SOL     OW 7819   0.325   1.245   1.782 -0.3534 -0.9160 -0.1568
 2414SOL    HW1 7820   0.314   1.150   1.775  0.3550 -1.0166 -0.0421
 2414SOL    HW2 7821   0.420   1.258   1.778 -0.4984 -0.0787 -1.8567
 2415SOL     OW 7822   3.914   9.114   4.439  0.6230 -0.6088 -0.4100
 2415SOL    HW1 7823   3.977   9.104   4.368 -0.6687 -1.4087 -1.4896
 2415SOL    HW2 7824   3.858   9.036   4.433  0.3034 -0.5571  1.3169
 2416SOL     OW 7825   0.477   0.022  -0.013  0.5514 -0.3201  0.3469
 2416SOL    HW1 7826   0.497  -0.049   0.048 -2.1143 -0.3423  1.3617
 2416SOL    HW2 7827   0.528   0.096   0.019  0.9936 -0.9665  1.1811
 2417SOL     OW 7828   5.159   1.705   6.943  0.3669  0.0633 -0.4129
 2417SOL    HW1 7829   5.080   1.756   6.958  1.1703  1.3144 -0.2816
 2417SOL    HW2 7830   5.133   1.614   6.960 -1.8059  0.0231 -3.2122
 2418SOL     OW 7831   9.935   1.680   4.898 -0.5890  0.2160 -0.4709
 2418SOL    HW1 7832   9.923   1.586   4.911  0.9620 -0.1633 -1.3971
 2418SOL    HW2 7833   9.989   1.686   4.819 -0.0427  1.8547 -0.0171
 2419SOL     OW 7834   2.923   6.850   1.196 -0.1261 -0.0253  0.2657
 2419SOL    HW1 7835   2.981   6.802   1.137  0.9000  0.6232  0.7089
 2419SOL    HW2 7836   2.892   6.784   1.258  0.7180 -0.2602  0.4523
 2420SOL     OW 7837   5.409   1.026   4.113  0.4715 -0.2838 -0.6076
 2420SOL    HW1 7838   5.388   1.068   4.196  0.3556  0.9577 -1.2538
 2420SOL    HW2 7839   5.479   0.964   4.134  0.7203  0.3149  0.3318
 2421SOL     OW 7840   8.230   6.014   5.118  0.2207 -0.2769 -0.3340
 2421SOL    HW1 7841   8.222   5.930   5.163  1.1447 -0.3447 -0.2932
 2421SOL    HW2 7842   8.192   5.998   5.031 -2.4793  0.1131  0.6730
 2422SOL     OW 7843   5.244   3.384   8.378 -0.5595  0.2130  0.0258
 2422SOL    HW1 7844   5.172   3.377   8.315 -0.1546 -2.5466 -0.2540
 2422SOL    HW2 7845   5.315   3.335   8.338  0.0036 -0.8574  2.2388
 2423SOL     OW 7846   9.657   8.039   8.976  0.3892 -0.4125 -0.3312
 2423SOL    HW1 7847   9.654   8.125   8.934 -1.4201 -0.8733 -1.2231
 2423SOL    HW2 7848   9.735   7.997   8.940  2.6799  1.6556  1.8649
 2424SOL     OW 7849   5.657   3.931   4.364  0.6394 -0.4554  0.4233
 2424SOL    HW1 7850   5.564   3.930   4.343  0.6464 -1.1484  0.4080
 2424SOL    HW2 7851   5.689   4.013   4.326  0.0870 -0.3249  0.2293
 2425SOL     OW 7852   6.019   1.326   3.148  0.0430  0.1300  0.1644
 2425SOL    HW1 7853   5.939   1.343   3.199 -0.0820 -0.1510  0.0683
 2425SOL    HW2 7854   6.087   1.314   3.214 -0.1975 -0.6342  0.2911
 2426SOL     OW 7855   3.465   6.491   9.336 -0.1789  0.8925 -0.0897
 2426SOL    HW1 7856   3.415   6.521   9.260  1.2131 -1.1600 -1.9189
 2426SOL    HW2 7857   3.551   6.533   9.327  0.1565  0.2556  0.0727
 2427SOL     OW 7858   3.950   0.659   7.534 -0.1119 -0.3487 -0.0252
 2427SOL    HW1 7859   4.004   0.657   7.454 -1.8995 -0.3237 -1.2826
 2427SOL    HW2 7860   3.963   0.747   7.569  0.1335 -0.1068 -0.6884
 2428SOL     OW 7861   2.342   5.398   0.288  0.6631 -0.1752  0.2895
 2428SOL    HW1 7862   2.285   5.414   0.364  0.5335 -1.1963  0.4154
 2428SOL    HW2 7863   2.281   5.373   0.219  0.6969  1.5127 -0.4095
 2429SOL     OW 7864   3.413   1.886   1.877 -0.0587  0.2011  0.7956
 2429SOL    HW1 7865   3.476   1.820   1.903  0.3726  0.7839  1.2546
 2429SOL    HW2 7866   3.466   1.965   1.862 -0.6533  0.6506  1.0243
 2430SOL     OW 7867   4.927   6.789   9.507 -0.4839  0.3157  0.3201
 2430SOL    HW1 7868   4.865   6.830   9.446 -1.4243 -0.4817  0.7217
 2430SOL    HW2 7869   5.006   6.843   9.500 -0.5185  0.1838 -1.7028
 2431SOL     OW 7870   8.775   1.282   2.899 -0.4296  0.4152  0.5622
 2431SOL    HW1 7871   8.852   1.262   2.845 -1.4149  0.8414 -1.0654
 2431SOL    HW2 7872   8.772   1.210   2.962  2.6675  1.6104  2.3302
 2432SOL     OW 7873   5.401   9.905   7.876 -0.3527  0.1303 -0.0073
 2432SOL    HW1 7874   5.430   9.848   7.804 -0.5449  1.8679 -1.5426
 2432SOL    HW2 7875   5.482   9.931   7.920 -0.2772 -1.4044  0.8021
 2433SOL     OW 7876   1.739   0.376   7.921  0.1789  0.1665 -0.1710
 2433SOL    HW1 7877   1.798   0.450   7.940  0.7588 -0.0231 -1.1650
 2433SOL    HW2 7878   1.665   0.388   7.981  0.0985  1.7494 -0.5542
 2434SOL     OW 7879   7.120   4.074   7.246  0.1278  0.1103 -0.5440
 2434SOL    HW1 7880   7.158   4.161   7.233  0.0235  0.4894  1.3296
 2434SOL    HW2 7881   7.191   4.013   7.225  0.6704  0.6987 -0.4533
 2435SOL     OW 7882   9.468   9.664   3.764 -0.8097 -0.0636 -0.0936
 2435SOL    HW1 7883   9.511   9.715   3.695 -2.2286  0.0640 -0.9226
 2435SOL    HW2 7884   9.409   9.605   3.718 -0.7428 -0.9899  0.9589
 2436SOL     OW 7885   3.979   1.012   4.266 -0.8306 -0.5409 -0.3154
 2436SOL    HW1 7886   4.005   1.075   4.334  1.2943 -0.6019 -1.0270
 2436SOL    HW2 7887   4.041   1.026   4.195 -1.5387 -2.1238 -1.2873
 2437SOL     OW 7888   7.812   0.109   3.766  0.3954 -0.3932  0.1093
 2437SOL    HW1 7889   7.780   0.026   3.801 -1.6604  0.2402 -0.1205
 2437SOL    HW2 7890   7.870   0.143   3.834 -1.2848 -0.5040  1.6694
 2438SOL     OW 7891   4.772   2.365   0.679 -0.1824  0.5298 -0.7615
 2438SOL    HW1 7892   4.789   2.305   0.751  0.6084  1.2364 -0.3308
 2438SOL    HW2 7893   4.681   2.391   0.689 -0.3152 -0.0309 -0.5178
 2439SOL     OW 7894   5.707   6.542   5.963 -0.5473  0.8093  0.1888
 2439SOL    HW1 7895   5.692   6.447   5.958 -1.5886  0.9784 -0.1795
 2439SOL    HW2 7896   5.754   6.555   6.045  0.6494 -0.1492 -0.3159
 2440SOL     OW 7897   7.162   8.441   2.191 -0.0877  0.2256  0.4843
 2440SOL    HW1 7898   7.156   8.346   2.185  0.3698  0.2885 -1.3422
 2440SOL    HW2 7899   7.156   8.472   2.101 -2.7259  2.1148  1.1883
 2441SOL     OW 7900   1.945   1.526   3.497  0.9401  0.1197 -0.4475
 2441SOL    HW1 7901   1.865   1.475   3.504  0.5291  0.5258 -1.9149
 2441SOL    HW2 7902   1.948   1.578   3.577 -0.7945  0.8340 -0.8141
 2442SOL     OW 7903   1.929   9.824   4.091  0.5818  0.4532  0.0245
 2442SOL    HW1 7904   1.908   9.760   4.158  0.8311 -0.9565 -1.2013
 2442SOL    HW2 7905   2.024   9.827   4.089  0.5931  1.9581  1.0445
 2443SOL     OW 7906   8.496   1.592   2.247 -0.3499  0.4723  0.2591
 2443SOL    HW1 7907   8.413   1.599   2.199 -0.3168 -1.0177 -0.0701
 2443SOL    HW2 7908   8.471   1.605   2.339 -0.4166  3.2831 -0.0739
 2444SOL     OW 7909   8.572   0.742   9.674 -0.1534 -0.3071  0.0776
 2444SOL    HW1 7910   8.583   0.695   9.757 -3.1596  0.7449  1.1926
 2444SOL    HW2 7911   8.615   0.827   9.689 -0.3466 -0.2692  0.4255
 2445SOL     OW 7912   7.654   7.621   2.876 -0.3956 -0.2730 -0.0898
 2445SOL    HW1 7913   7.691   7.707   2.896 -0.1873  0.3641 -2.7846
 2445SOL    HW2 7914   7.562   7.628   2.901 -0.3512  0.7158 -0.1672
 2446SOL     OW 7915   6.304   6.304   4.002  0.0260  0.2581  0.2999
 2446SOL    HW1 7916   6.355   6.385   4.016  0.3659 -0.3101  2.8639
 2446SOL    HW2 7917   6.369   6.234   4.009 -0.7283 -0.3629  1.4198
 2447SOL     OW 7918   3.189   4.095   0.833 -0.5467  0.1219 -0.6084
 2447SOL    HW1 7919   3.285   4.101   0.829 -0.5450  0.8402  0.0880
 2447SOL    HW2 7920   3.164   4.166   0.893 -1.5800  0.5217 -1.4768
 2448SOL     OW 7921   6.910   1.372   4.800  0.4374 -0.0671  0.0996
 2448SOL    HW1 7922   6.821   1.340   4.787 -0.3265  0.8630  2.4802
 2448SOL    HW2 7923   6.947   1.377   4.712 -1.3637 -1.7689 -0.8417
 2449SOL     OW 7924   6.863   8.818   5.797 -0.2421 -0.0971  0.4531
 2449SOL    HW1 7925   6.840   8.777   5.714 -0.4010 -1.5205  1.1806
 2449SOL    HW2 7926   6.809   8.897   5.800  0.2801  0.3604 -1.0982
 2450SOL     OW 7927   8.047   6.094   7.909  0.4554  0.8055 -0.2299
 2450SOL    HW1 7928   8.065   6.176   7.955  1.0791  1.7525 -2.0380
 2450SOL    HW2 7929   8.117   6.088   7.844 -1.6156  0.7528 -2.5988
 2451SOL     OW 7930   2.351   4.942   8.283  0.0571  0.1915  0.0387
 2451SOL    HW1 7931   2.336   5.036   8.294 -1.3260 -0.0294  0.2261
 2451SOL    HW2 7932   2.266   4.901   8.304  0.9686 -1.1959  1.1743
 2452SOL     OW 7933   2.923   1.437   4.104 -0.3593  0.1307 -0.1136
 2452SOL    HW1 7934   2.834   1.410   4.126  0.6136 -1.7923  1.8728
 2452SOL    HW2 7935   2.937   1.405   4.015 -1.2483 -0.6607  0.0159
 2453SOL     OW 7936   9.818   4.209   4.175  0.3684  0.0198  0.2690
 2453SOL    HW1 7937   9.801   4.234   4.084  1.5116 -0.9275 -0.2279
 2453SOL    HW2 7938   9.890   4.266   4.203  1.4596 -1.1270 -0.1345
 2454SOL     OW 7939   3.345   0.064   1.295 -0.6056 -0.1064  0.4525
 2454SOL    HW1 7940   3.401   0.131   1.335 -2.7655  2.2480 -0.1232
 2454SOL    HW2 7941   3.394   0.034   1.218 -0.5552  2.9311 -0.8711
 2455SOL     OW 7942   4.217   2.844   6.612 -0.1106  0.5159 -0.4220
 2455SOL    HW1 7943   4.302   2.820   6.650  1.9305  2.2574 -3.4790
 2455SOL    HW2 7944   4.204   2.935   6.639  0.2400  1.0240 -1.8959
 2456SOL     OW 7945   5.582   0.583   3.742 -0.3726  0.0058 -0.4834
 2456SOL    HW1 7946   5.530   0.545   3.813 -0.5201 -0.4208 -0.8196
 2456SOL    HW2 7947   5.649   0.517   3.722  1.4021  1.2042  1.0871
 2457SOL     OW 7948   9.668   5.734   7.657  0.9821  0.4317  0.1509
 2457SOL    HW1 7949   9.655   5.685   7.738  0.2474  0.5554  0.1107
 2457SOL    HW2 7950   9.748   5.785   7.672  1.7787 -0.7835  0.1836
 2458SOL     OW 7951   3.236   6.692   7.327 -0.0304  0.4319  0.4395
 2458SOL    HW1 7952   3.210   6.621   7.269  0.9307 -0.7384  1.3749
 2458SOL    HW2 7953   3.167   6.695   7.393  0.0104  0.2322  0.4942
 2459SOL     OW 7954   9.592   7.275   9.571 -0.4334  0.0544 -0.0017
 2459SOL    HW1 7955   9.514   7.324   9.597 -0.2907  0.7356 -0.8034
 2459SOL    HW2 7956   9.640   7.335   9.514 -0.1974 -0.9947 -0.9394
 2460SOL     OW 7957   1.219   0.687   8.852  0.4922  0.6722 -0.1262
 2460SOL    HW1 7958   1.197   0.603   8.892 -3.3059  1.3382 -0.3960
 2460SOL    HW2 7959   1.278   0.729   8.914 -0.3123 -0.8147  1.7473
 2461SOL     OW 7960   9.067   0.308   9.060  0.2304 -0.0016  0.5027
 2461SOL    HW1 7961   8.983   0.352   9.046 -0.4011 -0.2928  3.0085
 2461SOL    HW2 7962   9.126   0.378   9.089 -0.2344 -0.3924  2.5154
 2462SOL     OW 7963   7.060   4.854   9.714  0.3746  0.3626 -0.6800
 2462SOL    HW1 7964   7.078   4.833   9.806  0.9906 -0.2445 -0.9271
 2462SOL    HW2 7965   7.123   4.801   9.665 -1.2870 -0.8749 -1.5522
 2463SOL     OW 7966   6.701   5.179   8.212  0.7369 -0.1464 -0.0723
 2463SOL    HW1 7967   6.702   5.261   8.161 -1.4630  1.6304  2.4873
 2463SOL    HW2 7968   6.649   5.119   8.158  3.7897 -0.6118 -2.8048
 2464SOL     OW 7969   0.959   2.123   4.152  0.6794 -0.5444  0.3358
 2464SOL    HW1 7970   1.032   2.087   4.101 -0.3726  1.2353 -2.6518
 2464SOL    HW2 7971   1.000   2.187   4.210  1.6841 -1.0467  0.2074
 2465SOL     OW 7972   5.518   6.165   3.158  0.1321 -0.2821  0.3844
 2465SOL    HW1 7973   5.573   6.186   3.233  1.0635  0.3742 -0.4513
 2465SOL    HW2 7974   5.429   6.185   3.187  0.4420 -0.3178  1.3992
 2466SOL     OW 7975   0.048   8.352   1.929  0.2910  0.1554 -0.3386
 2466SOL    HW1 7976   0.114   8.377   1.864  1.6452  1.9243  1.6126
 2466SOL    HW2 7977   0.097   8.307   1.997 -0.4847  1.4464  1.1318
 2467SOL     OW 7978   0.971   7.155   7.842  0.2595  0.3152  0.3191
 2467SOL    HW1 7979   0.925   7.092   7.897 -1.9929  1.8130  0.3184
 2467SOL    HW2 7980   0.961   7.122   7.753  1.3437 -0.5954  0.5114
 2468SOL     OW 7981   1.189   8.136   3.945 -0.0084  0.5610 -0.2528
 2468SOL    HW1 7982   1.111   8.157   3.894 -0.2317  0.4145  0.0270
 2468SOL    HW2 7983   1.163   8.062   3.999  0.4670  0.2113 -0.4920
 2469SOL     OW 7984   9.231   4.901   8.640 -0.1613  0.0383  0.5904
 2469SOL    HW1 7985   9.191   4.833   8.586 -0.7874  0.2627  0.7586
 2469SOL    HW2 7986   9.273   4.960   8.577  0.6590 -0.6642  0.4639
 2470SOL     OW 7987   9.595   5.683   8.455 -0.2098 -0.1993  0.6733
 2470SOL    HW1 7988   9.508   5.669   8.493  0.2975  0.0611  1.9815
 2470SOL    HW2 7989   9.591   5.772   8.420  0.0118  0.4564  2.2085
 2471SOL     OW 7990   8.904   0.393   1.990  0.0357 -0.2505 -0.4877
 2471SOL    HW1 7991   8.876   0.308   1.956  0.3412 -0.6764  0.2949
 2471SOL    HW2 7992   8.925   0.376   2.082 -1.9882  1.1043  0.2987
 2472SOL     OW 7993   7.272   8.113   6.341  0.3021  0.2054  0.2354
 2472SOL    HW1 7994   7.232   8.195   6.313 -0.6594 -0.8058 -1.4661
 2472SOL    HW2 7995   7.302   8.071   6.261  0.7123 -1.1589  1.0583
 2473SOL     OW 7996   1.221   8.987   8.150 -0.0241 -0.3147  0.2858
 2473SOL    HW1 7997   1.271   9.069   8.155 -1.1785  0.4047  0.3756
 2473SOL    HW2 7998   1.280   8.921   8.186  0.8487  0.5131  0.4207
 2474SOL     OW 7999   2.624   8.354   0.455 -0.0757  0.0008  0.0271
 2474SOL    HW1 8000   2.599   8.444   0.477  0.4263  0.2914 -0.5427
 2474SOL    HW2 8001   2.572   8.332   0.378  2.6925  1.3414 -2.4339
 2475SOL     OW 8002   5.297   1.921   7.142  0.5289 -0.3797  0.3599
 2475SOL    HW1 8003   5.261   1.846   7.094  0.0940 -0.1680  0.3532
 2475SOL    HW2 8004   5.282   1.996   7.085 -2.1811  0.2906  1.7798
 2476SOL     OW 8005   2.385   4.259   2.845 -0.5628 -0.1567 -0.1607
 2476SOL    HW1 8006   2.328   4.282   2.918  0.3157  1.8060 -0.0243
 2476SOL    HW2 8007   2.393   4.164   2.850 -1.4529 -0.1831  1.5881
 2477SOL     OW 8008   5.624   2.893   2.852 -0.4055  0.0983  0.6067
 2477SOL    HW1 8009   5.719   2.902   2.854 -0.3116 -0.8873  1.3037
 2477SOL    HW2 8010   5.595   2.964   2.795  0.8990 -0.8522 -1.3858
 2478SOL     OW 8011   1.169   8.910   3.059 -0.3348  0.1077 -0.1471
 2478SOL    HW1 8012   1.182   8.866   3.143  0.6485 -0.1805 -0.4335
 2478SOL    HW2 8013   1.247   8.965   3.049 -0.2954 -0.0887 -1.0086
 2479SOL     OW 8014   6.578   4.824   1.430 -0.2832 -0.5288  0.1020
 2479SOL    HW1 8015   6.569   4.778   1.513  0.4780  1.5964  1.4594
 2479SOL    HW2 8016   6.500   4.879   1.424 -0.7893 -1.3459 -1.0711
 2480SOL     OW 8017   8.169   7.988   3.480 -0.0236 -0.0798 -0.1362
 2480SOL    HW1 8018   8.138   8.070   3.520 -0.7040 -0.6945  0.6445
 2480SOL    HW2 8019   8.121   7.982   3.398 -0.2060  0.1494 -0.0485
 2481SOL     OW 8020   0.752   6.461   7.701  0.3169 -0.1448  0.1578
 2481SOL    HW1 8021   0.665   6.480   7.736  0.0752 -2.0867  0.7812
 2481SOL    HW2 8022   0.742   6.468   7.606 -0.5201 -0.2718  0.2265
 2482SOL     OW 8023   9.731   0.732   2.498  0.2106  0.0123  0.1641
 2482SOL    HW1 8024   9.826   0.744   2.508  0.6209  0.0922 -2.8098
 2482SOL    HW2 8025   9.713   0.762   2.409 -2.6514  0.0167  0.6603
 2483SOL     OW 8026   1.988   1.575   6.047 -0.2362  0.0894 -0.0539
 2483SOL    HW1 8027   2.045   1.587   6.124  0.7532 -0.3834 -0.6851
 2483SOL    HW2 8028   2.041   1.606   5.974 -0.5881 -0.8492 -0.7261
 2484SOL     OW 8029   4.955   4.379   6.548 -0.4801 -0.2782 -0.1487
 2484SOL    HW1 8030   4.921   4.426   6.472 -0.4831 -0.7257 -0.4234
 2484SOL    HW2 8031   5.048   4.401   6.550 -0.0529 -1.8444 -1.4577
 2485SOL     OW 8032   7.380   4.307   9.207 -0.9089 -0.2075  0.0391
 2485SOL    HW1 8033   7.435   4.337   9.135  0.8656 -1.0937  0.9571
 2485SOL    HW2 8034   7.434   4.243   9.253 -2.3441 -0.3513  1.6141
 2486SOL     OW 8035   4.716   5.164   1.784 -0.3957  0.0339  0.4841
 2486SOL    HW1 8036   4.734   5.174   1.878  0.3275 -1.4782  0.5391
 2486SOL    HW2 8037   4.740   5.073   1.765 -0.5999  0.3001 -1.1580
 2487SOL     OW 8038   1.580   3.467   7.664  0.0036  0.2426 -0.2521
 2487SOL    HW1 8039   1.515   3.501   7.602 -1.6983  0.7170  1.6819
 2487SOL    HW2 8040   1.589   3.537   7.729 -1.4280 -1.7830  2.2746
 2488SOL     OW 8041   6.685   6.728   5.934  0.0992  0.2875  0.5395
 2488SOL    HW1 8042   6.629   6.653   5.913 -1.4828  1.9361 -1.6917
 2488SOL    HW2 8043   6.677   6.737   6.029 -2.3964 -0.3945  0.4756
 2489SOL     OW 8044   3.172   6.827   9.873 -0.2869 -0.8948  0.1067
 2489SOL    HW1 8045   3.097   6.871   9.833 -1.4980 -1.0421  2.0586
 2489SOL    HW2 8046   3.152   6.734   9.864 -2.0845 -0.9789  3.4280
 2490SOL     OW 8047   5.777   6.272   0.053  0.0442 -0.5970  0.3860
 2490SOL    HW1 8048   5.869   6.246   0.052 -0.3320 -2.0424  0.0626
 2490SOL    HW2 8049   5.758   6.293  -0.039 -0.0409 -0.7013  0.3788
 2491SOL     OW 8050   8.266   1.436   8.895 -0.0044  0.5197  0.5360
 2491SOL    HW1 8051   8.190   1.392   8.934 -1.4273  2.2167 -0.1894
 2491SOL    HW2 8052   8.308   1.481   8.968  0.1281 -0.1656  0.8904
 2492SOL     OW 8053   3.586   8.012   3.425 -0.3879 -0.0427 -0.1660
 2492SOL    HW1 8054   3.513   7.958   3.393 -1.6996  0.1975  2.2532
 2492SOL    HW2 8055   3.556   8.102   3.414  0.3075  0.1361 -0.7583
 2493SOL     OW 8056   9.427   1.595   6.084 -0.1620  0.0245 -0.4494
 2493SOL    HW1 8057   9.399   1.687   6.094 -0.6925 -0.1994  0.2444
 2493SOL    HW2 8058   9.492   1.583   6.153  1.3912  0.4173 -1.7844
 2494SOL     OW 8059   5.759   0.963   3.421  0.6095 -0.3933  0.3039
 2494SOL    HW1 8060   5.670   0.940   3.447  0.9589  0.1944  2.1822
 2494SOL    HW2 8061   5.767   1.056   3.440  1.3928 -0.2687 -0.5749
 2495SOL     OW 8062   7.044   9.263   4.968  0.3510 -0.1430  0.4145
 2495SOL    HW1 8063   7.059   9.196   4.902 -0.7051 -0.7625  0.7679
 2495SOL    HW2 8064   6.952   9.288   4.955  1.0718  2.1947 -0.5633
 2496SOL     OW 8065   6.453   1.682   8.581  0.2774  0.1192  0.0608
 2496SOL    HW1 8066   6.398   1.759   8.570  2.5357  1.7605 -0.6432
 2496SOL    HW2 8067   6.415   1.634   8.654 -0.5148  2.5854  1.3577
 2497SOL     OW 8068   9.266   5.860   1.079 -0.3485  0.0661 -0.8095
 2497SOL    HW1 8069   9.221   5.890   1.000  1.3375 -0.3574 -2.0118
 2497SOL    HW2 8070   9.324   5.791   1.048  0.5664  0.0728  0.7695
 2498SOL     OW 8071   8.472   8.307   2.407  0.2596  0.2489 -0.1554
 2498SOL    HW1 8072   8.403   8.274   2.349 -1.1687 -0.0150  1.5772
 2498SOL    HW2 8073   8.439   8.391   2.438 -0.0068 -0.5236  1.7993
 2499SOL     OW 8074   4.186   6.428   2.800 -0.1524 -0.1964 -0.0790
 2499SOL    HW1 8075   4.239   6.445   2.878 -1.7570  1.9803  0.6146
 2499SOL    HW2 8076   4.187   6.333   2.791 -0.2155 -0.5610  2.8423
 2500SOL     OW 8077   3.140   5.998   1.773 -0.8107  0.0437 -0.0370
 2500SOL    HW1 8078   3.072   6.061   1.748 -1.0742 -0.5529 -0.8475
 2500SOL    HW2 8079   3.093   5.933   1.826 -0.7150  0.0466  0.0514
 2501SOL     OW 8080   0.509   3.697   1.438  0.4556  0.0429  0.4843
 2501SOL    HW1 8081   0.514   3.739   1.352 -0.0243  0.5723  0.7082
 2501SOL    HW2 8082   0.513   3.604   1.420 -0.9153  0.1025 -0.2275
 2502SOL     OW 8083   7.392   5.141   1.761 -0.5856 -0.3364  0.4029
 2502SOL    HW1 8084   7.345   5.224   1.762  0.5088  0.3121  0.8399
 2502SOL    HW2 8085   7.332   5.079   1.801 -0.8643  0.5810  1.4541
 2503SOL     OW 8086   4.749   3.844   9.470 -0.2183 -0.1569  0.1824
 2503SOL    HW1 8087   4.793   3.834   9.385  0.5532  0.6864  0.4764
 2503SOL    HW2 8088   4.661   3.873   9.447 -0.0689 -0.0954 -0.3377
 2504SOL     OW 8089   2.850   3.001   9.633  0.1101  0.3091  0.3318
 2504SOL    HW1 8090   2.912   3.011   9.561 -0.9143  1.1214 -0.4662
 2504SOL    HW2 8091   2.807   2.917   9.616  2.2133 -1.2288  1.9210
 2505SOL     OW 8092   3.284   2.121   9.863  0.0924  0.0474 -0.1545
 2505SOL    HW1 8093   3.219   2.156   9.924 -0.8596 -2.7738  0.6156
 2505SOL    HW2 8094   3.235   2.111   9.781 -0.1359 -0.8962  0.0794
 2506SOL     OW 8095   0.795   8.734   8.831 -0.0275 -0.6489 -0.3084
 2506SOL    HW1 8096   0.744   8.664   8.789  0.4188 -1.7300  0.8661
 2506SOL    HW2 8097   0.881   8.728   8.790  0.0057 -0.7794 -0.2203
 2507SOL     OW 8098   9.146   5.404   8.041  0.0156  0.0257  0.1447
 2507SOL    HW1 8099   9.191   5.344   7.982 -0.2086 -0.7479  0.7421
 2507SOL    HW2 8100   9.182   5.384   8.128  0.2287  1.0317  0.3018
 2508SOL     OW 8101   8.303   4.859   2.073 -0.1203  0.5016  0.6325
 2508SOL    HW1 8102   8.274   4.850   2.164 -0.4631  0.7478  0.5491
 2508SOL    HW2 8103   8.235   4.912   2.031  0.7973  1.6979  0.5993
 2509SOL     OW 8104   2.573   7.210   5.490 -0.1415  0.0285 -0.1245
 2509SOL    HW1 8105   2.546   7.123   5.518  1.4916 -0.0926  1.2258
 2509SOL    HW2 8106   2.649   7.194   5.434 -0.7004  0.5334 -1.0518
 2510SOL     OW 8107   4.642   8.255   5.165  0.4435 -0.3552  0.0322
 2510SOL    HW1 8108   4.565   8.198   5.165  0.8263 -0.9352 -1.7306
 2510SOL    HW2 8109   4.617   8.330   5.110  0.5124  0.3721  0.9743
 2511SOL     OW 8110   8.587   5.941   0.943  0.1378  0.5051  0.3746
 2511SOL    HW1 8111   8.578   6.021   0.892  0.3331  1.5215  1.8582
 2511SOL    HW2 8112   8.633   5.968   1.023 -0.1794 -0.9952  1.1146
 2512SOL     OW 8113   8.972   8.025   1.349  0.2373  0.2729  0.2443
 2512SOL    HW1 8114   9.034   8.095   1.369  0.5453 -0.1070  0.6369
 2512SOL    HW2 8115   9.026   7.948   1.333 -0.1540 -0.2944  1.5013
 2513SOL     OW 8116   1.551   4.858   3.990 -0.0642 -1.0751  0.0597
 2513SOL    HW1 8117   1.515   4.775   3.958 -1.6928 -0.3514 -0.1391
 2513SOL    HW2 8118   1.517   4.923   3.929 -1.4043  0.0848  1.9110
 2514SOL     OW 8119   8.979   2.419   2.010  0.0405  0.3395  0.0277
 2514SOL    HW1 8120   8.993   2.335   2.053  0.1361  1.2667  1.9074
 2514SOL    HW2 8121   8.987   2.400   1.916  0.5744 -1.6247  0.4325
 2515SOL     OW 8122   9.803   0.768   6.832  0.0066  0.0992 -0.3906
 2515SOL    HW1 8123   9.753   0.824   6.891 -2.0744 -2.1420  0.1421
 2515SOL    HW2 8124   9.807   0.683   6.876  3.1508 -0.2470 -1.0981
 2516SOL     OW 8125   3.425   7.823   4.922  0.1550  0.1878 -0.4539
 2516SOL    HW1 8126   3.392   7.883   4.988 -0.7257  0.0563 -0.7635
 2516SOL    HW2 8127   3.518   7.811   4.944  0.1627  1.0891  0.0287
 2517SOL     OW 8128   1.479   2.429   3.545 -0.3068 -0.1917  0.6180
 2517SOL    HW1 8129   1.422   2.504   3.528 -1.1772 -0.7106  1.1240
 2517SOL    HW2 8130   1.430   2.376   3.609  0.1230 -1.3590  0.0139
 2518SOL     OW 8131   9.210   4.907   2.969 -0.5192 -0.3797 -0.0473
 2518SOL    HW1 8132   9.167   4.824   2.987  1.4095 -1.1084  1.5675
 2518SOL    HW2 8133   9.235   4.941   3.055  0.5028  0.8808 -0.7945
 2519SOL     OW 8134   3.840   6.790   6.345 -0.2035  0.0519  0.1061
 2519SOL    HW1 8135   3.753   6.754   6.326  0.2157 -0.4106 -0.9956
 2519SOL    HW2 8136   3.889   6.717   6.383 -0.4423  0.4602  1.2496
 2520SOL     OW 8137   3.499   1.867   7.182  0.3103  0.1755 -0.2762
 2520SOL    HW1 8138   3.424   1.920   7.209  0.6273 -0.0501  1.1062
 2520SOL    HW2 8139   3.549   1.853   7.262  1.2666 -0.5846 -0.9797
 2521SOL     OW 8140   1.303   2.111   6.879 -0.1264 -0.2304 -0.7298
 2521SOL    HW1 8141   1.324   2.204   6.883  0.2808 -0.3189 -0.7130
 2521SOL    HW2 8142   1.209   2.106   6.895 -0.0737  0.1439 -0.2911
 2522SOL     OW 8143   6.502   9.810   0.731 -0.5246 -0.1952 -0.2173
 2522SOL    HW1 8144   6.412   9.822   0.761 -0.6838 -0.2758 -0.6650
 2522SOL    HW2 8145   6.509   9.865   0.653 -0.3972 -0.7560 -0.5985
 2523SOL     OW 8146   2.755   0.714   7.184 -0.1700 -0.4992  0.2269
 2523SOL    HW1 8147   2.749   0.715   7.089  1.7257 -2.2858  0.0241
 2523SOL    HW2 8148   2.669   0.682   7.213 -0.4247 -0.9144 -0.9477
 2524SOL     OW 8149   9.656   5.144   9.431 -0.0484  0.4673 -0.0284
 2524SOL    HW1 8150   9.581   5.120   9.487 -0.4371 -0.6315 -0.9842
 2524SOL    HW2 8151   9.725   5.083   9.457  0.1772  0.7831  0.1158
 2525SOL     OW 8152   7.073   1.289   0.212  0.1348 -0.5055 -0.2144
 2525SOL    HW1 8153   7.123   1.211   0.235  2.0350  1.0710  1.2981
 2525SOL    HW2 8154   7.114   1.360   0.260 -1.5861  1.4620 -1.4437
 2526SOL     OW 8155   7.332   4.335   1.899 -0.1989 -0.7276  0.0685
 2526SOL    HW1 8156   7.417   4.349   1.942 -0.5950  0.0242  0.6234
 2526SOL    HW2 8157   7.321   4.240   1.898  1.3476 -0.9374 -1.3902
 2527SOL     OW 8158   0.920   0.128   1.217  0.3365  0.4320 -0.2924
 2527SOL    HW1 8159   0.899   0.073   1.141 -2.0671  2.6669 -1.3991
 2527SOL    HW2 8160   0.845   0.118   1.275  1.0206  0.6532  0.6415
 2528SOL     OW 8161   0.239   6.035   2.684 -0.0605  0.1074  0.0570
 2528SOL    HW1 8162   0.331   6.058   2.675  0.0654 -0.1348  0.6838
 2528SOL    HW2 8163   0.238   5.940   2.697 -0.5167 -0.1613 -1.5761
 2529SOL     OW 8164   9.849   6.350   4.298 -0.6423 -0.5347 -0.0238
 2529SOL    HW1 8165   9.875   6.433   4.260 -1.7604  0.1781  0.6813
 2529SOL    HW2 8166   9.774   6.321   4.246 -2.1361  0.4121  1.4757
 2530SOL     OW 8167   3.675   8.662   0.830  0.3316 -0.2849  0.5110
 2530SOL    HW1 8168   3.614   8.730   0.859 -0.1213 -1.0464  1.4023
 2530SOL    HW2 8169   3.639   8.632   0.746  0.5637  0.5936  0.0855
 2531SOL     OW 8170   3.791   5.339   2.263 -0.1011 -0.2455  0.2404
 2531SOL    HW1 8171   3.837   5.371   2.341 -0.0941 -0.6164  0.3926
 2531SOL    HW2 8172   3.808   5.244   2.263  0.2841 -0.1826 -0.4655
 2532SOL     OW 8173   4.203   1.366   1.422  0.0249 -0.1959  0.1143
 2532SOL    HW1 8174   4.120   1.341   1.465 -0.2907 -1.6182 -1.2345
 2532SOL    HW2 8175   4.266   1.302   1.454  1.0253  1.7052  2.2233
 2533SOL     OW 8176   8.811   9.287   4.588  0.0585  0.2468 -0.1880
 2533SOL    HW1 8177   8.728   9.318   4.551 -0.2030  0.4101  0.5194
 2533SOL    HW2 8178   8.789   9.264   4.678  0.4257 -1.2561 -0.4625
 2534SOL     OW 8179   6.146   3.493   5.018 -0.1185  0.4809 -0.0362
 2534SOL    HW1 8180   6.055   3.464   5.010  0.2375 -2.0277  3.1199
 2534SOL    HW2 8181   6.144   3.562   5.084  0.0704  2.2637 -1.7896
 2535SOL     OW 8182   1.697   0.785   4.327 -0.3168 -0.1175 -0.3083
 2535SOL    HW1 8183   1.681   0.812   4.418  0.2090 -0.5524 -0.0851
 2535SOL    HW2 8184   1.757   0.851   4.293 -1.1488  0.5081 -0.5993
 2536SOL     OW 8185   8.713   3.031   4.928  0.2397  0.6159 -0.7317
 2536SOL    HW1 8186   8.653   3.047   4.855 -2.1113  1.8836  1.3193
 2536SOL    HW2 8187   8.775   2.967   4.895 -1.0462  0.7395 -3.6442
 2537SOL     OW 8188   5.461   4.281   9.471 -0.2383 -0.0522  0.1804
 2537SOL    HW1 8189   5.426   4.244   9.390 -4.0574 -0.4538  1.8047
 2537SOL    HW2 8190   5.426   4.371   9.473  0.6707  0.2999  0.9126
 2538SOL     OW 8191   9.635   8.956   3.696 -0.0105 -0.1504 -0.1790
 2538SOL    HW1 8192   9.605   8.903   3.770  0.4386  0.5295  0.5043
 2538SOL    HW2 8193   9.730   8.958   3.704  0.0043  0.4044 -0.4417
 2539SOL     OW 8194   9.334   7.549   0.497  0.0562  0.1743 -0.4048
 2539SOL    HW1 8195   9.327   7.539   0.592 -2.2904  0.4090 -0.4995
 2539SOL    HW2 8196   9.294   7.469   0.462  1.1923 -0.0572 -1.2224
 2540SOL     OW 8197   2.198   3.079   7.570  0.0530 -0.0656 -0.3550
 2540SOL    HW1 8198   2.253   3.003   7.588  2.1279  1.4747  0.2416
 2540SOL    HW2 8199   2.189   3.080   7.474 -1.6297 -2.0521 -0.2943
 2541SOL     OW 8200   9.248   6.227   3.102  0.3307  0.1631  0.1817
 2541SOL    HW1 8201   9.337   6.203   3.075  0.1005  0.0528 -0.4914
 2541SOL    HW2 8202   9.247   6.323   3.095  0.1098  0.1023 -0.7423
 2542SOL     OW 8203   5.317   0.726   5.080 -0.1313 -0.7406 -0.3142
 2542SOL    HW1 8204   5.391   0.788   5.079 -0.4041 -0.1901  2.7323
 2542SOL    HW2 8205   5.261   0.758   5.151 -1.7870 -2.8535 -0.5921
 2543SOL     OW 8206   6.298   4.239   8.810  0.3764 -0.0553 -0.3334
 2543SOL    HW1 8207   6.230   4.258   8.874  0.4683 -0.8235  0.0114
 2543SOL    HW2 8208   6.324   4.148   8.829  1.1990  0.0845 -0.7239
 2544SOL     OW 8209   7.150   5.422   9.234  1.0049 -0.4282 -0.1005
 2544SOL    HW1 8210   7.241   5.446   9.217  0.6278  0.9214 -0.3665
 2544SOL    HW2 8211   7.114   5.403   9.147  0.7772  0.0466 -0.1143
 2545SOL     OW 8212   5.864   6.669   2.041  0.8620 -0.3233  0.1957
 2545SOL    HW1 8213   5.826   6.587   2.071  1.9345 -0.8045  0.2932
 2545SOL    HW2 8214   5.905   6.648   1.957  0.5716  0.2779 -0.1042
 2546SOL     OW 8215   2.935   1.965   9.039  0.0040  0.1487 -0.3768
 2546SOL    HW1 8216   2.840   1.953   9.032  0.2161 -0.6864 -3.4166
 2546SOL    HW2 8217   2.960   1.913   9.116 -2.0603  1.1925  1.0848
 2547SOL     OW 8218   5.085   8.555   5.444 -0.2319  0.1227  0.1324
 2547SOL    HW1 8219   5.034   8.537   5.365 -0.4877 -0.0281  0.3348
 2547SOL    HW2 8220   5.153   8.616   5.414  0.3190 -0.7531 -0.4315
 2548SOL     OW 8221   7.084   7.869   6.501 -0.5500  0.0994 -0.1244
 2548SOL    HW1 8222   7.108   7.929   6.430 -0.7362  2.1069  1.3967
 2548SOL    HW2 8223   7.018   7.918   6.552 -1.4885 -1.8367  0.6332
 2549SOL     OW 8224   7.688   2.015   8.998 -0.7004  0.1156 -0.1328
 2549SOL    HW1 8225   7.702   2.039   8.906 -1.0906  1.5118  0.1522
 2549SOL    HW2 8226   7.634   2.086   9.033 -0.3425 -0.2736  1.2400
 2550SOL     OW 8227   8.456   8.225   0.179  0.4663 -0.0583 -0.1022
 2550SOL    HW1 8228   8.370   8.243   0.141  0.1598 -0.1457  0.5448
 2550SOL    HW2 8229   8.501   8.172   0.113 -0.2063 -0.5506 -0.1670
 2551SOL     OW 8230   6.524   9.517   6.034  0.3625  0.2387  0.4109
 2551SOL    HW1 8231   6.519   9.610   6.056 -1.2211 -0.1018  1.7055
 2551SOL    HW2 8232   6.613   9.491   6.058 -0.0394  0.8257  2.7863
 2552SOL     OW 8233   1.500   2.610   5.932  0.2929  0.4880  0.0062
 2552SOL    HW1 8234   1.453   2.615   6.015  0.0509 -2.5412  0.1674
 2552SOL    HW2 8235   1.436   2.636   5.866 -0.0204  1.3062  0.6185
 2553SOL     OW 8236   0.697   2.394   1.047 -0.2571  0.3530  0.0123
 2553SOL    HW1 8237   0.751   2.322   1.080 -0.2562  0.0812 -0.5680
 2553SOL    HW2 8238   0.621   2.350   1.008 -0.9671  0.7304  0.9359
 2554SOL     OW 8239   2.482   4.297   5.977  0.0847  0.3756 -0.1164
 2554SOL    HW1 8240   2.458   4.390   5.980  0.7761  0.6223 -1.4982
 2554SOL    HW2 8241   2.482   4.270   6.069  2.9588  2.5547  0.6885
 2555SOL     OW 8242   5.117   3.842   8.839 -0.0005  0.3364  0.1330
 2555SOL    HW1 8243   5.211   3.855   8.848 -0.0310  4.3044 -2.7862
 2555SOL    HW2 8244   5.078   3.898   8.906 -0.2473  1.0966 -0.6337
 2556SOL     OW 8245   2.143   7.997   6.234 -0.2960  0.3386 -0.6354
 2556SOL    HW1 8246   2.228   7.984   6.191 -0.0034 -0.0112  0.0383
 2556SOL    HW2 8247   2.104   7.909   6.236  0.0583  0.1959  0.5555
 2557SOL     OW 8248   2.327   7.110   5.952 -0.3449  0.0709  1.3137
 2557SOL    HW1 8249   2.254   7.164   5.984  0.6428  1.5988  1.1275
 2557SOL    HW2 8250   2.312   7.100   5.858  0.2575  1.3959  1.0516
 2558SOL     OW 8251   9.475  -0.004   5.792  0.5495 -0.6877 -0.1574
 2558SOL    HW1 8252   9.395   0.041   5.821  0.5213 -0.8526  0.0232
 2558SOL    HW2 8253   9.466  -0.010   5.697  1.5282  1.5596 -0.4384
 2559SOL     OW 8254   7.045   0.133   7.042  0.0457  0.3400 -0.0860
 2559SOL    HW1 8255   7.059   0.039   7.030  0.8566  0.3382  0.7654
 2559SOL    HW2 8256   7.061   0.170   6.955 -0.2107 -0.2974 -0.4167
 2560SOL     OW 8257   5.774   7.120   9.294 -0.3611 -0.0692 -0.7088
 2560SOL    HW1 8258   5.866   7.143   9.280 -0.6259  2.3840  0.9565
 2560SOL    HW2 8259   5.770   7.087   9.384 -0.9860 -1.2312 -1.1288
 2561SOL     OW 8260   7.276   3.487   3.880  0.2526  0.5173  0.3992
 2561SOL    HW1 8261   7.225   3.567   3.873 -0.7116 -0.1564 -0.7240
 2561SOL    HW2 8262   7.363   3.511   3.848  0.2332  1.3214  0.9261
 2562SOL     OW 8263   2.612   7.204   6.718  0.4730  0.1211  0.3027
 2562SOL    HW1 8264   2.518   7.208   6.702  0.3228 -1.6359  0.5193
 2562SOL    HW2 8265   2.628   7.273   6.782 -1.2724 -1.5491  2.7323
 2563SOL     OW 8266   1.505   5.007   4.867  0.3862 -0.0036 -0.2364
 2563SOL    HW1 8267   1.478   5.095   4.894 -0.2339 -0.2962  0.1214
 2563SOL    HW2 8268   1.596   5.017   4.840  0.1881  0.8354 -0.6171
 2564SOL     OW 8269   0.212   7.010   1.836 -0.7259  0.4358 -1.0149
 2564SOL    HW1 8270   0.295   7.049   1.863 -0.9151 -0.3342  0.7824
 2564SOL    HW2 8271   0.179   7.069   1.769  0.5427  1.5709 -0.6835
 2565SOL     OW 8272   8.528   0.691   0.519  0.2375  0.1542 -0.5924
 2565SOL    HW1 8273   8.585   0.618   0.542  0.8439  0.2227 -1.7952
 2565SOL    HW2 8274   8.582   0.747   0.463 -0.7453  0.6546 -1.0637
 2566SOL     OW 8275   2.047   0.875   3.680 -0.2527 -0.3455 -0.3903
 2566SOL    HW1 8276   1.993   0.874   3.759  0.2892 -0.0616 -0.0002
 2566SOL    HW2 8277   2.046   0.785   3.649 -0.2901 -0.5114  0.0764
 2567SOL     OW 8278   6.569   2.214   1.646 -0.2364 -0.2977 -0.2137
 2567SOL    HW1 8279   6.661   2.192   1.635 -0.4296 -0.2394 -2.2674
 2567SOL    HW2 8280   6.530   2.134   1.682  0.1372 -1.3203 -1.9626
 2568SOL     OW 8281   1.964   1.812   2.182 -0.0274 -0.1471  0.5741
 2568SOL    HW1 8282   1.938   1.878   2.118 -1.1222 -0.9028  0.2199
 2568SOL    HW2 8283   2.001   1.740   2.129 -0.9322 -0.7732  0.7729
 2569SOL     OW 8284   4.684   4.094   5.097  0.1074  0.1101 -0.2376
 2569SOL    HW1 8285   4.771   4.120   5.126 -0.8981  1.9828  1.4185
 2569SOL    HW2 8286   4.668   4.011   5.142  0.8278  0.0133 -0.1471
 2570SOL     OW 8287   2.881   2.400   9.675  0.8544 -0.0681 -0.4272
 2570SOL    HW1 8288   2.810   2.464   9.673  0.8014 -0.1141 -0.1456
 2570SOL    HW2 8289   2.902   2.383   9.584 -0.9061 -1.6193 -0.6093
 2571SOL     OW 8290   1.964   1.439   0.142 -0.1340 -0.1449  0.0999
 2571SOL    HW1 8291   1.877   1.475   0.126 -0.4769 -1.6526 -1.8568
 2571SOL    HW2 8292   1.997   1.487   0.218 -2.1441  1.3536  0.0954
 2572SOL     OW 8293   2.029   9.009   1.627 -0.0994 -0.0028 -0.1398
 2572SOL    HW1 8294   2.075   9.007   1.711 -0.6501  0.3541  0.1753
 2572SOL    HW2 8295   1.981   9.091   1.628  0.9526  0.6451 -1.3950
 2573SOL     OW 8296   7.045   6.887   2.883  0.2772 -0.1823  0.4184
 2573SOL    HW1 8297   7.032   6.793   2.877  0.5755 -0.1975 -0.0109
 2573SOL    HW2 8298   7.128   6.904   2.837  0.5316  0.2146  1.0126
 2574SOL     OW 8299   8.364   3.204   3.083  0.6051 -0.5119 -0.1513
 2574SOL    HW1 8300   8.433   3.258   3.044 -0.5586  0.4610 -0.9406
 2574SOL    HW2 8301   8.300   3.192   3.012 -1.1280  0.5121  1.1680
 2575SOL     OW 8302   6.540   5.266   2.341  0.6078 -0.2747  0.1504
 2575SOL    HW1 8303   6.602   5.193   2.342  0.6105 -0.3058 -0.8796
 2575SOL    HW2 8304   6.473   5.239   2.279 -0.8424 -0.5406  1.7769
 2576SOL     OW 8305   4.791   5.746   8.970 -0.3484  0.4291  0.0540
 2576SOL    HW1 8306   4.853   5.700   9.027 -2.6973 -0.8916  1.7195
 2576SOL    HW2 8307   4.774   5.829   9.015 -0.3133  0.4763 -0.0193
 2577SOL     OW 8308   3.768   3.296   0.845 -0.3241 -0.0349 -0.1359
 2577SOL    HW1 8309   3.753   3.391   0.844  1.3715  0.2693 -1.7273
 2577SOL    HW2 8310   3.817   3.279   0.764  2.9241 -1.6488  1.9743
 2578SOL     OW 8311   2.756   1.792   1.864  0.2051 -0.1250 -0.8395
 2578SOL    HW1 8312   2.743   1.733   1.790 -0.8328  0.3959 -1.0939
 2578SOL    HW2 8313   2.743   1.737   1.941  0.8639 -0.5777 -1.0492
 2579SOL     OW 8314   0.249   5.959   1.742  0.4104  0.7276  0.2733
 2579SOL    HW1 8315   0.172   5.903   1.735 -0.6268  2.3003 -1.5728
 2579SOL    HW2 8316   0.322   5.897   1.745 -0.8031 -0.7711  0.5426
 2580SOL     OW 8317   1.808   8.559   5.091 -0.1364 -0.6200 -0.1630
 2580SOL    HW1 8318   1.769   8.643   5.113 -1.2073 -1.5443  1.7010
 2580SOL    HW2 8319   1.826   8.517   5.176  0.6104 -2.1661 -1.0241
 2581SOL     OW 8320   7.170   3.678   5.383  0.4615 -0.3981  0.0229
 2581SOL    HW1 8321   7.144   3.597   5.340 -0.3299  0.2879 -0.8395
 2581SOL    HW2 8322   7.236   3.716   5.325 -1.7876  1.3517 -1.5756
 2582SOL     OW 8323   8.603   3.998   8.887 -0.3472  0.8310 -0.0458
 2582SOL    HW1 8324   8.577   4.007   8.795 -0.2230  0.7073 -0.0941
 2582SOL    HW2 8325   8.555   3.922   8.918 -0.6842  1.1017  0.1005
 2583SOL     OW 8326   4.160   7.762   7.317  0.0363 -0.5934 -0.4703
 2583SOL    HW1 8327   4.206   7.834   7.274 -1.1340  0.1409 -0.5443
 2583SOL    HW2 8328   4.213   7.742   7.394  0.0914  0.7275 -0.1445
 2584SOL     OW 8329   0.161   5.988   0.055 -0.2047 -0.1859 -0.8312
 2584SOL    HW1 8330   0.201   6.059   0.005  1.3942 -0.4598  0.0042
 2584SOL    HW2 8331   0.067   6.000   0.041 -0.0567  2.6079 -0.0758
 2585SOL     OW 8332   5.445   1.394   7.875  0.8797  0.0868  0.4172
 2585SOL    HW1 8333   5.391   1.381   7.953 -0.8980  0.9488 -0.6137
 2585SOL    HW2 8334   5.506   1.464   7.899 -0.8673  1.6445  0.4931
 2586SOL     OW 8335   0.329   6.109   4.863 -0.4942  0.2920  0.3060
 2586SOL    HW1 8336   0.344   6.015   4.875 -0.7346 -0.3554 -3.2796
 2586SOL    HW2 8337   0.235   6.120   4.879 -0.6649 -0.3209 -0.1839
 2587SOL     OW 8338   5.918   5.157   2.768 -0.0963 -0.5471 -0.3596
 2587SOL    HW1 8339   5.858   5.221   2.807 -0.3370 -0.5754 -0.6852
 2587SOL    HW2 8340   5.988   5.147   2.833  0.2380  0.4704 -0.5434
 2588SOL     OW 8341   6.198   4.960   7.199  0.1976  0.0641 -0.2139
 2588SOL    HW1 8342   6.164   4.934   7.113 -1.8032  1.6637  0.0217
 2588SOL    HW2 8343   6.152   4.903   7.261  0.3145  0.1167 -0.0772
 2589SOL     OW 8344   6.226   7.424   4.849  0.3308 -0.0271 -0.0820
 2589SOL    HW1 8345   6.248   7.403   4.758  1.0265 -0.5738  0.2055
 2589SOL    HW2 8346   6.283   7.498   4.870  0.1148  0.1490 -0.1104
 2590SOL     OW 8347   0.861   4.981   9.577 -0.0222 -0.0163 -0.5323
 2590SOL    HW1 8348   0.880   4.887   9.574 -0.4193 -0.1034 -0.3426
 2590SOL    HW2 8349   0.910   5.013   9.653 -0.4358 -0.1967 -0.1882
 2591SOL     OW 8350   3.619   4.063   4.220 -0.4819 -0.3485  0.3958
 2591SOL    HW1 8351   3.553   4.058   4.150  0.3944 -0.5058 -0.4389
 2591SOL    HW2 8352   3.682   3.995   4.197 -0.7561 -1.1728  1.9763
 2592SOL     OW 8353   7.573   2.959   4.392  0.2858 -0.2216  0.0009
 2592SOL    HW1 8354   7.572   3.048   4.428  0.1745 -0.4232  0.5019
 2592SOL    HW2 8355   7.661   2.926   4.413 -1.0235 -1.8263  3.8289
 2593SOL     OW 8356   1.955   2.914   8.427  0.2448 -0.2719  0.3064
 2593SOL    HW1 8357   1.900   2.982   8.467  0.3259  1.0047 -1.6414
 2593SOL    HW2 8358   2.035   2.960   8.401  0.0965 -0.9866 -1.5035
 2594SOL     OW 8359   1.473   6.464   4.650  0.7312 -0.0972  0.2966
 2594SOL    HW1 8360   1.499   6.517   4.575 -0.6379 -1.0786 -0.9450
 2594SOL    HW2 8361   1.462   6.527   4.721  0.4853  1.1120 -0.7693
 2595SOL     OW 8362   6.018   2.255   3.579 -0.2269 -0.2218  0.0082
 2595SOL    HW1 8363   6.056   2.261   3.492 -2.4242  0.3257 -0.9775
 2595SOL    HW2 8364   6.039   2.166   3.608  3.4499  0.6423  0.4434
 2596SOL     OW 8365   8.790   8.891   6.822  0.4257  0.6754 -0.3446
 2596SOL    HW1 8366   8.778   8.865   6.730 -1.6948  0.6453 -0.0933
 2596SOL    HW2 8367   8.862   8.836   6.852  0.5557  0.0304 -1.7327
 2597SOL     OW 8368   2.302   2.461   7.863 -0.6073  0.0534  0.4936
 2597SOL    HW1 8369   2.310   2.414   7.780 -3.0687  0.8563 -0.2821
 2597SOL    HW2 8370   2.257   2.400   7.920  0.7842 -0.3706  1.1804
 2598SOL     OW 8371   0.840   8.802   7.279 -0.0856 -0.0423  0.4566
 2598SOL    HW1 8372   0.876   8.883   7.242 -0.4226  0.5476  1.3845
 2598SOL    HW2 8373   0.917   8.748   7.297  0.3811  1.1136  2.2007
 2599SOL     OW 8374   3.237   5.213   1.863 -0.3549  0.0162 -0.4297
 2599SOL    HW1 8375   3.329   5.196   1.846 -0.1855  1.6272 -1.3143
 2599SOL    HW2 8376   3.196   5.214   1.777 -0.4754  2.9782 -0.4511
 2600SOL     OW 8377   0.271   4.061   1.481  0.0243 -0.1146 -0.6414
 2600SOL    HW1 8378   0.270   4.087   1.389  0.0809  2.2126 -0.0387
 2600SOL    HW2 8379   0.193   4.007   1.492 -0.4897  0.3470 -1.8439
 2601SOL     OW 8380   2.106   6.659   8.863  0.4253 -0.3424  0.2204
 2601SOL    HW1 8381   2.162   6.734   8.845  1.3087 -1.1729 -0.6437
 2601SOL    HW2 8382   2.125   6.598   8.791 -1.5259 -0.6927 -0.0425
 2602SOL     OW 8383   4.583   7.192   7.133 -0.6864  0.1296 -0.2105
 2602SOL    HW1 8384   4.540   7.117   7.091 -1.7819 -0.3863  1.7003
 2602SOL    HW2 8385   4.513   7.235   7.182  0.5449  0.5361  1.2612
 2603SOL     OW 8386   6.260   2.753   3.880 -0.3519 -0.4199  0.1139
 2603SOL    HW1 8387   6.172   2.723   3.900 -1.0462  0.9479 -0.7204
 2603SOL    HW2 8388   6.249   2.843   3.851  1.3487 -0.1576  0.1447
 2604SOL     OW 8389   1.436   4.756   0.179 -0.0412 -0.0706 -0.2978
 2604SOL    HW1 8390   1.357   4.703   0.192 -0.2583  0.4606  0.6032
 2604SOL    HW2 8391   1.448   4.802   0.262  0.5327  0.7745 -0.8343
 2605SOL     OW 8392   3.337   7.032   2.166  0.3452 -0.2483 -0.1839
 2605SOL    HW1 8393   3.289   7.059   2.087  0.3031  1.2701  0.3268
 2605SOL    HW2 8394   3.319   7.101   2.230 -0.9368 -2.2604  1.7288
 2606SOL     OW 8395   6.674   1.859   6.338 -0.1362 -0.1687 -0.0674
 2606SOL    HW1 8396   6.678   1.795   6.408 -0.8348  1.3327  1.4061
 2606SOL    HW2 8397   6.765   1.888   6.327 -0.3555  1.7932  2.4354
 2607SOL     OW 8398   5.600   7.273   1.185 -0.3792 -0.0295 -0.0364
 2607SOL    HW1 8399   5.599   7.331   1.109 -1.4080 -0.2362 -0.2043
 2607SOL    HW2 8400   5.522   7.299   1.235  1.1730  1.3064  1.9031
 2608SOL     OW 8401   0.303   9.522   3.072 -0.2561  0.3537 -0.0781
 2608SOL    HW1 8402   0.301   9.608   3.031 -0.5588 -0.6338 -2.3132
 2608SOL    HW2 8403   0.247   9.467   3.015  0.3656 -1.4324  0.9501
 2609SOL     OW 8404   0.419   2.182   6.472  0.2660  0.5155  0.2347
 2609SOL    HW1 8405   0.471   2.197   6.394  0.4646  0.9845  0.4522
 2609SOL    HW2 8406   0.448   2.096   6.505  0.7072  0.6519  0.2039
 2610SOL     OW 8407   5.007   0.618   2.298  0.2503  0.0068 -0.1487
 2610SOL    HW1 8408   5.051   0.676   2.360 -0.4642 -1.3337  1.7378
 2610SOL    HW2 8409   4.917   0.650   2.294  0.0168 -0.5485  0.4027
 2611SOL     OW 8410   7.173   8.789   8.810  0.6145 -0.3123 -0.4399
 2611SOL    HW1 8411   7.128   8.820   8.889  0.5561 -0.6715 -0.3311
 2611SOL    HW2 8412   7.177   8.694   8.820  0.8715 -0.3341 -0.7304
 2612SOL     OW 8413   4.198   4.958   3.774  0.0175  0.3805  0.7068
 2612SOL    HW1 8414   4.191   4.885   3.712 -1.6697  0.6950  0.4852
 2612SOL    HW2 8415   4.184   4.918   3.860 -2.3236  0.5922  0.4789
 2613SOL     OW 8416   0.059   4.693   1.148 -0.0475  0.1673  0.0299
 2613SOL    HW1 8417   0.005   4.756   1.100  0.9793  1.3085  0.3306
 2613SOL    HW2 8418   0.111   4.650   1.081  1.2940  1.6711  0.0435
 2614SOL     OW 8419   5.532   8.077   1.095  0.1577  0.7968  0.1646
 2614SOL    HW1 8420   5.454   8.059   1.148 -0.1980 -0.4190 -0.7391
 2614SOL    HW2 8421   5.605   8.065   1.156 -0.2611 -0.2806  0.4786
 2615SOL     OW 8422   1.375   7.311   5.226  0.5556  0.3219  0.1496
 2615SOL    HW1 8423   1.343   7.303   5.316 -1.0425  0.2505 -0.3922
 2615SOL    HW2 8424   1.468   7.288   5.232 -0.3468 -4.0395  1.1457
 2616SOL     OW 8425   6.474   5.858   2.850 -0.2784 -0.0633  0.4534
 2616SOL    HW1 8426   6.487   5.891   2.939  0.2981  0.7991  0.0638
 2616SOL    HW2 8427   6.562   5.850   2.814 -0.5296  0.0923 -0.2080
 2617SOL     OW 8428   5.655   8.435   2.393  0.0828 -0.3705 -0.1924
 2617SOL    HW1 8429   5.690   8.448   2.481 -0.1218  0.0415 -0.1710
 2617SOL    HW2 8430   5.571   8.480   2.394  1.1293  1.7379 -1.3212
 2618SOL     OW 8431   0.238   8.385   8.303 -0.2523 -0.2699  0.1452
 2618SOL    HW1 8432   0.182   8.326   8.352 -0.0588  0.3041  1.0864
 2618SOL    HW2 8433   0.215   8.472   8.335 -0.7537  0.2135 -1.4275
 2619SOL     OW 8434   0.083   2.738   5.136  0.2497 -0.1107 -0.6330
 2619SOL    HW1 8435   0.014   2.673   5.152 -0.7436  0.6658 -1.6076
 2619SOL    HW2 8436   0.039   2.823   5.148  1.9405  0.4731  2.4025
 2620SOL     OW 8437   3.971   7.537   8.228  0.8141 -0.0435  0.8112
 2620SOL    HW1 8438   3.945   7.495   8.310  3.8965 -1.4787  1.2076
 2620SOL    HW2 8439   4.053   7.580   8.248  0.7501  1.0847 -1.1316
 2621SOL     OW 8440   6.132   5.323   4.934 -0.8624 -0.2867 -0.0434
 2621SOL    HW1 8441   6.094   5.263   4.870  0.6107 -2.2752  0.8472
 2621SOL    HW2 8442   6.134   5.274   5.016  0.3687  0.9842  0.7382
 2622SOL     OW 8443   9.689   7.905   0.389 -0.2155  0.6085  0.2097
 2622SOL    HW1 8444   9.667   7.854   0.466  1.0249  0.0732  0.2356
 2622SOL    HW2 8445   9.669   7.996   0.413 -0.7119  0.3490  0.8092
 2623SOL     OW 8446   9.189   0.713   0.004 -0.2161  0.0433  0.8849
 2623SOL    HW1 8447   9.116   0.652   0.013 -0.6324  0.4569  0.3793
 2623SOL    HW2 8448   9.194   0.757   0.089 -1.2530  0.7706  0.5932
 2624SOL     OW 8449   3.189   8.841   6.630 -0.0669  0.6206  0.2074
 2624SOL    HW1 8450   3.208   8.748   6.628 -0.9740  0.4054  0.8503
 2624SOL    HW2 8451   3.143   8.859   6.548  0.6923  0.6453 -0.2187
 2625SOL     OW 8452   1.025   6.348   9.598 -0.2155  0.4731 -0.2370
 2625SOL    HW1 8453   1.087   6.329   9.528 -0.1544  0.3376 -0.1468
 2625SOL    HW2 8454   1.025   6.443   9.605  2.3620  0.4339  1.8634
 2626SOL     OW 8455   2.109   2.811   4.786 -0.4854  0.1893 -0.1461
 2626SOL    HW1 8456   2.191   2.762   4.783  0.5952  1.9742 -0.6449
 2626SOL    HW2 8457   2.110   2.855   4.870 -2.2297 -1.8115  1.0382
 2627SOL     OW 8458   3.537   9.729   9.960 -0.4108 -0.0944  0.8760
 2627SOL    HW1 8459   3.630   9.709   9.950 -0.0506  2.0129 -0.4369
 2627SOL    HW2 8460   3.493   9.663   9.907  0.5610  0.9126 -1.2858
 2628SOL     OW 8461   1.331   7.060   1.827 -0.1411 -0.0255 -0.4054
 2628SOL    HW1 8462   1.237   7.074   1.814 -0.4267  0.1506  1.5907
 2628SOL    HW2 8463   1.371   7.145   1.810 -0.5305  0.2913  0.2431
 2629SOL     OW 8464   5.258   1.175   4.561  0.5760 -0.3906  0.1032
 2629SOL    HW1 8465   5.219   1.088   4.563  1.0298 -0.5944  1.3194
 2629SOL    HW2 8466   5.185   1.234   4.543  0.0295 -0.9166  0.5416
 2630SOL     OW 8467   8.099   1.110   2.861 -0.4390 -0.4600  0.1187
 2630SOL    HW1 8468   8.125   1.027   2.819  0.6184 -0.6401  1.0697
 2630SOL    HW2 8469   8.104   1.174   2.790  1.8031 -0.6652  0.0003
 2631SOL     OW 8470   3.852   8.861   6.071  0.8520 -0.0508 -0.0726
 2631SOL    HW1 8471   3.925   8.911   6.036  1.4815  0.5025  1.9028
 2631SOL    HW2 8472   3.849   8.885   6.163 -2.2271  0.4096 -0.1992
 2632SOL     OW 8473   9.731   7.902   5.095  0.0782  0.7960 -0.5977
 2632SOL    HW1 8474   9.727   7.819   5.047  0.1235 -0.3547  1.2690
 2632SOL    HW2 8475   9.640   7.931   5.102 -0.2571 -0.4740  0.9157
 2633SOL     OW 8476   9.019   3.540   4.894  0.4180 -0.2021  0.3121
 2633SOL    HW1 8477   8.926   3.535   4.870  0.6083  0.3151 -0.5624
 2633SOL    HW2 8478   9.063   3.483   4.831  0.7453 -0.0653  0.4177
 2634SOL     OW 8479   6.364   0.519   2.280  0.1731 -0.3561 -0.0297
 2634SOL    HW1 8480   6.435   0.476   2.234 -1.3575 -1.4782 -1.4862
 2634SOL    HW2 8481   6.344   0.597   2.228  0.3390 -0.0343  0.3808
 2635SOL     OW 8482   7.989   3.655   4.289 -0.2919 -0.3460  0.3541
 2635SOL    HW1 8483   7.919   3.607   4.333 -1.0124 -1.2174 -1.6609
 2635SOL    HW2 8484   8.059   3.590   4.278  1.0394  0.5861  2.6115
 2636SOL     OW 8485   3.586   9.449   5.187  0.3440  0.4834  0.1308
 2636SOL    HW1 8486   3.538   9.369   5.163 -0.7952  0.9647  0.7276
 2636SOL    HW2 8487   3.678   9.424   5.183  0.0803 -0.3525 -1.4917
 2637SOL     OW 8488   9.511   3.845   9.417  0.5528  0.0416  0.0498
 2637SOL    HW1 8489   9.452   3.920   9.422 -0.3691 -0.7299  1.2423
 2637SOL    HW2 8490   9.460   3.778   9.371  0.3814 -0.7283  1.3408
 2638SOL     OW 8491   4.122   5.764   1.036  0.3408  0.2469 -0.7073
 2638SOL    HW1 8492   4.083   5.818   0.967 -1.4577  1.9913  1.5367
 2638SOL    HW2 8493   4.171   5.826   1.090  1.4651 -1.0357 -0.1826
 2639SOL     OW 8494   8.816   0.410   9.061 -0.3693  0.2603 -0.4126
 2639SOL    HW1 8495   8.767   0.492   9.057  0.2570  0.6085 -1.1450
 2639SOL    HW2 8496   8.753   0.344   9.032 -0.8593  0.4827  0.1179
 2640SOL     OW 8497   4.027   8.618   7.246  0.7312 -0.0329 -0.1899
 2640SOL    HW1 8498   4.043   8.654   7.159 -0.6615 -0.3330 -0.5898
 2640SOL    HW2 8499   4.099   8.557   7.261  1.4848  0.7120 -0.7353
 2641SOL     OW 8500   3.444   8.526   4.165  0.0202 -0.0918 -0.1589
 2641SOL    HW1 8501   3.450   8.622   4.160  0.0186  0.1438  2.6782
 2641SOL    HW2 8502   3.497   8.495   4.092  0.1908  2.0713 -1.0421
 2642SOL     OW 8503   9.589   8.364   0.913 -0.2171  0.2162  0.3283
 2642SOL    HW1 8504   9.628   8.399   0.833  1.1118 -0.5436  0.6190
 2642SOL    HW2 8505   9.635   8.409   0.984 -0.6781  0.1448  0.6782
 2643SOL     OW 8506   5.200   3.793   0.565 -0.3978 -0.3840 -1.1346
 2643SOL    HW1 8507   5.236   3.755   0.485  1.4066 -0.0942 -0.5042
 2643SOL    HW2 8508   5.167   3.718   0.615 -1.0961 -0.6090 -1.9103
 2644SOL     OW 8509   3.824   9.088   2.775  0.3879 -0.2311 -0.3438
 2644SOL    HW1 8510   3.789   8.999   2.778 -0.8258  0.2512  0.6760
 2644SOL    HW2 8511   3.747   9.144   2.765  1.0681  0.7606 -0.2103
 2645SOL     OW 8512   1.752   9.370   4.391 -0.2148 -0.4277 -0.2210
 2645SOL    HW1 8513   1.699   9.425   4.334  0.8262  1.1128  0.2392
 2645SOL    HW2 8514   1.842   9.384   4.362  0.3256  0.2620  1.6515
 2646SOL     OW 8515   8.530   0.408   2.786 -0.1523 -0.0736  0.5544
 2646SOL    HW1 8516   8.469   0.358   2.840 -1.5419  0.3526 -0.5558
 2646SOL    HW2 8517   8.509   0.381   2.696  1.0662  0.3544  0.1253
 2647SOL     OW 8518   7.722   1.204   4.100  0.1832 -0.5089 -0.2219
 2647SOL    HW1 8519   7.717   1.275   4.036  1.1818 -1.1939 -1.1067
 2647SOL    HW2 8520   7.811   1.209   4.135  0.1484 -1.0863 -0.0319
 2648SOL     OW 8521   8.331   1.778   7.363 -0.2145  0.7511  0.2974
 2648SOL    HW1 8522   8.325   1.874   7.364 -0.4751  0.7328  0.6675
 2648SOL    HW2 8523   8.346   1.754   7.455  0.3883  0.4686  0.1282
 2649SOL     OW 8524   3.432   0.833   8.973 -0.4975  0.8441 -0.3591
 2649SOL    HW1 8525   3.410   0.916   8.932 -0.2873  0.8320 -0.4956
 2649SOL    HW2 8526   3.463   0.778   8.901 -1.8631  0.2072 -0.5110
 2650SOL     OW 8527   7.842   1.842   0.997  0.0919  0.6960  0.2390
 2650SOL    HW1 8528   7.863   1.841   1.090 -2.5490 -1.4052  0.9367
 2650SOL    HW2 8529   7.759   1.889   0.992 -1.4432 -1.9422 -0.5275
 2651SOL     OW 8530   9.733   8.373   7.754  0.3134  0.3289  0.5839
 2651SOL    HW1 8531   9.743   8.279   7.773  1.0389  0.3991  0.5587
 2651SOL    HW2 8532   9.765   8.417   7.832  0.5313  0.5639  0.3655
 2652SOL     OW 8533   6.263   2.430   2.018 -0.9053  0.1751 -0.5298
 2652SOL    HW1 8534   6.352   2.436   1.981 -1.7453 -0.7605 -2.8705
 2652SOL    HW2 8535   6.235   2.521   2.025 -0.1157  0.4448 -0.7116
 2653SOL     OW 8536   1.448   0.154   2.513  0.1099  0.1761 -0.1350
 2653SOL    HW1 8537   1.459   0.059   2.518 -0.1391  0.1323 -0.3512
 2653SOL    HW2 8538   1.359   0.168   2.546  0.1027  0.3223 -0.2204
 2654SOL     OW 8539   6.153   3.412   1.565 -0.2402  0.5968 -0.3888
 2654SOL    HW1 8540   6.125   3.497   1.599  0.0107  0.7949 -0.6747
 2654SOL    HW2 8541   6.114   3.349   1.625  0.4857  0.9468  0.4857
 2655SOL     OW 8542   2.933   6.499   7.931  0.0181  0.7805  0.7570
 2655SOL    HW1 8543   3.007   6.531   7.879  1.0670 -3.6514 -0.9282
 2655SOL    HW2 8544   2.972   6.474   8.015 -0.2751  1.4918  1.1110
 2656SOL     OW 8545   1.230   0.983   2.085  0.0513 -0.0332 -0.4422
 2656SOL    HW1 8546   1.266   1.045   2.022 -1.3884 -0.6836 -1.9950
 2656SOL    HW2 8547   1.282   0.903   2.074 -1.1592 -0.6628 -2.0064
 2657SOL     OW 8548   3.176   0.272   4.539  0.2451 -0.2040 -0.1086
 2657SOL    HW1 8549   3.141   0.358   4.515  0.5033  0.2828  1.1640
 2657SOL    HW2 8550   3.144   0.213   4.471  0.6748  1.0210 -1.4246
 2658SOL     OW 8551   7.008   6.566  -0.001  0.2176  0.0232 -0.2841
 2658SOL    HW1 8552   7.008   6.476   0.029 -1.9004  0.6908  2.0588
 2658SOL    HW2 8553   7.094   6.600   0.023 -0.0047 -0.6022  1.5744
 2659SOL     OW 8554   1.148   9.914   4.101  0.1779  0.5914 -0.4334
 2659SOL    HW1 8555   1.109  10.001   4.095 -0.1475  0.4158 -0.8469
 2659SOL    HW2 8556   1.242   9.930   4.094  0.0920  0.8626 -1.0574
 2660SOL     OW 8557   3.547   3.726   1.903  0.0524  0.5839 -0.8992
 2660SOL    HW1 8558   3.476   3.693   1.848 -0.9757  0.5681  0.3661
 2660SOL    HW2 8559   3.545   3.670   1.981  0.5957  1.4086 -0.2690
 2661SOL     OW 8560   5.865   8.690   6.278  0.1314 -0.2549 -0.0810
 2661SOL    HW1 8561   5.800   8.743   6.232 -0.4212  0.0492  1.0236
 2661SOL    HW2 8562   5.813   8.632   6.334  0.7900 -0.3261  0.4701
 2662SOL     OW 8563   7.910   6.655   5.009  0.0356 -0.4592 -0.5069
 2662SOL    HW1 8564   7.966   6.606   5.069 -2.4046 -2.1079  0.6350
 2662SOL    HW2 8565   7.910   6.744   5.043  1.2093 -0.6305 -0.0045
 2663SOL     OW 8566   9.258   6.215   1.401 -0.6280  0.0002 -0.0107
 2663SOL    HW1 8567   9.177   6.222   1.350 -0.3702  0.2843 -0.3824
 2663SOL    HW2 8568   9.229   6.219   1.492 -0.8865  1.9418 -0.1446
 2664SOL     OW 8569   8.507   5.922   2.173  0.3718 -0.1272 -0.6875
 2664SOL    HW1 8570   8.450   5.999   2.171 -0.0588 -0.4424 -1.9005
 2664SOL    HW2 8571   8.487   5.879   2.256  1.2501  1.5044  0.4212
 2665SOL     OW 8572   2.709   1.128   2.993  0.0543  0.0373 -0.1304
 2665SOL    HW1 8573   2.642   1.084   3.046 -0.2257  0.7927  0.1680
 2665SOL    HW2 8574   2.790   1.115   3.040  0.1837 -1.1580 -0.6565
 2666SOL     OW 8575   9.496   4.405   1.003 -0.0402 -0.0924 -0.3528
 2666SOL    HW1 8576   9.408   4.438   1.024 -0.0166  1.0971 -1.9742
 2666SOL    HW2 8577   9.549   4.431   1.078 -0.8397  0.1507  0.1442
 2667SOL     OW 8578   9.592   5.133   8.716 -0.3675 -0.3257 -0.0578
 2667SOL    HW1 8579   9.678   5.144   8.756  0.2902 -0.6857 -1.3085
 2667SOL    HW2 8580   9.548   5.068   8.770  0.4700 -0.7451  0.1280
 2668SOL     OW 8581   3.899   2.799   1.006  0.4652 -0.0474  0.2505
 2668SOL    HW1 8582   3.970   2.736   1.005  2.0162  1.5983 -1.5473
 2668SOL    HW2 8583   3.940   2.883   0.986 -1.9401  1.0008 -0.7850
 2669SOL     OW 8584   4.576   5.650   4.721 -0.9641 -0.1036  0.1349
 2669SOL    HW1 8585   4.667   5.649   4.691 -0.4888  1.9654  1.2792
 2669SOL    HW2 8586   4.527   5.608   4.651  0.5880  0.8775 -1.6419
 2670SOL     OW 8587   3.224   6.195   8.858 -0.2226  0.5003  0.6896
 2670SOL    HW1 8588   3.172   6.186   8.938 -0.2187  0.2000  0.6606
 2670SOL    HW2 8589   3.175   6.258   8.805 -1.2004 -0.6494  0.1650
 2671SOL     OW 8590   7.514   9.339   9.631  0.0443  0.2178 -0.2327
 2671SOL    HW1 8591   7.547   9.416   9.585  1.5323  0.1622  0.7049
 2671SOL    HW2 8592   7.510   9.366   9.723  1.3351 -1.0503  0.2210
 2672SOL     OW 8593   9.623   9.726   4.774 -0.1518  0.2330  0.4222
 2672SOL    HW1 8594   9.653   9.697   4.688  1.5023 -0.0116  1.0344
 2672SOL    HW2 8595   9.530   9.704   4.776 -0.4193  0.9986 -1.5963
 2673SOL     OW 8596   3.480   0.638   3.733  0.0843 -0.3340  0.8405
 2673SOL    HW1 8597   3.483   0.723   3.777 -1.3953 -1.1985  2.7822
 2673SOL    HW2 8598   3.390   0.608   3.744  0.4940 -2.0372 -0.0332
 2674SOL     OW 8599   9.143   0.923   1.418 -0.1181  0.0790 -0.3703
 2674SOL    HW1 8600   9.197   0.898   1.493 -1.5550 -0.2983  0.5930
 2674SOL    HW2 8601   9.109   0.840   1.384  1.0027  0.1849 -1.8751
 2675SOL     OW 8602   6.155   6.583   2.140  0.0149 -0.0217  0.2084
 2675SOL    HW1 8603   6.178   6.648   2.073  1.2366 -1.2345 -0.6236
 2675SOL    HW2 8604   6.112   6.512   2.091 -1.2923  0.1212  1.0915
 2676SOL     OW 8605   7.822   0.399   2.911 -0.4560 -0.1279 -0.6027
 2676SOL    HW1 8606   7.748   0.354   2.870 -0.8756  1.1370 -1.3049
 2676SOL    HW2 8607   7.824   0.366   3.001 -1.7624 -0.3269 -0.6247
 2677SOL     OW 8608   0.220   0.992   1.744 -0.6087 -0.5177  0.3698
 2677SOL    HW1 8609   0.152   0.949   1.692 -0.1534  0.1758 -0.8497
 2677SOL    HW2 8610   0.296   0.934   1.736  0.0089  0.4532 -1.2845
 2678SOL     OW 8611   3.448   9.133   5.818  0.1110  0.0636 -0.0679
 2678SOL    HW1 8612   3.419   9.136   5.909 -1.7440  1.8688 -0.6350
 2678SOL    HW2 8613   3.415   9.050   5.785  2.6916 -1.6800  1.3854
 2679SOL     OW 8614   2.417   5.688   8.185  0.7815  0.6497 -0.0653
 2679SOL    HW1 8615   2.344   5.746   8.162 -0.2929 -0.4388  0.4760
 2679SOL    HW2 8616   2.440   5.644   8.103 -0.3332 -0.2428  0.0664
 2680SOL     OW 8617   9.444   1.230   7.821 -0.2321  0.3579  0.2231
 2680SOL    HW1 8618   9.396   1.150   7.800  0.7214 -0.0910 -0.3220
 2680SOL    HW2 8619   9.492   1.209   7.901  0.5014  0.1474 -0.2522
 2681SOL     OW 8620   4.107   3.179   8.701  0.0086  0.2026 -0.1590
 2681SOL    HW1 8621   4.115   3.266   8.662  1.8302  0.1096 -0.0873
 2681SOL    HW2 8622   4.136   3.190   8.791  1.1128 -0.6253 -0.3936
 2682SOL     OW 8623   5.167   2.238   3.622  0.3655  0.1959 -0.0015
 2682SOL    HW1 8624   5.105   2.167   3.609 -1.3104  1.5881 -0.0258
 2682SOL    HW2 8625   5.139   2.306   3.560  2.1291  0.7484 -0.2411
 2683SOL     OW 8626   8.839   1.158   7.592 -0.2408 -0.2119  0.1522
 2683SOL    HW1 8627   8.801   1.078   7.557 -0.3636 -0.1490  0.1416
 2683SOL    HW2 8628   8.799   1.228   7.541  0.0908 -0.1620 -0.0420
 2684SOL     OW 8629   1.425   4.334   4.767 -0.1747  0.2433  0.2985
 2684SOL    HW1 8630   1.472   4.417   4.777  0.0083  0.4173 -1.6256
 2684SOL    HW2 8631   1.416   4.323   4.673 -0.4884 -1.7858  0.5240
 2685SOL     OW 8632   7.313   3.008   6.285  0.0993 -0.3543 -0.3878
 2685SOL    HW1 8633   7.334   3.091   6.327 -1.1264  1.1753 -2.6642
 2685SOL    HW2 8634   7.398   2.971   6.260  0.6450  0.1967  0.6103
 2686SOL     OW 8635   2.955   7.003   6.524  0.6307  0.3459 -0.0432
 2686SOL    HW1 8636   2.886   6.949   6.486  1.1191 -0.8089  0.6578
 2686SOL    HW2 8637   2.979   7.064   6.455  0.0894 -0.3621 -0.8734
 2687SOL     OW 8638   2.646   2.037   9.060 -0.1216 -0.0285 -0.0458
 2687SOL    HW1 8639   2.645   2.091   8.981 -1.8584 -0.7329 -0.5432
 2687SOL    HW2 8640   2.654   1.947   9.028  1.5551 -0.1855  0.7181
 2688SOL     OW 8641   4.227   7.395   6.631  0.1192  0.1901  0.8971
 2688SOL    HW1 8642   4.295   7.368   6.693 -0.1212 -0.5835  0.8344
 2688SOL    HW2 8643   4.175   7.316   6.616 -0.3142  0.5724  0.3302
 2689SOL     OW 8644   0.971   7.487   1.508  0.3554 -0.6722 -0.3564
 2689SOL    HW1 8645   0.983   7.476   1.413  1.2129  1.3121 -0.5179
 2689SOL    HW2 8646   0.913   7.563   1.516  0.6169 -0.5824  0.7328
 2690SOL     OW 8647   1.599   4.110   2.606 -0.3348  0.1577  0.2838
 2690SOL    HW1 8648   1.627   4.186   2.554  0.5320 -0.4811 -0.2098
 2690SOL    HW2 8649   1.599   4.141   2.696  0.3762  0.6511  0.1229
 2691SOL     OW 8650   5.104   1.223   1.370  0.6693 -0.0696 -0.8069
 2691SOL    HW1 8651   5.027   1.272   1.342 -1.2582 -2.4105  0.0315
 2691SOL    HW2 8652   5.107   1.147   1.312  0.1843 -1.8388  1.3302
 2692SOL     OW 8653   8.322   2.919   5.685 -0.8469  0.6003 -0.6333
 2692SOL    HW1 8654   8.416   2.912   5.667 -0.6788  2.3331 -0.6471
 2692SOL    HW2 8655   8.286   2.834   5.659  0.6357  0.0899 -1.1290
 2693SOL     OW 8656   6.526   4.694   5.448  0.6281  0.0875 -0.5710
 2693SOL    HW1 8657   6.556   4.708   5.358 -2.3724 -2.6676 -2.2334
 2693SOL    HW2 8658   6.527   4.599   5.459 -0.9367  0.2420  1.5796
 2694SOL     OW 8659   2.908   3.099   3.006 -0.2992 -0.2761  0.0678
 2694SOL    HW1 8660   3.003   3.099   2.994 -0.1950 -0.9489  0.8311
 2694SOL    HW2 8661   2.886   3.189   3.028  0.1485 -0.0982 -0.1974
 2695SOL     OW 8662   4.648   3.507   0.432  0.0768  0.4324  0.3718
 2695SOL    HW1 8663   4.622   3.469   0.349  0.2747  0.7150  0.1791
 2695SOL    HW2 8664   4.589   3.468   0.496 -0.6484  0.8583 -0.0182
 2696SOL     OW 8665   9.927   2.222   7.352 -0.0910 -0.3078 -0.1049
 2696SOL    HW1 8666   9.910   2.306   7.394  1.4375 -0.2951  0.5677
 2696SOL    HW2 8667   9.928   2.158   7.423 -2.5256 -1.1687 -0.7452
 2697SOL     OW 8668   7.522   9.353   9.900  0.1294 -0.2902  0.0598
 2697SOL    HW1 8669   7.589   9.397   9.952 -0.4560 -0.3637  0.9049
 2697SOL    HW2 8670   7.544   9.260   9.906 -0.7350 -0.4376  1.3952
 2698SOL     OW 8671   1.333   6.701   0.094 -0.3160 -0.3217  0.0446
 2698SOL    HW1 8672   1.403   6.636   0.104 -0.4697 -0.5656 -0.4402
 2698SOL    HW2 8673   1.265   6.654   0.046  1.1643  1.2952 -4.0998
 2699SOL     OW 8674   5.893   7.267   2.788  0.2574  0.0832 -0.0522
 2699SOL    HW1 8675   5.899   7.183   2.834 -0.0687  0.0136 -0.1335
 2699SOL    HW2 8676   5.984   7.294   2.776  0.3579 -0.1452  0.1833
 2700SOL     OW 8677   7.684   1.016   6.544 -0.2256  0.2047 -0.2040
 2700SOL    HW1 8678   7.774   0.984   6.532 -0.1930  0.0563  0.3763
 2700SOL    HW2 8679   7.675   1.025   6.639 -0.4785  1.2335 -0.3158
 2701SOL     OW 8680   4.313   1.427   8.347  0.6130 -0.2806 -0.3126
 2701SOL    HW1 8681   4.399   1.408   8.309  1.7610  2.4349  0.6772
 2701SOL    HW2 8682   4.290   1.513   8.313 -1.6883 -0.8787 -0.4135
 2702SOL     OW 8683   2.262   2.494   0.186  0.4169  0.3603 -0.0323
 2702SOL    HW1 8684   2.204   2.424   0.158  0.2277 -0.5946  2.4912
 2702SOL    HW2 8685   2.204   2.557   0.231  1.1611 -0.3112  1.9833
 2703SOL     OW 8686   9.611   7.813   3.322 -0.4082 -0.4676 -0.6129
 2703SOL    HW1 8687   9.590   7.724   3.350  2.3789 -1.4937 -1.5137
 2703SOL    HW2 8688   9.634   7.804   3.230  0.6341  1.0519 -0.5279
 2704SOL     OW 8689   1.609   1.455   1.510  0.4798 -0.0614 -0.0993
 2704SOL    HW1 8690   1.517   1.429   1.508  0.2497  0.4196  2.2411
 2704SOL    HW2 8691   1.654   1.385   1.462 -0.8643 -1.3817  0.4660
 2705SOL     OW 8692   8.053   4.093   6.539  0.4716  0.6551  0.1790
 2705SOL    HW1 8693   7.972   4.124   6.580  0.1650  0.2178 -0.1016
 2705SOL    HW2 8694   8.106   4.172   6.530  0.1540  0.9138  0.5355
 2706SOL     OW 8695   0.737   9.794   1.679  0.4196 -0.3727  0.2608
 2706SOL    HW1 8696   0.679   9.773   1.752  1.4226  1.7140  1.7589
 2706SOL    HW2 8697   0.821   9.758   1.705  0.3683 -1.3045 -0.8040
 2707SOL     OW 8698   8.237   5.945   3.539 -0.0270 -0.2992  0.0835
 2707SOL    HW1 8699   8.279   5.881   3.596  0.2313 -1.6160 -1.5165
 2707SOL    HW2 8700   8.206   5.894   3.464 -2.9067  0.9015  0.3347
 2708SOL     OW 8701   5.851   6.659   4.031 -0.1554 -0.2716  0.1960
 2708SOL    HW1 8702   5.791   6.683   4.101 -0.3463  0.6774 -0.2713
 2708SOL    HW2 8703   5.935   6.696   4.057  0.2560 -1.6118  0.8564
 2709SOL     OW 8704   1.973   4.440   7.053  0.3521 -0.1924  0.3270
 2709SOL    HW1 8705   2.031   4.479   7.118  0.6520  0.1220 -0.1255
 2709SOL    HW2 8706   1.885   4.468   7.080  0.1931 -2.0986  2.0242
 2710SOL     OW 8707   6.302   0.960   7.006 -0.1730 -0.2868 -0.3029
 2710SOL    HW1 8708   6.398   0.963   7.010 -0.2005 -0.3332  0.7747
 2710SOL    HW2 8709   6.279   1.012   6.929  0.7709 -1.4935 -1.4474
 2711SOL     OW 8710   3.262   0.522   0.602 -0.3621  0.0701 -0.4140
 2711SOL    HW1 8711   3.325   0.486   0.665 -0.3751 -0.7597 -0.8691
 2711SOL    HW2 8712   3.298   0.607   0.578  0.1943 -0.0751 -0.1055
 2712SOL     OW 8713   6.987   6.912   0.424 -0.0506 -0.0681 -0.5440
 2712SOL    HW1 8714   6.898   6.936   0.449 -0.5205 -1.2991 -0.9579
 2712SOL    HW2 8715   6.975   6.845   0.356  1.1914  0.1291 -0.9752
 2713SOL     OW 8716   7.497   7.772   0.001 -0.4002 -0.5650  0.0462
 2713SOL    HW1 8717   7.560   7.734  -0.060  1.0994  0.3982  0.9464
 2713SOL    HW2 8718   7.489   7.707   0.071 -0.1710 -0.5482  0.0883
 2714SOL     OW 8719   2.865   6.969   0.701  0.1256 -0.1410  0.2593
 2714SOL    HW1 8720   2.795   6.926   0.750 -0.6913 -0.4822 -1.1675
 2714SOL    HW2 8721   2.821   7.033   0.646  1.1091  0.8252  0.5632
 2715SOL     OW 8722   2.369   0.250   2.570  0.3758  0.8390  0.5919
 2715SOL    HW1 8723   2.439   0.185   2.563 -1.3650 -1.0699 -0.1603
 2715SOL    HW2 8724   2.333   0.237   2.658 -0.0895  0.6385  0.3767
 2716SOL     OW 8725   8.824   4.376   2.300  0.5810  0.7138  0.1365
 2716SOL    HW1 8726   8.852   4.353   2.212 -1.2162  0.6840 -0.4537
 2716SOL    HW2 8727   8.771   4.303   2.329 -0.0626  1.3741  0.6632
 2717SOL     OW 8728   3.052   0.545   0.970 -0.1086  0.2911  0.0110
 2717SOL    HW1 8729   2.960   0.531   0.994 -0.5565  0.4628 -1.4621
 2717SOL    HW2 8730   3.072   0.474   0.909  0.3169  0.9822 -0.6803
 2718SOL     OW 8731   5.815   2.506   4.669 -0.3544 -0.2747 -0.4549
 2718SOL    HW1 8732   5.876   2.435   4.689 -0.2054  0.6388  2.9190
 2718SOL    HW2 8733   5.734   2.482   4.714  0.0950  2.1367  1.9492
 2719SOL     OW 8734   1.252   2.836   2.824 -0.2285  0.3017  0.3357
 2719SOL    HW1 8735   1.252   2.744   2.851 -1.0877  0.4790  1.0038
 2719SOL    HW2 8736   1.170   2.871   2.859 -1.1708  0.7049 -2.0638
 2720SOL     OW 8737   2.509   6.201   9.868 -0.2004  0.8117 -0.2184
 2720SOL    HW1 8738   2.472   6.124   9.825 -0.0107  0.6203 -0.0408
 2720SOL    HW2 8739   2.603   6.193   9.853  0.1726 -0.5977  2.3600
 2721SOL     OW 8740   8.127   4.887   6.646 -0.0509 -0.8694  0.1596
 2721SOL    HW1 8741   8.072   4.963   6.627 -0.0629 -1.0668 -0.6337
 2721SOL    HW2 8742   8.066   4.815   6.659  0.0138 -1.1723 -1.1049
 2722SOL     OW 8743   6.961   2.699   2.815 -0.0724  0.5169  0.2357
 2722SOL    HW1 8744   7.051   2.716   2.789 -0.2180  0.6255 -0.1913
 2722SOL    HW2 8745   6.969   2.659   2.902  0.2453  3.8542  1.8690
 2723SOL     OW 8746   7.642   7.500   4.732  0.3980 -0.0253 -0.0126
 2723SOL    HW1 8747   7.716   7.481   4.674 -1.0136  1.3785 -2.4677
 2723SOL    HW2 8748   7.671   7.576   4.782  0.0742  1.7781 -2.3587
 2724SOL     OW 8749   8.885   0.684   8.479  0.4020  0.3644  0.4586
 2724SOL    HW1 8750   8.922   0.750   8.421 -0.6188 -0.7321 -1.5482
 2724SOL    HW2 8751   8.879   0.727   8.564 -0.3760  2.9062 -0.8054
 2725SOL     OW 8752   8.841   5.228   4.091  0.3546  0.0156  0.2079
 2725SOL    HW1 8753   8.804   5.156   4.143  1.9166 -1.0193 -0.0690
 2725SOL    HW2 8754   8.843   5.194   4.002 -0.2538  0.9672 -0.1769
 2726SOL     OW 8755   1.654   6.155   0.589 -0.0121  0.7656 -0.2215
 2726SOL    HW1 8756   1.664   6.249   0.607 -2.2128  0.9628  0.1918
 2726SOL    HW2 8757   1.665   6.148   0.494  1.6032  1.1917 -0.1011
 2727SOL     OW 8758   4.926   9.547   9.929 -0.4106  0.8073 -0.1097
 2727SOL    HW1 8759   4.914   9.542   9.834  0.4740  0.7981 -0.2350
 2727SOL    HW2 8760   4.991   9.479   9.947 -1.6010 -0.1622  0.7076
 2728SOL     OW 8761   1.392   3.650   5.385 -0.2659  0.3759  0.3462
 2728SOL    HW1 8762   1.443   3.682   5.310 -1.7427  0.1221 -0.8094
 2728SOL    HW2 8763   1.305   3.687   5.373 -1.1327 -1.4067  0.7486
 2729SOL     OW 8764   8.486   8.427   2.818  0.3616  0.1666 -0.0048
 2729SOL    HW1 8765   8.471   8.511   2.775  0.3933  0.7712  1.1120
 2729SOL    HW2 8766   8.571   8.398   2.785 -0.3787 -0.2229 -1.6150
 2730SOL     OW 8767   3.833   6.433   5.639  0.3297 -0.2204  0.2499
 2730SOL    HW1 8768   3.769   6.505   5.638 -2.8918 -2.8109  0.3686
 2730SOL    HW2 8769   3.864   6.428   5.548  0.1089  0.8952  0.0959
 2731SOL     OW 8770   7.756   1.683   8.078 -0.7652 -0.1526 -0.5321
 2731SOL    HW1 8771   7.813   1.616   8.116  0.2998  0.1797 -1.4942
 2731SOL    HW2 8772   7.815   1.752   8.049 -1.8584  1.2925  0.5337
 2732SOL     OW 8773   0.134   8.008   1.168  0.2162  0.0762  0.5057
 2732SOL    HW1 8774   0.067   7.945   1.141  1.4849 -1.4423  0.7570
 2732SOL    HW2 8775   0.123   8.082   1.107 -1.0479 -0.5497 -0.0622
 2733SOL     OW 8776   6.103   8.847   1.247  0.2084  0.2702  0.1149
 2733SOL    HW1 8777   6.047   8.797   1.187 -1.1140 -1.6582  2.7693
 2733SOL    HW2 8778   6.042   8.894   1.304  1.3941  0.9668  0.8557
 2734SOL     OW 8779   3.258   6.035   0.330  0.3291  0.8062 -0.1737
 2734SOL    HW1 8780   3.323   6.035   0.260 -0.3093  1.2838 -0.7724
 2734SOL    HW2 8781   3.297   5.980   0.399  1.2352  0.8557 -0.6362
 2735SOL     OW 8782   7.024   9.110   2.362  0.0501  0.7063 -0.1425
 2735SOL    HW1 8783   7.077   9.053   2.306  0.5619  0.0490  0.9838
 2735SOL    HW2 8784   7.020   9.064   2.446 -1.9407  0.9412 -0.0560
 2736SOL     OW 8785   5.978   7.580   5.854  0.5031 -0.5890  0.2311
 2736SOL    HW1 8786   6.024   7.664   5.861 -0.7792  0.0446  1.2916
 2736SOL    HW2 8787   5.971   7.549   5.944 -0.0827 -1.2702 -0.0459
 2737SOL     OW 8788   0.201   0.860   3.247 -0.2098 -0.0795 -0.4850
 2737SOL    HW1 8789   0.203   0.900   3.160 -0.4808  0.3636 -0.2877
 2737SOL    HW2 8790   0.242   0.924   3.304  0.3094 -0.5297 -0.3431
 2738SOL     OW 8791   6.513   1.992   9.172  0.0168  0.1214 -0.0384
 2738SOL    HW1 8792   6.506   2.067   9.113  1.6254  0.6381  0.3807
 2738SOL    HW2 8793   6.587   1.942   9.138 -1.4132 -1.6629 -0.6839
 2739SOL     OW 8794   8.704   4.530   5.647 -0.0428  0.3630  0.1250
 2739SOL    HW1 8795   8.751   4.451   5.621 -1.1748  0.1615 -1.5100
 2739SOL    HW2 8796   8.729   4.545   5.738  1.1921 -1.1303  0.0710
 2740SOL     OW 8797   1.479   0.676   2.251  0.0442 -0.3078 -0.3472
 2740SOL    HW1 8798   1.552   0.707   2.305 -0.8671  0.4803  0.4494
 2740SOL    HW2 8799   1.518   0.664   2.164  1.0694  0.3450  0.0006
 2741SOL     OW 8800   7.251   8.308   9.609 -0.2254 -0.0036  0.1543
 2741SOL    HW1 8801   7.261   8.213   9.606 -0.0745 -0.0218  0.9092
 2741SOL    HW2 8802   7.218   8.326   9.697 -0.0443  0.6587  0.0994
 2742SOL     OW 8803   6.135   3.329   3.536  0.3932 -0.3890  0.1106
 2742SOL    HW1 8804   6.178   3.328   3.451  1.2874 -1.4155  0.5443
 2742SOL    HW2 8805   6.196   3.284   3.595 -0.2126  0.2707  1.2964
 2743SOL     OW 8806   3.951   5.520   1.531  0.7280 -0.1792  0.3918
 2743SOL    HW1 8807   3.944   5.424   1.524  0.3143 -0.0790 -0.8197
 2743SOL    HW2 8808   3.976   5.549   1.444 -0.0890  0.8951  0.4864
 2744SOL     OW 8809   4.421   1.249   6.238  0.2431  0.1561  0.3022
 2744SOL    HW1 8810   4.338   1.236   6.193 -0.2980  0.7990  1.0621
 2744SOL    HW2 8811   4.481   1.187   6.198 -0.9312 -1.2184  0.5888
 2745SOL     OW 8812   8.926   7.387   8.543  0.1916  0.2830 -0.3027
 2745SOL    HW1 8813   8.832   7.407   8.541  0.2507  0.5716 -0.2430
 2745SOL    HW2 8814   8.931   7.293   8.525 -0.2269 -0.1720  1.7333
 2746SOL     OW 8815   0.677   5.544   5.571 -0.8161 -0.0676 -0.5178
 2746SOL    HW1 8816   0.663   5.456   5.605 -0.4839 -0.4076 -1.2485
 2746SOL    HW2 8817   0.710   5.594   5.646 -0.7726 -0.6268 -0.1647
 2747SOL     OW 8818   6.494   9.295   6.354 -0.0607  0.0186 -0.2745
 2747SOL    HW1 8819   6.576   9.344   6.356  0.9616 -1.6411  1.6957
 2747SOL    HW2 8820   6.476   9.282   6.260  1.0737  1.7039 -0.7679
 2748SOL     OW 8821   8.035   8.402   7.882  0.3229  0.1749  0.2589
 2748SOL    HW1 8822   7.949   8.393   7.841  0.2994  2.8459 -0.4827
 2748SOL    HW2 8823   8.053   8.316   7.921 -2.3763 -0.6369 -0.1023
 2749SOL     OW 8824   1.844   2.157   9.820  0.2384  0.0920  0.0563
 2749SOL    HW1 8825   1.776   2.127   9.759 -0.6295 -1.3455  1.6221
 2749SOL    HW2 8826   1.895   2.078   9.839 -0.1568  0.2390  1.9246
 2750SOL     OW 8827   0.858   5.901   9.196 -0.4850 -1.0661 -0.1907
 2750SOL    HW1 8828   0.824   5.811   9.203 -1.9289 -0.5118  0.3158
 2750SOL    HW2 8829   0.866   5.916   9.101  0.9798 -2.1327 -0.2739
 2751SOL     OW 8830   4.234   4.858   2.904 -0.2292 -0.2741  0.5149
 2751SOL    HW1 8831   4.146   4.895   2.914 -0.0273  0.0233  1.2691
 2751SOL    HW2 8832   4.293   4.929   2.929  0.2434 -0.3783 -0.2662
 2752SOL     OW 8833   2.211   5.145   9.854 -0.5129  0.2875 -0.0833
 2752SOL    HW1 8834   2.171   5.061   9.874 -2.0603  0.9589 -0.2274
 2752SOL    HW2 8835   2.267   5.163   9.930 -3.2537  0.9461  1.9665
 2753SOL     OW 8836   7.955   4.054   3.054  0.4486 -0.2033 -0.0068
 2753SOL    HW1 8837   7.948   3.976   3.108  1.4777  0.2571  0.8414
 2753SOL    HW2 8838   7.948   4.127   3.115  0.6004  0.3481 -0.6275
 2754SOL     OW 8839   7.802   8.484   1.500 -0.6131  0.1821  0.1800
 2754SOL    HW1 8840   7.812   8.391   1.517  0.1332  0.0853 -0.7287
 2754SOL    HW2 8841   7.887   8.522   1.521 -0.3891  0.3984 -1.0218
 2755SOL     OW 8842   2.444   3.032   3.687  0.6880 -0.2620  0.0197
 2755SOL    HW1 8843   2.458   3.127   3.691 -0.2370 -0.1323  0.5062
 2755SOL    HW2 8844   2.405   3.010   3.771 -1.0460 -0.7246 -0.8497
 2756SOL     OW 8845   9.002   0.360   1.682  0.0311 -0.1150 -0.4598
 2756SOL    HW1 8846   9.057   0.385   1.608  0.7038 -0.4016 -0.0692
 2756SOL    HW2 8847   9.022   0.424   1.750  0.6421 -0.7922  0.0231
 2757SOL     OW 8848   8.953   8.398   4.579 -0.3453  0.1219  0.3294
 2757SOL    HW1 8849   9.015   8.464   4.609 -1.4678  1.0810  0.6044
 2757SOL    HW2 8850   9.007   8.321   4.561  0.8397  0.7344  1.1344
 2758SOL     OW 8851   7.743   1.133   2.986  0.1894 -0.1371 -0.1831
 2758SOL    HW1 8852   7.801   1.084   3.044  0.7826 -0.9260 -1.3922
 2758SOL    HW2 8853   7.745   1.084   2.904 -0.8985  0.7508 -0.7641
 2759SOL     OW 8854   6.405   9.739   7.837  0.3489 -0.1004  0.3443
 2759SOL    HW1 8855   6.454   9.666   7.875 -0.3067 -0.2681  0.8859
 2759SOL    HW2 8856   6.317   9.730   7.873 -0.3021 -0.2414 -1.2053
 2760SOL     OW 8857   8.875   6.012   9.532 -0.2475  0.4348 -0.4602
 2760SOL    HW1 8858   8.954   6.024   9.480  0.0661  2.1828  0.3641
 2760SOL    HW2 8859   8.907   5.987   9.619 -0.6692 -0.1249 -0.4596
 2761SOL     OW 8860   0.747   0.890   3.346 -0.0015  0.6215  0.5084
 2761SOL    HW1 8861   0.717   0.813   3.299  0.0336  2.0363 -2.0170
 2761SOL    HW2 8862   0.708   0.882   3.433  0.5853 -2.5394  0.5997
 2762SOL     OW 8863   8.828   4.184   1.815 -0.1507  0.2048  0.8055
 2762SOL    HW1 8864   8.858   4.265   1.776 -0.1131 -0.7906 -1.3556
 2762SOL    HW2 8865   8.896   4.162   1.880  1.5618  0.2645 -0.8790
 2763SOL     OW 8866   1.557   2.157   4.449 -0.6966 -0.0097  0.0760
 2763SOL    HW1 8867   1.541   2.137   4.357 -0.4620  0.4962 -0.0825
 2763SOL    HW2 8868   1.473   2.189   4.482 -1.1863 -1.5787  0.4396
 2764SOL     OW 8869   7.715   4.044   1.946  0.1285  0.3585  0.2408
 2764SOL    HW1 8870   7.707   4.046   1.851  1.1174 -0.6665  0.1152
 2764SOL    HW2 8871   7.746   3.956   1.966  0.5403  0.7563  1.4554
 2765SOL     OW 8872   0.013   2.815   5.527 -0.0232  0.1034 -0.0264
 2765SOL    HW1 8873  -0.005   2.724   5.504  0.6249  0.3667 -1.7157
 2765SOL    HW2 8874   0.011   2.817   5.623 -0.4392 -1.5961  0.0207
 2766SOL     OW 8875   7.313   6.569   5.140 -0.3419  0.4103 -0.4275
 2766SOL    HW1 8876   7.322   6.512   5.063 -2.4451 -1.9204  0.9200
 2766SOL    HW2 8877   7.402   6.576   5.175  0.3706  0.0958 -2.0766
 2767SOL     OW 8878   1.265   5.203   1.194 -0.1562  0.2240 -0.4012
 2767SOL    HW1 8879   1.357   5.192   1.170 -0.6039  0.4882 -2.4447
 2767SOL    HW2 8880   1.217   5.175   1.116 -1.8076  0.4273  0.4991
 2768SOL     OW 8881   4.664   5.702   3.638 -1.0125 -0.5046  0.3163
 2768SOL    HW1 8882   4.714   5.674   3.562 -3.2787 -0.1890 -1.4000
 2768SOL    HW2 8883   4.655   5.797   3.627 -1.4750 -0.4761  0.8987
 2769SOL     OW 8884   8.433   8.017   6.965  0.0770 -0.2825 -0.3693
 2769SOL    HW1 8885   8.376   8.011   7.042  1.8617  0.4652  1.0962
 2769SOL    HW2 8886   8.479   7.933   6.964 -0.8015 -0.7751 -1.3865
 2770SOL     OW 8887   2.553   6.927   5.568  0.0054  0.1309 -0.4634
 2770SOL    HW1 8888   2.612   6.954   5.639  0.1451  1.4867 -1.0698
 2770SOL    HW2 8889   2.592   6.846   5.535 -0.2021 -0.6836  1.1393
 2771SOL     OW 8890   5.080   6.930   5.722 -0.4907 -0.4794 -0.1566
 2771SOL    HW1 8891   5.141   6.865   5.754 -0.5214  0.4552  1.9201
 2771SOL    HW2 8892   5.116   6.957   5.637  2.2272  0.3544  1.1835
 2772SOL     OW 8893   2.123   2.752   1.525 -0.0210  0.2065 -0.3431
 2772SOL    HW1 8894   2.072   2.831   1.541 -0.4799  0.1096 -1.3041
 2772SOL    HW2 8895   2.080   2.684   1.578  0.0888  0.4863  0.1074
 2773SOL     OW 8896   0.858   1.517   8.119 -0.4835 -0.4840 -0.6231
 2773SOL    HW1 8897   0.928   1.571   8.156 -0.2889  0.1856 -1.9362
 2773SOL    HW2 8898   0.808   1.488   8.196  0.6970 -0.2462  0.2660
 2774SOL     OW 8899   7.467   8.773   7.611 -0.0956  0.1895  0.0171
 2774SOL    HW1 8900   7.525   8.797   7.540  1.5026 -1.1454  0.8236
 2774SOL    HW2 8901   7.431   8.857   7.642  0.3872  0.9088 -1.3187
 2775SOL     OW 8902   4.603   2.778   2.283 -0.0376 -0.0557 -0.5755
 2775SOL    HW1 8903   4.609   2.844   2.351  0.7130  1.2186 -1.8250
 2775SOL    HW2 8904   4.535   2.811   2.224  1.9731  0.8853 -2.4836
 2776SOL     OW 8905   4.262   3.248   6.160  0.1751 -0.0676 -0.0672
 2776SOL    HW1 8906   4.345   3.199   6.159  0.7600  0.9158 -0.6385
 2776SOL    HW2 8907   4.265   3.298   6.242 -0.1581 -0.5201  0.2282
 2777SOL     OW 8908   4.503   3.752   8.594 -0.4804  0.0739 -0.5715
 2777SOL    HW1 8909   4.586   3.715   8.565 -1.0059 -0.9210 -0.8229
 2777SOL    HW2 8910   4.468   3.797   8.517  0.4076  1.6150 -0.1251
 2778SOL     OW 8911   3.558   2.755   2.943 -0.0851 -0.0116  0.6093
 2778SOL    HW1 8912   3.467   2.769   2.916  0.0277  2.0280  1.1924
 2778SOL    HW2 8913   3.576   2.665   2.915 -1.9203 -0.1011 -0.5100
 2779SOL     OW 8914   2.420   1.351   9.086  0.2430  0.2655 -0.0109
 2779SOL    HW1 8915   2.337   1.374   9.127 -1.5318 -2.2517 -1.8245
 2779SOL    HW2 8916   2.472   1.313   9.156 -0.0104  2.0040  1.1875
 2780SOL     OW 8917   3.283   2.136   3.118 -0.4169 -0.4643  0.1301
 2780SOL    HW1 8918   3.305   2.075   3.189  0.6807  0.9676  1.0740
 2780SOL    HW2 8919   3.334   2.106   3.043  0.0466 -0.7708  0.5617
 2781SOL     OW 8920   9.563   6.763   2.281 -0.3529 -0.2223  0.2244
 2781SOL    HW1 8921   9.544   6.821   2.355 -2.1108  1.0293 -1.1168
 2781SOL    HW2 8922   9.515   6.683   2.300 -0.2922 -0.1434  0.7233
 2782SOL     OW 8923   6.587   5.082   0.671 -0.0432  0.6613  0.1299
 2782SOL    HW1 8924   6.576   5.026   0.594 -1.3349  1.7500 -0.5221
 2782SOL    HW2 8925   6.677   5.066   0.700  0.1270 -0.5485 -0.9696
 2783SOL     OW 8926   5.215   8.598   6.832 -0.4455  0.5251  0.3697
 2783SOL    HW1 8927   5.148   8.644   6.882  0.7534  1.3198  1.2834
 2783SOL    HW2 8928   5.223   8.649   6.751 -0.8622  0.4854  0.2996
 2784SOL     OW 8929   9.279   3.842   0.401 -0.0659 -0.4718  0.5232
 2784SOL    HW1 8930   9.275   3.749   0.382 -0.7013  0.0838 -2.6620
 2784SOL    HW2 8931   9.225   3.883   0.333  1.0714  2.2997  1.1304
 2785SOL     OW 8932   0.635   3.465   5.936  0.0019 -0.2474 -0.5533
 2785SOL    HW1 8933   0.601   3.402   5.872  1.9104 -0.0125 -1.8830
 2785SOL    HW2 8934   0.662   3.540   5.883  0.9131  0.2821  0.6220
 2786SOL     OW 8935   9.921   6.023   5.142  0.8451  0.3418 -0.8632
 2786SOL    HW1 8936   9.892   6.103   5.186  1.7419  0.3580 -0.2584
 2786SOL    HW2 8937   9.842   5.972   5.130  0.3479  1.0508 -0.6865
 2787SOL     OW 8938   5.228   8.439   2.442 -0.4232 -0.1442 -0.2417
 2787SOL    HW1 8939   5.140   8.404   2.459  0.0446 -1.0141  0.5387
 2787SOL    HW2 8940   5.287   8.375   2.483  0.5394  0.8605 -0.0123
 2788SOL     OW 8941   5.230   6.179   4.822 -0.3352 -0.3309  0.0982
 2788SOL    HW1 8942   5.260   6.240   4.755 -2.6732  0.9077  0.1019
 2788SOL    HW2 8943   5.245   6.225   4.905 -0.2127 -0.6250  0.2438
 2789SOL     OW 8944   1.389   3.146   1.692  1.1397 -0.1916  0.5019
 2789SOL    HW1 8945   1.307   3.195   1.689  1.7350  0.7623 -1.1118
 2789SOL    HW2 8946   1.406   3.135   1.785 -1.0052 -0.7681  0.8932
 2790SOL     OW 8947   4.965   3.605   6.325  0.0394 -0.3995 -0.3183
 2790SOL    HW1 8948   5.050   3.649   6.316  0.7481 -1.8698 -1.0473
 2790SOL    HW2 8949   4.980   3.516   6.293 -1.1671 -1.4313  1.7715
 2791SOL     OW 8950   1.474   5.052   8.129 -0.0181 -0.4979  0.1187
 2791SOL    HW1 8951   1.535   5.112   8.171  1.3991 -1.6694 -0.1717
 2791SOL    HW2 8952   1.512   5.035   8.043 -0.8619 -1.1013 -0.1546
 2792SOL     OW 8953   8.748   8.708   1.345  0.2598 -0.2649  0.2949
 2792SOL    HW1 8954   8.842   8.719   1.358  0.4436  1.0686 -1.6514
 2792SOL    HW2 8955   8.709   8.789   1.377 -0.0285 -0.0930 -0.4598
 2793SOL     OW 8956   7.845   8.360   8.558  0.1576  0.3163  0.1682
 2793SOL    HW1 8957   7.845   8.294   8.488  1.0103 -0.1909  0.6370
 2793SOL    HW2 8958   7.818   8.440   8.514 -1.0874 -0.3612 -0.3802
 2794SOL     OW 8959   6.745   4.432   5.157  0.1397 -0.5782 -0.0972
 2794SOL    HW1 8960   6.757   4.375   5.080 -2.0345  1.5794 -2.2012
 2794SOL    HW2 8961   6.652   4.425   5.178  0.4845 -0.2745  1.6994
 2795SOL     OW 8962   9.858   1.321   7.566 -0.8649 -0.3882  0.1792
 2795SOL    HW1 8963   9.764   1.314   7.587 -1.4478 -0.1730 -2.0408
 2795SOL    HW2 8964   9.860   1.327   7.470  1.4273 -0.1542  0.1932
 2796SOL     OW 8965   4.023   2.852   0.227 -0.8388 -0.0342 -0.4987
 2796SOL    HW1 8966   3.954   2.904   0.269 -1.1809 -1.7649  1.2578
 2796SOL    HW2 8967   3.981   2.817   0.148 -2.0801 -1.1832  0.6177
 2797SOL     OW 8968   1.413   8.070   8.696 -0.0516  0.6089 -0.7465
 2797SOL    HW1 8969   1.357   8.146   8.713 -1.1844 -0.4201  0.3102
 2797SOL    HW2 8970   1.353   8.004   8.661  0.3275 -0.7652  1.0738
 2798SOL     OW 8971   4.769   1.203   4.592 -0.2990 -0.3441  0.3718
 2798SOL    HW1 8972   4.766   1.261   4.515  3.2457  1.3903  1.3430
 2798SOL    HW2 8973   4.840   1.142   4.573 -0.0917 -0.5794  1.8388
 2799SOL     OW 8974   7.242   3.370   0.045  0.0366 -0.4937  0.0745
 2799SOL    HW1 8975   7.314   3.433   0.044  0.3006 -0.7994 -0.1157
 2799SOL    HW2 8976   7.171   3.415  -0.001 -0.3760  0.3591  1.4636
 2800SOL     OW 8977   3.577   3.619   4.547  0.5803 -0.4781 -0.2919
 2800SOL    HW1 8978   3.492   3.661   4.539  0.5097 -0.7603 -1.0834
 2800SOL    HW2 8979   3.560   3.526   4.533  0.8838 -0.6602  0.4713
 2801SOL     OW 8980   7.785   8.778   3.797  0.6139  0.0411  0.3013
 2801SOL    HW1 8981   7.733   8.786   3.717  1.4170  0.1159 -0.2310
 2801SOL    HW2 8982   7.838   8.858   3.798  2.1680 -0.9367 -0.2479
 2802SOL     OW 8983   9.869   9.704   4.913 -0.4839  0.1597  0.1693
 2802SOL    HW1 8984   9.779   9.719   4.887 -0.3065  0.4262 -0.3015
 2802SOL    HW2 8985   9.888   9.614   4.888 -0.3361  0.3899 -0.5812
 2803SOL     OW 8986   7.007   5.828   2.741 -0.2945  0.0419 -0.4006
 2803SOL    HW1 8987   7.076   5.859   2.800  0.0125 -1.0627 -0.1592
 2803SOL    HW2 8988   7.052   5.807   2.660 -0.3227 -0.8128 -0.1973
 2804SOL     OW 8989   2.582   6.916   2.606  0.1721 -0.4361  0.2035
 2804SOL    HW1 8990   2.629   6.874   2.535 -1.6020 -1.0422 -0.6796
 2804SOL    HW2 8991   2.489   6.903   2.585 -0.4930  2.7521  0.5625
 2805SOL     OW 8992   3.578   7.926   0.870  0.3221 -0.2253 -0.3393
 2805SOL    HW1 8993   3.668   7.918   0.902  0.3611 -0.3819 -0.4885
 2805SOL    HW2 8994   3.566   8.020   0.858 -0.0529 -0.0598  1.1514
 2806SOL     OW 8995   8.392   6.881   9.918  0.6670 -0.0059 -0.1430
 2806SOL    HW1 8996   8.309   6.868   9.872  1.4377 -1.5242 -1.1712
 2806SOL    HW2 8997   8.418   6.970   9.894 -0.1450  0.1088 -0.6576
 2807SOL     OW 8998   6.819   9.972   5.723 -0.3210 -0.3005 -0.0796
 2807SOL    HW1 8999   6.877  10.048   5.720  1.8695 -1.7629  1.4304
 2807SOL    HW2 9000   6.863   9.906   5.669 -0.5231 -1.4720  1.1198
 2808SOL     OW 9001   0.801   1.389   5.844 -0.0958  0.1809  0.1468
 2808SOL    HW1 9002   0.727   1.408   5.903  1.0562  0.6283  1.4944
 2808SOL    HW2 9003   0.856   1.329   5.894  1.4448  1.3995 -0.0293
 2809SOL     OW 9004   7.380   7.765   5.369 -0.1610 -0.0800 -0.1262
 2809SOL    HW1 9005   7.396   7.858   5.355  0.4984  0.2317  2.1534
 2809SOL    HW2 9006   7.463   7.732   5.404 -0.7130 -1.2877  0.0781
 2810SOL     OW 9007   0.677   9.156   6.543  0.3607 -0.3966 -0.2777
 2810SOL    HW1 9008   0.720   9.165   6.458  1.5743  2.6761  0.5336
 2810SOL    HW2 9009   0.748   9.133   6.603 -0.2711 -1.3411  0.1295
 2811SOL     OW 9010   3.283   2.867   7.059 -0.2904 -0.2639 -0.3163
 2811SOL    HW1 9011   3.224   2.905   7.123 -1.1499  0.6654 -1.5940
 2811SOL    HW2 9012   3.364   2.851   7.107 -1.0870 -0.1539  1.1152
 2812SOL     OW 9013   1.751   8.911   8.361  0.0155 -0.7395 -0.1561
 2812SOL    HW1 9014   1.835   8.905   8.316 -0.2896 -2.6155 -0.5547
 2812SOL    HW2 9015   1.698   8.968   8.306  1.4891  1.9055  0.9606
 2813SOL     OW 9016   1.813   8.326   0.676  0.0028  0.3289 -0.4421
 2813SOL    HW1 9017   1.806   8.242   0.632  2.6295 -0.7062  0.8736
 2813SOL    HW2 9018   1.754   8.319   0.751  1.8943 -1.3743  0.9977
 2814SOL     OW 9019   7.788   0.954   4.046 -0.8529  0.2213 -0.1639
 2814SOL    HW1 9020   7.764   1.045   4.028  0.3935  0.7502  0.6722
 2814SOL    HW2 9021   7.758   0.939   4.136 -1.4344 -0.3411 -0.4452
 2815SOL     OW 9022   9.777   1.370   8.870  0.0982  0.0248 -0.3841
 2815SOL    HW1 9023   9.705   1.308   8.858  0.3786 -0.7852  1.6627
 2815SOL    HW2 9024   9.853   1.329   8.829 -0.2866  0.2795 -1.3857
 2816SOL     OW 9025   9.719   4.032   7.127  1.0415  0.3648  0.2013
 2816SOL    HW1 9026   9.807   4.042   7.163  0.8565 -0.6208  0.9526
 2816SOL    HW2 9027   9.665   4.090   7.181  1.1359  0.5589  0.0885
 2817SOL     OW 9028   9.538   0.671   1.623 -0.0620  0.0542 -0.1468
 2817SOL    HW1 9029   9.500   0.592   1.585 -1.5195  0.1547  1.0015
 2817SOL    HW2 9030   9.517   0.664   1.717 -0.1100  1.7355 -0.0121
 2818SOL     OW 9031   1.587   3.231   0.087 -0.3567  0.3896 -0.5055
 2818SOL    HW1 9032   1.545   3.306   0.045 -1.1302 -0.0267 -0.4963
 2818SOL    HW2 9033   1.629   3.267   0.165 -1.0914  0.7542 -0.2668
 2819SOL     OW 9034   3.853   8.974   5.348 -0.4226 -0.0189 -0.2489
 2819SOL    HW1 9035   3.929   9.019   5.312  0.5554 -0.0979  1.6108
 2819SOL    HW2 9036   3.780   9.035   5.334 -0.0047  0.1524 -1.8456
 2820SOL     OW 9037   0.534   4.805   3.723 -0.5340 -0.2874 -0.0012
 2820SOL    HW1 9038   0.454   4.831   3.678 -0.7582 -0.9129  0.0236
 2820SOL    HW2 9039   0.585   4.757   3.658 -0.1485  0.1675 -0.0360
 2821SOL     OW 9040   1.257   7.522   4.607 -0.2708 -0.2015  0.0410
 2821SOL    HW1 9041   1.316   7.512   4.532  0.5899 -0.5558  0.7416
 2821SOL    HW2 9042   1.315   7.525   4.683 -0.9190  2.7644  0.5460
 2822SOL     OW 9043   0.450   4.850   6.132 -0.1230  0.0537 -0.1930
 2822SOL    HW1 9044   0.355   4.861   6.121 -0.2603 -2.3212 -2.4111
 2822SOL    HW2 9045   0.489   4.916   6.074 -0.5269 -0.7713 -1.4451
 2823SOL     OW 9046   2.251   5.159   7.946 -0.3025 -0.4551  0.1016
 2823SOL    HW1 9047   2.294   5.084   7.905  0.6531 -1.0988  2.1342
 2823SOL    HW2 9048   2.322   5.209   7.986 -1.2342 -0.9380  2.5756
 2824SOL     OW 9049   0.898   9.872   5.746 -0.2268  0.4019  0.0027
 2824SOL    HW1 9050   0.805   9.855   5.759 -0.3221  1.8149  1.6432
 2824SOL    HW2 9051   0.901   9.949   5.690 -0.1031  1.0238  0.8406
 2825SOL     OW 9052   2.409   9.215   6.957 -1.0558  0.1959 -0.3839
 2825SOL    HW1 9053   2.380   9.253   7.040  0.4472 -1.0942  0.7864
 2825SOL    HW2 9054   2.389   9.282   6.891 -0.0773  2.2942  1.3356
 2826SOL     OW 9055   9.135   9.124   3.942  0.8187  0.1828 -0.1637
 2826SOL    HW1 9056   9.104   9.165   3.860  0.4384  0.4138  0.0930
 2826SOL    HW2 9057   9.068   9.060   3.964  0.6613  0.4852  0.2441
 2827SOL     OW 9058   4.855   2.759   5.312 -0.3331 -0.0764  0.0894
 2827SOL    HW1 9059   4.818   2.841   5.346 -0.8292 -0.5250  0.6398
 2827SOL    HW2 9060   4.872   2.778   5.219  0.3746  0.9252  0.3999
 2828SOL     OW 9061   5.541   2.198   0.955  0.2705 -0.3993 -0.0054
 2828SOL    HW1 9062   5.598   2.273   0.940  0.6457 -0.6468  0.1679
 2828SOL    HW2 9063   5.470   2.232   1.009 -0.3393  0.1716 -1.1215
 2829SOL     OW 9064   4.323   5.058   5.455  0.5424 -0.4488  0.3861
 2829SOL    HW1 9065   4.369   5.042   5.372 -1.2944 -0.5979 -0.6375
 2829SOL    HW2 9066   4.354   4.989   5.514  2.6352  0.2480  0.1993
 2830SOL     OW 9067   9.741   2.471   1.375  0.9102 -0.0665  0.3562
 2830SOL    HW1 9068   9.771   2.386   1.342  0.7010 -0.7067  1.7574
 2830SOL    HW2 9069   9.649   2.456   1.397  0.0439  1.3048 -1.9266
 2831SOL     OW 9070   6.779   6.113   6.020  0.1321 -0.3128  0.7374
 2831SOL    HW1 9071   6.782   6.098   5.925 -0.8946 -0.3867  0.7028
 2831SOL    HW2 9072   6.827   6.040   6.058  0.8646 -0.0892  0.2649
 2832SOL     OW 9073   8.755   3.487   1.833 -0.2593  0.2183  0.1319
 2832SOL    HW1 9074   8.792   3.409   1.792  3.8234  2.0111 -0.1277
 2832SOL    HW2 9075   8.741   3.548   1.760 -1.1519  0.5641  0.5749
 2833SOL     OW 9076   3.509   7.542   9.919  0.5515 -0.3097  0.3585
 2833SOL    HW1 9077   3.540   7.542   9.828  0.8186 -0.2949  0.4507
 2833SOL    HW2 9078   3.431   7.485   9.917 -0.4441  1.0302 -0.2117
 2834SOL     OW 9079   4.579   4.352   3.701  0.6186 -0.6427  0.2480
 2834SOL    HW1 9080   4.507   4.309   3.748  0.9551 -0.5438  0.8612
 2834SOL    HW2 9081   4.549   4.356   3.611  0.5173 -2.0526  0.1965
 2835SOL     OW 9082   5.997   5.876   2.390 -0.2757  0.0670  0.5896
 2835SOL    HW1 9083   5.960   5.933   2.457  1.8345  2.0210  0.2479
 2835SOL    HW2 9084   5.951   5.900   2.310  0.0303  0.7495  0.6058
 2836SOL     OW 9085   2.888   8.112   9.358 -0.1021 -0.2609 -0.2070
 2836SOL    HW1 9086   2.820   8.062   9.403  0.2284  0.3953  1.0817
 2836SOL    HW2 9087   2.861   8.204   9.368  0.7741 -0.0151  0.0100
 2837SOL     OW 9088   3.460   2.233   6.652 -0.2955  0.1289  0.1785
 2837SOL    HW1 9089   3.402   2.279   6.712 -1.0707  0.3091 -0.6841
 2837SOL    HW2 9090   3.509   2.302   6.607 -0.0981  0.0185  0.2198
 2838SOL     OW 9091   9.799   8.867   3.264  0.2645 -0.2254  0.2401
 2838SOL    HW1 9092   9.864   8.854   3.333  2.5541 -2.1030 -2.0693
 2838SOL    HW2 9093   9.743   8.789   3.270  1.0011 -0.8317 -0.4913
 2839SOL     OW 9094   5.301   3.251   0.241  0.3957  0.5243 -0.0159
 2839SOL    HW1 9095   5.223   3.227   0.292  1.3956 -0.6426  1.0339
 2839SOL    HW2 9096   5.293   3.202   0.159  0.0674  0.3357  0.1254
 2840SOL     OW 9097   0.982   2.081   5.933  0.1065  0.0794  0.1687
 2840SOL    HW1 9098   1.041   2.019   5.890 -0.2724 -1.5455  1.9066
 2840SOL    HW2 9099   1.033   2.115   6.007 -0.1946  0.7654  0.0669
 2841SOL     OW 9100   0.409   7.962   4.803  0.5465 -0.1112 -0.3504
 2841SOL    HW1 9101   0.343   7.926   4.862  0.8894  0.4331  0.3853
 2841SOL    HW2 9102   0.476   7.895   4.797  0.3827 -0.2756 -0.3366
 2842SOL     OW 9103   0.345   5.888   1.142 -0.4297 -0.5342  0.2529
 2842SOL    HW1 9104   0.327   5.941   1.220  0.3036 -0.4923  0.4056
 2842SOL    HW2 9105   0.261   5.849   1.119 -0.8219  0.1130  0.5778
 2843SOL     OW 9106   8.065   3.105   1.720  0.0229 -0.4384 -0.1809
 2843SOL    HW1 9107   8.038   3.189   1.681  0.7432  0.1913  0.6245
 2843SOL    HW2 9108   8.100   3.129   1.806  1.9558 -1.3419 -0.6647
 2844SOL     OW 9109   8.141   8.879   2.775 -0.7467 -0.5783 -0.5877
 2844SOL    HW1 9110   8.091   8.960   2.780  0.0087 -0.0404 -1.5034
 2844SOL    HW2 9111   8.214   8.899   2.718 -0.4379 -1.8576 -0.6759
 2845SOL     OW 9112   9.237   5.969   5.280  0.3468  0.1125  0.6750
 2845SOL    HW1 9113   9.165   5.993   5.338  0.2835 -1.4346  1.2949
 2845SOL    HW2 9114   9.230   6.030   5.206 -0.6502  0.9683  1.4463
 2846SOL     OW 9115   3.792   9.714   6.168  0.2412  0.0275 -0.2154
 2846SOL    HW1 9116   3.857   9.735   6.101  0.5549  0.6069  0.2625
 2846SOL    HW2 9117   3.731   9.788   6.167 -0.6443 -0.6938 -0.9268
 2847SOL     OW 9118   3.635   3.460   8.045 -0.3132  0.1550  0.4550
 2847SOL    HW1 9119   3.715   3.447   7.994 -1.8420 -0.2541 -1.9996
 2847SOL    HW2 9120   3.656   3.425   8.131  1.3420 -2.4202 -0.8514
 2848SOL     OW 9121   1.077   9.534   1.408  0.6921 -0.3597 -0.0917
 2848SOL    HW1 9122   0.987   9.564   1.394  0.7018  0.3737  1.2416
 2848SOL    HW2 9123   1.131   9.601   1.367  0.6449 -0.9559 -1.1606
 2849SOL     OW 9124   6.365   4.118   4.585 -0.9645 -0.0780  0.1275
 2849SOL    HW1 9125   6.353   4.176   4.510  0.1712 -0.1347 -0.1157
 2849SOL    HW2 9126   6.324   4.036   4.559 -2.5917  0.5773  0.4735
 2850SOL     OW 9127   6.237   6.483   9.745  0.0764 -0.1176 -0.1696
 2850SOL    HW1 9128   6.247   6.434   9.663  0.7455 -0.5922  0.1913
 2850SOL    HW2 9129   6.226   6.415   9.812 -0.8705  0.2767  0.0865
 2851SOL     OW 9130   8.143   0.827   8.524  0.1910  0.3550 -0.0464
 2851SOL    HW1 9131   8.203   0.821   8.449  0.0699 -1.3881 -0.0583
 2851SOL    HW2 9132   8.158   0.746   8.572 -1.5841  0.2481  0.3923
 2852SOL     OW 9133   9.480   5.178   8.227 -0.0668  0.3887 -0.5908
 2852SOL    HW1 9134   9.481   5.089   8.190 -0.8344  0.3629 -0.5647
 2852SOL    HW2 9135   9.542   5.174   8.299 -0.7962 -0.4098  0.0229
 2853SOL     OW 9136   7.420   4.361   8.301 -0.3694 -0.0596 -0.0242
 2853SOL    HW1 9137   7.512   4.378   8.319 -0.6329 -0.4162  1.8634
 2853SOL    HW2 9138   7.373   4.421   8.359 -1.3175 -0.7537 -0.0549
 2854SOL     OW 9139   3.184   4.499   7.878 -0.3513 -0.2772 -0.0494
 2854SOL    HW1 9140   3.134   4.486   7.797  0.6442  0.5892 -0.8271
 2854SOL    HW2 9141   3.170   4.592   7.900 -0.2565 -0.3986  0.5383
 2855SOL     OW 9142   7.636   8.799   7.980  0.3072 -0.0261 -0.1066
 2855SOL    HW1 9143   7.674   8.821   8.065 -1.8077  0.7131  0.6913
 2855SOL    HW2 9144   7.550   8.840   7.979  0.7805  1.2119 -3.2018
 2856SOL     OW 9145   3.723   8.388   7.024 -0.5138 -0.5197  0.1857
 2856SOL    HW1 9146   3.797   8.431   6.980 -0.9717 -0.5399 -0.6133
 2856SOL    HW2 9147   3.706   8.310   6.972 -2.0391  0.2417 -0.5216
 2857SOL     OW 9148   5.769   3.920   6.726 -0.1154  0.3993 -0.9093
 2857SOL    HW1 9149   5.754   3.854   6.794  0.1216  0.3600 -0.8948
 2857SOL    HW2 9150   5.828   3.983   6.766  1.8470 -0.7829 -1.7871
 2858SOL     OW 9151   2.004   0.332   4.339 -0.0865  0.8048 -0.1577
 2858SOL    HW1 9152   1.962   0.417   4.352  0.8956  1.2308  0.3451
 2858SOL    HW2 9153   1.937   0.268   4.364 -0.8977  1.4084 -0.7194
 2859SOL     OW 9154   0.286   3.320   6.996 -0.1407  0.4171  0.3799
 2859SOL    HW1 9155   0.378   3.330   7.019 -0.1766  1.4313  0.1513
 2859SOL    HW2 9156   0.244   3.287   7.075  0.1815  1.3556  0.9654
 2860SOL     OW 9157   1.943   4.729   9.523  0.0838  0.2622  0.0315
 2860SOL    HW1 9158   1.941   4.690   9.611  0.0404  0.9929  0.3595
 2860SOL    HW2 9159   1.902   4.814   9.533 -0.0592  0.2912 -0.7391
 2861SOL     OW 9160   1.969   6.498   4.066  0.2548  0.0576 -0.2226
 2861SOL    HW1 9161   2.018   6.543   3.998 -1.1963  0.1821 -1.2330
 2861SOL    HW2 9162   1.931   6.422   4.022  0.5177 -0.7038  0.8240
 2862SOL     OW 9163   3.252   6.380   2.942  0.3327 -0.0926  0.2537
 2862SOL    HW1 9164   3.315   6.387   3.014  1.1192 -1.0366 -0.3227
 2862SOL    HW2 9165   3.168   6.366   2.986  0.9625 -1.8210  1.0083
 2863SOL     OW 9166   4.272   0.780   8.521  0.2304  0.2733 -0.2782
 2863SOL    HW1 9167   4.289   0.836   8.598  0.0876 -0.1041  0.0297
 2863SOL    HW2 9168   4.336   0.809   8.456  0.5016  0.4505  0.0605
 2864SOL     OW 9169   4.891   8.086   7.897  0.1156 -0.1468  0.0073
 2864SOL    HW1 9170   4.946   8.148   7.848  2.5654  0.0739  2.7662
 2864SOL    HW2 9171   4.854   8.138   7.967 -0.2726 -1.1932  0.5910
 2865SOL     OW 9172   9.556   6.376   9.729  0.6791 -0.4808  0.5711
 2865SOL    HW1 9173   9.584   6.426   9.652 -0.5910  0.9146  0.9687
 2865SOL    HW2 9174   9.465   6.353   9.711  0.4488 -0.3640  1.5565
 2866SOL     OW 9175   4.362   6.939   7.912 -0.0536 -0.2940  0.3862
 2866SOL    HW1 9176   4.453   6.921   7.889 -0.3486 -1.8274  0.2732
 2866SOL    HW2 9177   4.356   7.034   7.916  1.4974 -0.1638  0.1879
 2867SOL     OW 9178   2.836   9.920   5.362 -0.0632 -0.4860  0.6044
 2867SOL    HW1 9179   2.907   9.962   5.411  1.8785 -1.0960 -1.5328
 2867SOL    HW2 9180   2.828   9.972   5.282 -0.0406 -2.0887 -0.4776
 2868SOL     OW 9181   9.798   6.644   5.363  0.3761 -0.4356  0.0876
 2868SOL    HW1 9182   9.725   6.676   5.415  2.0013  1.4208  1.3530
 2868SOL    HW2 9183   9.835   6.573   5.415  0.3695 -0.4071  0.1310
 2869SOL     OW 9184   8.163   1.958   4.906  0.6538 -0.5942 -0.2764
 2869SOL    HW1 9185   8.110   1.878   4.897 -0.3165 -0.0458  0.3574
 2869SOL    HW2 9186   8.128   2.018   4.840  1.5452 -0.7586 -0.9196
 2870SOL     OW 9187   8.792   8.861   8.854 -0.0701 -0.3377  0.2903
 2870SOL    HW1 9188   8.878   8.860   8.811 -0.9168 -1.9248 -1.5407
 2870SOL    HW2 9189   8.753   8.944   8.827  1.1564  0.8063  1.8410
 2871SOL     OW 9190   4.716   4.662   2.977 -0.1859 -0.5452  0.1869
 2871SOL    HW1 9191   4.742   4.753   2.962 -0.0826 -0.5441  0.3675
 2871SOL    HW2 9192   4.677   4.634   2.894  2.1168 -1.1588 -0.7663
 2872SOL     OW 9193   2.911   3.282   4.810  0.4222  0.4439 -0.1770
 2872SOL    HW1 9194   2.964   3.220   4.861 -1.4057  1.3510  3.1169
 2872SOL    HW2 9195   2.969   3.357   4.799  0.7522  0.4120  1.0597
 2873SOL     OW 9196   8.651   1.865   8.328  0.2776 -0.7224  0.0395
 2873SOL    HW1 9197   8.687   1.841   8.243 -1.7123 -1.2032 -0.7252
 2873SOL    HW2 9198   8.569   1.815   8.335  0.1046 -0.2581  1.9844
 2874SOL     OW 9199   5.998   0.575   8.388 -0.1111 -0.0087 -0.5507
 2874SOL    HW1 9200   6.007   0.582   8.293 -0.2576 -0.5341 -0.6028
 2874SOL    HW2 9201   5.927   0.635   8.410  1.0756  1.4639 -0.5585
 2875SOL     OW 9202   9.244   1.265   0.514  0.3510  1.0073 -0.1786
 2875SOL    HW1 9203   9.224   1.185   0.467 -0.7025  1.4253 -0.4692
 2875SOL    HW2 9204   9.259   1.330   0.446  1.0188  1.1158  0.0575
 2876SOL     OW 9205   3.538   9.192   1.099 -0.6657 -0.1269 -0.2358
 2876SOL    HW1 9206   3.476   9.122   1.077  0.7993 -1.1484 -1.3267
 2876SOL    HW2 9207   3.594   9.199   1.022 -0.5947  2.1231 -0.0604
 2877SOL     OW 9208   1.387   6.951   6.197  0.2028  0.4799 -0.1080
 2877SOL    HW1 9209   1.323   7.021   6.182 -0.9940 -0.5140  0.2348
 2877SOL    HW2 9210   1.462   6.977   6.144 -1.4310  0.3998 -2.6701
 2878SOL     OW 9211   1.975   3.572   9.604  0.1951  0.0845  0.5851
 2878SOL    HW1 9212   1.933   3.581   9.519 -1.9284 -0.7573  1.4646
 2878SOL    HW2 9213   2.069   3.575   9.586 -0.1935 -0.5310 -1.8132
 2879SOL     OW 9214   0.081   5.134   9.130  0.9717  0.1364 -0.0631
 2879SOL    HW1 9215   0.022   5.178   9.192  0.3497 -1.2829  0.3951
 2879SOL    HW2 9216   0.149   5.095   9.186  1.6130  0.6457 -0.4766
 2880SOL     OW 9217   9.885   0.294   3.564  0.9009  0.9005 -0.5932
 2880SOL    HW1 9218   9.793   0.320   3.560  0.4934 -0.5969 -2.3162
 2880SOL    HW2 9219   9.894   0.252   3.649  0.5218  2.7273  0.4180
 2881SOL     OW 9220   2.798   5.934   6.516  0.4798  0.4148  0.0258
 2881SOL    HW1 9221   2.758   5.931   6.429  0.9075  1.6797 -0.2396
 2881SOL    HW2 9222   2.728   5.964   6.574  0.3983  0.2981 -0.0117
 2882SOL     OW 9223   6.886   7.727   0.843  0.0038 -0.2392 -0.0505
 2882SOL    HW1 9224   6.926   7.807   0.807  0.0852 -0.5580 -0.6760
 2882SOL    HW2 9225   6.956   7.663   0.845 -0.4440 -0.7792 -1.0791
 2883SOL     OW 9226   9.930   6.874   3.387  0.0072  0.2992 -0.5188
 2883SOL    HW1 9227   9.898   6.886   3.297 -0.5885 -0.0280 -0.3560
 2883SOL    HW2 9228  10.016   6.834   3.376 -0.3114 -0.2948 -0.9430
 2884SOL     OW 9229   3.056   5.036   1.351  0.5512  1.0491  0.5568
 2884SOL    HW1 9230   2.974   5.027   1.400  0.6692  0.2385  0.6243
 2884SOL    HW2 9231   3.029   5.042   1.260  0.4227  0.6404  0.5677
 2885SOL     OW 9232   2.125   3.062   5.948 -0.1243  0.6723 -0.4703
 2885SOL    HW1 9233   2.059   3.009   5.902  0.7403  0.6881 -1.8134
 2885SOL    HW2 9234   2.089   3.076   6.035 -0.9852 -1.0150 -0.5075
 2886SOL     OW 9235   7.122   9.573   6.876  0.0611  0.1985  0.6384
 2886SOL    HW1 9236   7.088   9.496   6.922  1.4868 -0.9666 -0.1637
 2886SOL    HW2 9237   7.084   9.565   6.788 -1.0266  1.3004  0.9814
 2887SOL     OW 9238   3.412   8.199   8.347 -0.0187 -0.1633  0.5788
 2887SOL    HW1 9239   3.369   8.125   8.305  1.3660 -1.0421  0.6587
 2887SOL    HW2 9240   3.409   8.178   8.440 -1.4966  0.9302  0.8214
 2888SOL     OW 9241   3.110   6.735   1.775  0.4445  0.0371 -0.3691
 2888SOL    HW1 9242   3.014   6.729   1.766  0.6405 -0.8349 -2.6020
 2888SOL    HW2 9243   3.128   6.693   1.859 -1.0835 -0.5271 -0.2784
 2889SOL     OW 9244   0.912   3.710   1.995  0.0204 -0.4813 -0.3559
 2889SOL    HW1 9245   0.921   3.778   2.061  0.0039 -0.7816 -0.0415
 2889SOL    HW2 9246   0.876   3.635   2.042 -3.5716  0.4144 -1.4092
 2890SOL     OW 9247   1.611   1.040   3.820  0.2345  0.0320  0.1328
 2890SOL    HW1 9248   1.565   1.017   3.901 -1.4778 -0.4280 -0.9079
 2890SOL    HW2 9249   1.592   1.133   3.808 -0.9206 -0.2817 -0.5747
 2891SOL     OW 9250   7.320   9.400   7.193 -0.3927 -0.2183  0.2102
 2891SOL    HW1 9251   7.409   9.433   7.200  0.1948 -1.5764 -0.5494
 2891SOL    HW2 9252   7.270   9.474   7.159  0.7895  0.0671 -1.0037
 2892SOL     OW 9253   9.751   3.758   3.244 -1.2016  0.3847 -0.3900
 2892SOL    HW1 9254   9.832   3.765   3.294 -0.2570 -2.5463 -1.2738
 2892SOL    HW2 9255   9.759   3.825   3.176 -0.2647  1.1684  0.4630
 2893SOL     OW 9256   1.778   5.730   0.106  0.0042  0.0938 -0.5029
 2893SOL    HW1 9257   1.783   5.642   0.143 -1.7270 -0.2367 -0.9686
 2893SOL    HW2 9258   1.856   5.775   0.140 -0.3932 -0.8286  1.8041
 2894SOL     OW 9259   1.161   5.968   3.879  0.4948 -0.2472 -0.3082
 2894SOL    HW1 9260   1.148   5.930   3.793  2.0595  1.5438 -1.4085
 2894SOL    HW2 9261   1.114   6.052   3.876  0.1210 -0.3993  0.7763
 2895SOL     OW 9262   6.425   6.190   0.040 -0.0165 -0.3664  0.2570
 2895SOL    HW1 9263   6.430   6.106   0.085 -2.2516 -0.5757  0.2277
 2895SOL    HW2 9264   6.441   6.255   0.109  1.6247 -0.7890  0.2976
 2896SOL     OW 9265   6.879   2.384   8.896 -0.0387  0.0629  0.1735
 2896SOL    HW1 9266   6.889   2.302   8.943  0.0005 -0.3166 -0.4933
 2896SOL    HW2 9267   6.958   2.434   8.919  2.4312 -1.9293 -3.0648
 2897SOL     OW 9268   3.121   9.654   5.679 -0.1542 -0.7927 -0.4234
 2897SOL    HW1 9269   3.113   9.611   5.764 -1.2825 -0.1223 -0.1703
 2897SOL    HW2 9270   3.068   9.600   5.620 -2.3674  0.6552  0.0908
 2898SOL     OW 9271   8.073   8.038   5.352 -0.1528  0.8685 -0.3524
 2898SOL    HW1 9272   8.095   7.977   5.422  0.6320  0.2115 -1.1424
 2898SOL    HW2 9273   8.151   8.040   5.296 -0.2001  2.5184 -0.4194
 2899SOL     OW 9274   6.359   7.157   6.417  0.3207  0.1524  0.3952
 2899SOL    HW1 9275   6.403   7.090   6.365  1.0196  1.7421 -1.2108
 2899SOL    HW2 9276   6.282   7.114   6.453 -0.0078 -1.1482 -1.7135
 2900SOL     OW 9277   1.143   4.974   9.138  0.1672 -0.0057 -0.0628
 2900SOL    HW1 9278   1.108   4.999   9.223 -0.3563  2.7901 -0.9953
 2900SOL    HW2 9279   1.234   5.003   9.140  0.0653  0.3674 -0.5353
 2901SOL     OW 9280   4.514   1.715   2.252  0.4838  0.2785  0.0785
 2901SOL    HW1 9281   4.520   1.770   2.330  1.4928  0.1278  0.1195
 2901SOL    HW2 9282   4.573   1.756   2.189 -2.3385  2.0413 -1.6825
 2902SOL     OW 9283   9.146   3.969   9.953  0.8288  0.1634  0.0703
 2902SOL    HW1 9284   9.177   3.882   9.929  1.3681  1.0209 -2.8555
 2902SOL    HW2 9285   9.223   4.025   9.947  0.1658  1.1241  0.1339
 2903SOL     OW 9286   3.124   1.801   2.339 -0.4964 -0.2665 -0.2614
 2903SOL    HW1 9287   3.092   1.744   2.409  1.7238 -1.0602  0.1907
 2903SOL    HW2 9288   3.191   1.749   2.295 -0.1977  1.0906 -1.4781
 2904SOL     OW 9289   7.143   4.023   8.711 -0.9397 -0.0564 -0.0699
 2904SOL    HW1 9290   7.234   4.052   8.715 -0.3586 -1.7840  0.1025
 2904SOL    HW2 9291   7.109   4.062   8.630  1.1683 -2.4925 -2.3146
 2905SOL     OW 9292   8.750   1.735   4.493  0.4950  0.2941  0.5576
 2905SOL    HW1 9293   8.729   1.794   4.420 -0.0294  1.4895  1.6235
 2905SOL    HW2 9294   8.741   1.791   4.570 -1.6354 -1.5687  1.7686
 2906SOL     OW 9295   8.920   5.435   8.729  0.1433  1.0634  0.6549
 2906SOL    HW1 9296   8.868   5.444   8.649 -0.2931  0.3375  0.8546
 2906SOL    HW2 9297   8.957   5.522   8.742 -0.1486  1.3124 -0.0854
 2907SOL     OW 9298   7.825   4.945   3.258  0.3916  0.1712 -0.4557
 2907SOL    HW1 9299   7.851   5.036   3.262  0.8598  0.0148  2.2361
 2907SOL    HW2 9300   7.904   4.896   3.280 -0.2804 -0.7354  0.0470
 2908SOL     OW 9301   8.865   7.703   9.085 -0.5951 -1.1007  0.4185
 2908SOL    HW1 9302   8.955   7.703   9.052 -0.9482 -1.4690 -0.5880
 2908SOL    HW2 9303   8.813   7.742   9.014 -1.1273 -0.1912  1.2917
 2909SOL     OW 9304   9.583   3.792   4.306 -0.7847 -0.4256  0.9257
 2909SOL    HW1 9305   9.554   3.758   4.391  0.0757 -2.1575  0.5638
 2909SOL    HW2 9306   9.659   3.846   4.327 -0.6579 -0.7359  1.2701
 2910SOL     OW 9307   2.546   6.389   5.722 -0.4226 -0.2220  0.2270
 2910SOL    HW1 9308   2.527   6.479   5.697  0.3503 -0.5836 -1.8875
 2910SOL    HW2 9309   2.638   6.377   5.699 -0.5517 -1.5832  0.3497
 2911SOL     OW 9310   1.058   0.229   4.141  0.8095 -0.3899 -0.1500
 2911SOL    HW1 9311   0.991   0.204   4.077  1.7763 -0.2062 -1.2713
 2911SOL    HW2 9312   1.033   0.183   4.221 -0.1482 -1.0362 -0.7967
 2912SOL     OW 9313   8.715   2.505   6.087 -0.7565 -0.2742  0.2252
 2912SOL    HW1 9314   8.800   2.469   6.109 -0.7403 -0.4042 -0.0454
 2912SOL    HW2 9315   8.715   2.510   5.991  0.5845  3.5886  0.2532
 2913SOL     OW 9316   5.255   4.017   9.402  0.9280 -0.3007  0.6445
 2913SOL    HW1 9317   5.178   3.975   9.363  1.6800 -0.5714 -0.6188
 2913SOL    HW2 9318   5.258   4.103   9.362 -0.3656  0.9046  2.9198
 2914SOL     OW 9319   3.933   1.460   8.873 -0.3693  0.1683  0.0027
 2914SOL    HW1 9320   3.908   1.539   8.825  0.4484  1.6511  1.8938
 2914SOL    HW2 9321   3.854   1.434   8.919 -0.8780 -0.6743 -1.2803
 2915SOL     OW 9322   3.313   8.247   8.064  0.1092 -0.1645 -0.2265
 2915SOL    HW1 9323   3.283   8.232   8.154 -0.6957 -0.4503 -0.5282
 2915SOL    HW2 9324   3.240   8.294   8.022  1.0267  1.2071 -0.3647
 2916SOL     OW 9325   0.301   4.621   4.095 -0.3902  0.4832  0.7918
 2916SOL    HW1 9326   0.355   4.584   4.165  1.3939 -0.1486 -0.8360
 2916SOL    HW2 9327   0.226   4.562   4.089  0.6567 -0.8835  0.5984
 2917SOL     OW 9328   8.725   6.475   2.068 -0.4668 -0.3354 -0.2762
 2917SOL    HW1 9329   8.772   6.400   2.031  0.6602  0.7670 -1.1963
 2917SOL    HW2 9330   8.791   6.520   2.122 -1.7469 -1.2341  2.2136
 2918SOL     OW 9331   9.230   6.870   3.215  0.0632 -0.0059 -0.2885
 2918SOL    HW1 9332   9.298   6.937   3.226  1.4013 -1.3173 -0.1954
 2918SOL    HW2 9333   9.153   6.918   3.186  0.5540  1.7441  1.1358
 2919SOL     OW 9334   3.814   3.808   1.955  0.0466 -0.5921  0.4432
 2919SOL    HW1 9335   3.784   3.883   1.904 -0.0901 -1.0738 -0.1911
 2919SOL    HW2 9336   3.735   3.773   1.996  0.4865  1.6529  3.6168
 2920SOL     OW 9337   4.328   0.425   1.118 -0.6036 -0.4140  0.2725
 2920SOL    HW1 9338   4.423   0.438   1.111 -0.3225 -1.2197  1.9573
 2920SOL    HW2 9339   4.300   0.488   1.184 -1.4786  0.6217 -1.0385
 2921SOL     OW 9340   8.741   2.513   1.505  0.2762  0.0779  0.2670
 2921SOL    HW1 9341   8.763   2.475   1.590  0.3800 -0.8039 -0.1434
 2921SOL    HW2 9342   8.813   2.572   1.485  0.0774  0.5600  0.9485
 2922SOL     OW 9343   8.481   9.915   7.024 -0.3833  0.1732  0.3321
 2922SOL    HW1 9344   8.478   9.980   6.954 -0.2384  1.6207  1.6268
 2922SOL    HW2 9345   8.395   9.923   7.067 -0.2492 -0.2871  0.6886
 2923SOL     OW 9346   0.437   0.388   3.040  0.3706 -0.0566 -0.2693
 2923SOL    HW1 9347   0.515   0.351   3.082  0.4371  0.4397  0.0442
 2923SOL    HW2 9348   0.388   0.428   3.111  1.4168  2.4959 -0.8692
 2924SOL     OW 9349   2.191   0.236   1.103 -0.1025 -0.5909  0.2223
 2924SOL    HW1 9350   2.222   0.270   1.187  0.2167  0.0054 -0.1393
 2924SOL    HW2 9351   2.105   0.198   1.124 -0.4572  0.3935  0.6405
 2925SOL     OW 9352   5.770   7.100   9.956 -0.2113 -0.1750 -0.2951
 2925SOL    HW1 9353   5.824   7.111   9.878  0.5826  3.1295  0.5397
 2925SOL    HW2 9354   5.812   7.155  10.023 -3.8698  1.7656  0.7554
 2926SOL     OW 9355   9.004   2.865   1.694  0.5827 -0.6358  0.3137
 2926SOL    HW1 9356   8.942   2.911   1.638  1.3338  0.8769  0.6924
 2926SOL    HW2 9357   9.063   2.821   1.633  0.4696 -0.2669 -0.0626
 2927SOL     OW 9358   0.013   3.990   6.519 -0.2298 -0.1402 -0.4811
 2927SOL    HW1 9359  -0.056   3.926   6.530  0.4152 -0.8637 -0.5382
 2927SOL    HW2 9360   0.050   3.972   6.433  0.1979  0.0646 -0.3466
 2928SOL     OW 9361   4.710   4.361   8.913 -0.7258  0.6567 -0.3281
 2928SOL    HW1 9362   4.681   4.347   8.823  0.9062  2.1941 -1.1542
 2928SOL    HW2 9363   4.702   4.455   8.926  3.3309  1.1998 -0.5317
 2929SOL     OW 9364   5.489   7.568   8.419 -0.2983 -0.1460  0.6355
 2929SOL    HW1 9365   5.532   7.544   8.337  3.0265  1.1980  1.8104
 2929SOL    HW2 9366   5.395   7.569   8.397  0.4284  0.4826 -3.2207
 2930SOL     OW 9367   1.377   1.714   2.610 -0.7273  0.1809 -0.2863
 2930SOL    HW1 9368   1.433   1.722   2.533  0.8222 -1.3128  0.5889
 2930SOL    HW2 9369   1.388   1.623   2.638 -0.4118  0.9145  2.2754
 2931SOL     OW 9370   9.618   6.405   4.468  0.5697 -0.2074 -0.5742
 2931SOL    HW1 9371   9.639   6.487   4.514  0.4667 -1.4124  1.7936
 2931SOL    HW2 9372   9.675   6.405   4.391  2.6149  0.8136  0.8566
 2932SOL     OW 9373   0.760   1.456   8.348  0.3305  0.4750  0.2192
 2932SOL    HW1 9374   0.673   1.490   8.326 -0.5005 -0.8654  1.2410
 2932SOL    HW2 9375   0.761   1.452   8.444  1.0775 -0.5723  0.1931
 2933SOL     OW 9376   4.695   4.740   8.719 -0.2821 -0.1641 -0.5800
 2933SOL    HW1 9377   4.677   4.682   8.793  0.3626  0.5246  0.1348
 2933SOL    HW2 9378   4.740   4.685   8.656 -0.3473 -0.6256 -0.2322
 2934SOL     OW 9379   0.937   4.249   5.575  0.2052  0.0704 -0.5013
 2934SOL    HW1 9380   0.993   4.212   5.507  1.2690  0.2705  0.2535
 2934SOL    HW2 9381   0.965   4.207   5.656 -1.5544 -0.7324 -0.2596
 2935SOL     OW 9382   5.783   2.797   9.024 -0.3155 -0.2098  0.0624
 2935SOL    HW1 9383   5.793   2.725   8.961 -2.4236  0.8315 -1.5848
 2935SOL    HW2 9384   5.810   2.875   8.976 -1.5428  0.5505  0.5736
 2936SOL     OW 9385   1.388   0.979   7.040  0.1153 -0.1942  0.5904
 2936SOL    HW1 9386   1.311   0.968   6.984  0.2594 -0.3196  0.4158
 2936SOL    HW2 9387   1.382   1.069   7.073 -0.3035 -0.3229  0.8762
 2937SOL     OW 9388   2.656   3.545   1.129 -0.0069  0.6937 -0.4681
 2937SOL    HW1 9389   2.616   3.482   1.189  2.1925  0.3935  0.8042
 2937SOL    HW2 9390   2.653   3.629   1.175 -1.6631  1.2815 -1.5704
 2938SOL     OW 9391   1.361   4.694   3.889 -0.0552  0.0408  0.2236
 2938SOL    HW1 9392   1.324   4.608   3.873  3.0302 -1.3580 -0.2245
 2938SOL    HW2 9393   1.336   4.746   3.812 -0.6221 -0.9608 -0.2880
 2939SOL     OW 9394   1.027   4.526   6.224 -0.2453 -0.2057  0.8589
 2939SOL    HW1 9395   1.024   4.504   6.131 -0.5559 -0.1405  0.8526
 2939SOL    HW2 9396   1.037   4.621   6.226 -0.8642 -0.1393  0.8933
 2940SOL     OW 9397   8.665   6.704   9.321  0.1779 -0.1868  0.0561
 2940SOL    HW1 9398   8.699   6.662   9.400 -0.5236 -0.3691  0.2681
 2940SOL    HW2 9399   8.663   6.798   9.343 -0.2372 -0.2602  0.3445
 2941SOL     OW 9400   6.225   5.450   4.496 -0.2181  0.1607  0.1268
 2941SOL    HW1 9401   6.230   5.414   4.407 -0.2417  1.6870 -0.5232
 2941SOL    HW2 9402   6.247   5.376   4.553 -1.0673 -1.0869 -1.0857
 2942SOL     OW 9403   1.929   2.769   3.950 -0.7356  0.2453 -0.6208
 2942SOL    HW1 9404   2.021   2.769   3.975 -0.5692 -0.6554 -1.1855
 2942SOL    HW2 9405   1.898   2.681   3.971 -1.2039  0.2248 -1.3427
 2943SOL     OW 9406   8.662   9.877   2.401  0.4259 -0.2766  0.1270
 2943SOL    HW1 9407   8.659   9.901   2.494 -0.0888 -0.6667  0.2135
 2943SOL    HW2 9408   8.575   9.897   2.369  0.9079  0.8628 -0.5348
 2944SOL     OW 9409   0.661   1.516   7.593  0.4973 -0.1468 -0.1845
 2944SOL    HW1 9410   0.575   1.550   7.570  0.7646  1.7979  1.5228
 2944SOL    HW2 9411   0.653   1.486   7.683  1.7772  0.7590  0.2624
 2945SOL     OW 9412   8.566   4.372   1.931  0.2332  0.1973  0.6856
 2945SOL    HW1 9413   8.641   4.379   1.872 -0.6819 -0.1932 -0.5651
 2945SOL    HW2 9414   8.562   4.457   1.976  2.3800 -0.3257  2.0206
 2946SOL     OW 9415   5.829   7.556   1.124  0.3626 -0.4441  0.0148
 2946SOL    HW1 9416   5.859   7.644   1.146 -1.0147  0.3764 -1.1902
 2946SOL    HW2 9417   5.875   7.534   1.044 -1.4200  0.4611 -1.3477
 2947SOL     OW 9418   9.778   2.942   8.447  0.2554 -0.3187 -0.2947
 2947SOL    HW1 9419   9.693   2.907   8.422  0.1302 -1.2776  1.3161
 2947SOL    HW2 9420   9.774   3.035   8.424 -0.6148 -0.6613 -1.6738
 2948SOL     OW 9421   7.531   2.977   7.834 -0.2986 -1.2103 -0.1202
 2948SOL    HW1 9422   7.606   2.954   7.778 -1.4347 -0.9159 -1.8353
 2948SOL    HW2 9423   7.464   3.007   7.773 -2.0784 -2.0934  1.3073
 2949SOL     OW 9424   3.786   8.791   2.334  0.0363  0.6481 -0.0161
 2949SOL    HW1 9425   3.790   8.699   2.357 -3.7311 -0.3567 -2.3669
 2949SOL    HW2 9426   3.707   8.824   2.377  0.5918  2.4468 -0.2534
 2950SOL     OW 9427   4.027   4.907   1.301  0.1186  0.2800 -0.0070
 2950SOL    HW1 9428   4.003   4.893   1.392  0.6595 -0.3974  0.0454
 2950SOL    HW2 9429   4.114   4.948   1.305  0.4955 -0.4772 -0.2154
 2951SOL     OW 9430   5.513   6.490   0.994 -0.5746  0.1665 -0.1365
 2951SOL    HW1 9431   5.495   6.396   1.001  0.4867 -0.0133  0.3494
 2951SOL    HW2 9432   5.430   6.528   0.966 -2.2949 -0.3937  3.6213
 2952SOL     OW 9433   2.366   8.131   4.408  0.5251  0.0721  0.1433
 2952SOL    HW1 9434   2.376   8.050   4.458  1.2984 -0.7753 -1.3202
 2952SOL    HW2 9435   2.296   8.178   4.453  0.2538 -1.2662  1.1985
 2953SOL     OW 9436   5.714   5.570   0.502 -0.0068 -0.4298 -0.3617
 2953SOL    HW1 9437   5.656   5.640   0.471 -1.3284 -1.3866 -0.1179
 2953SOL    HW2 9438   5.728   5.515   0.425 -1.7082 -1.7240  0.1983
 2954SOL     OW 9439   0.212   2.890   6.228 -0.5439  0.1318  0.3001
 2954SOL    HW1 9440   0.220   2.986   6.232 -1.4433  0.2319 -0.0341
 2954SOL    HW2 9441   0.126   2.875   6.189  0.0962 -0.8082 -0.8131
 2955SOL     OW 9442   5.210   9.184   5.089 -0.1348  0.1394 -0.4650
 2955SOL    HW1 9443   5.202   9.250   5.020  0.0948 -0.5174 -1.1344
 2955SOL    HW2 9444   5.249   9.108   5.045 -1.0571 -0.6943  0.1220
 2956SOL     OW 9445   3.576   7.927   3.867  0.0531 -0.2853 -0.3150
 2956SOL    HW1 9446   3.649   7.965   3.916  0.7333 -1.5240 -0.3329
 2956SOL    HW2 9447   3.617   7.874   3.799 -0.8827  0.6889 -1.6968
 2957SOL     OW 9448   1.341   2.854   4.769  0.6842  0.2381  0.2138
 2957SOL    HW1 9449   1.307   2.873   4.856 -1.7800  0.9894 -0.8261
 2957SOL    HW2 9450   1.264   2.855   4.712  2.4046  1.6127 -2.2984
 2958SOL     OW 9451   1.498   8.589   2.670 -0.1719  0.5247 -0.1371
 2958SOL    HW1 9452   1.498   8.533   2.747  1.3964  0.4396 -0.1547
 2958SOL    HW2 9453   1.459   8.672   2.699 -0.9939 -0.0162  0.3175
 2959SOL     OW 9454   3.736   6.448   5.376  0.3356  0.1919 -0.7154
 2959SOL    HW1 9455   3.665   6.492   5.422  1.3724  0.9729  0.1910
 2959SOL    HW2 9456   3.692   6.380   5.325 -0.9084 -0.7423  1.4099
 2960SOL     OW 9457   6.378   3.989   6.043  0.2508  0.0826 -0.3162
 2960SOL    HW1 9458   6.283   3.979   6.048  0.2339  0.6226  2.8360
 2960SOL    HW2 9459   6.391   4.056   5.976 -1.6477  0.4840 -0.3582
 2961SOL     OW 9460   7.004   9.501   9.332 -0.5299 -0.0064 -0.6596
 2961SOL    HW1 9461   6.928   9.507   9.273 -0.1092  2.4905 -1.0765
 2961SOL    HW2 9462   6.991   9.573   9.394 -0.2165 -1.6959  1.4777
 2962SOL     OW 9463   7.807   1.207   0.261  0.2021 -0.0555 -0.0666
 2962SOL    HW1 9464   7.902   1.212   0.272  0.2448 -3.3770  2.3085
 2962SOL    HW2 9465   7.774   1.288   0.301  1.9201  0.5342  0.2490
 2963SOL     OW 9466   2.698   8.289   7.668  0.5819  0.1371 -0.2382
 2963SOL    HW1 9467   2.751   8.264   7.592  0.4499 -0.8244 -0.0268
 2963SOL    HW2 9468   2.618   8.326   7.631 -0.4879 -2.3891 -0.6461
 2964SOL     OW 9469   7.902   3.245   7.107 -0.2571  0.5068  0.0860
 2964SOL    HW1 9470   7.883   3.153   7.088 -2.9881  0.9751  0.1388
 2964SOL    HW2 9471   7.873   3.257   7.197 -1.3045  1.7375 -0.3923
 2965SOL     OW 9472   8.265   0.220   0.184  0.6518  0.1476 -0.0958
 2965SOL    HW1 9473   8.183   0.268   0.185  0.3575 -0.2703 -1.7263
 2965SOL    HW2 9474   8.328   0.279   0.143  0.5084 -0.4801 -1.2662
 2966SOL     OW 9475   0.360   7.085   7.857 -0.1498 -0.1166 -0.0533
 2966SOL    HW1 9476   0.426   7.132   7.806 -1.2383 -1.2446 -2.6626
 2966SOL    HW2 9477   0.393   6.995   7.862 -0.9248 -0.4327 -0.4142
 2967SOL     OW 9478   3.395   8.137   3.664  0.7353 -0.6705 -0.0524
 2967SOL    HW1 9479   3.386   8.170   3.574 -0.2824  0.6127  0.4825
 2967SOL    HW2 9480   3.439   8.208   3.711  1.3506 -1.3744  0.4639
 2968SOL     OW 9481   9.932   1.393   5.340  0.4832  0.5109  0.3801
 2968SOL    HW1 9482   9.898   1.322   5.285 -2.2824 -0.4979  3.0263
 2968SOL    HW2 9483  10.027   1.384   5.335  0.2698 -1.8044 -1.3660
 2969SOL     OW 9484   2.932   1.829   8.529  0.0054  0.4393  0.3585
 2969SOL    HW1 9485   2.912   1.791   8.443 -0.5510  0.7101  0.3627
 2969SOL    HW2 9486   2.968   1.757   8.580 -2.2718 -0.4568  0.8091
 2970SOL     OW 9487   3.636   4.555   1.491 -0.7562 -0.2660 -0.8533
 2970SOL    HW1 9488   3.635   4.466   1.456  0.2364 -0.8458  0.5191
 2970SOL    HW2 9489   3.709   4.598   1.447  0.3066 -0.9072  0.2179
 2971SOL     OW 9490   5.491   5.855   6.381  0.2320  0.2424  0.3128
 2971SOL    HW1 9491   5.398   5.851   6.357  0.4714  0.7795 -0.7552
 2971SOL    HW2 9492   5.490   5.852   6.477 -1.1054  3.1317  0.5170
 2972SOL     OW 9493   6.596   9.300   5.758  0.4898  0.1137  0.5641
 2972SOL    HW1 9494   6.629   9.210   5.766  0.8985  0.2902  0.8786
 2972SOL    HW2 9495   6.656   9.342   5.697 -0.1137 -0.0163 -0.1411
 2973SOL     OW 9496   0.358   9.933   9.728  0.6220 -0.2501 -0.3770
 2973SOL    HW1 9497   0.390   9.970   9.811 -0.6010 -1.1298  0.5307
 2973SOL    HW2 9498   0.406   9.851   9.719  0.8190 -0.1122 -0.5931
 2974SOL     OW 9499   2.845   1.242   4.554  0.3953  0.2812  0.2080
 2974SOL    HW1 9500   2.910   1.203   4.495 -0.5236  1.4484 -1.7147
 2974SOL    HW2 9501   2.890   1.317   4.592  0.0293  1.6040 -1.7809
 2975SOL     OW 9502   8.327   7.266   0.149  0.3843  0.0317  0.1109
 2975SOL    HW1 9503   8.301   7.351   0.185 -0.0521 -0.0592  0.0094
 2975SOL    HW2 9504   8.385   7.287   0.076 -0.6775  0.2839 -0.6880
 2976SOL     OW 9505   9.134   5.929   7.774 -0.0408  0.0194 -0.4401
 2976SOL    HW1 9506   9.199   5.989   7.737  1.6979 -2.0620 -0.9861
 2976SOL    HW2 9507   9.064   5.926   7.708 -0.9613  2.5597  0.3092
 2977SOL     OW 9508   0.236   4.992   4.893  0.5719  0.1388  0.1034
 2977SOL    HW1 9509   0.240   5.036   4.809  0.0472 -0.4810 -0.2572
 2977SOL    HW2 9510   0.142   4.982   4.910  0.6650 -1.6281 -0.2592
 2978SOL     OW 9511   1.324   3.045   9.715  0.4681 -0.3401 -0.1413
 2978SOL    HW1 9512   1.282   3.007   9.792  0.7450 -0.5325 -0.0839
 2978SOL    HW2 9513   1.305   3.138   9.721 -0.0697 -0.4442 -0.1920
 2979SOL     OW 9514   4.508   5.347   4.247  1.0097 -0.1962 -0.1322
 2979SOL    HW1 9515   4.415   5.348   4.223  0.9783  0.9034  0.0033
 2979SOL    HW2 9516   4.554   5.329   4.165  0.7227  0.2711 -0.4009
 2980SOL     OW 9517   1.760   4.458   2.012 -0.4594  0.8421  0.3290
 2980SOL    HW1 9518   1.732   4.526   2.073  0.8861  0.9226  0.9070
 2980SOL    HW2 9519   1.736   4.376   2.056 -0.4235  0.9185  0.4942
 2981SOL     OW 9520   6.078   7.594   3.329  0.1548  0.3543  0.0388
 2981SOL    HW1 9521   6.037   7.518   3.369  0.3651 -0.1431 -0.6745
 2981SOL    HW2 9522   6.062   7.585   3.235  1.8967  0.1068 -0.2833
 2982SOL     OW 9523   5.174   1.558   6.122 -0.5678  0.4816  0.2554
 2982SOL    HW1 9524   5.229   1.523   6.192  0.8877  2.2840  0.1021
 2982SOL    HW2 9525   5.132   1.481   6.084  1.8090 -1.0388  0.4498
 2983SOL     OW 9526   5.580   9.423   2.403  0.5246 -0.0485 -0.0076
 2983SOL    HW1 9527   5.590   9.476   2.482  0.4530 -0.0833  0.0243
 2983SOL    HW2 9528   5.597   9.333   2.432  1.7244  0.0686 -0.2687
 2984SOL     OW 9529   2.292   5.582   5.310 -0.1974  0.3527  0.2295
 2984SOL    HW1 9530   2.333   5.667   5.293 -2.0222  0.9534 -1.6473
 2984SOL    HW2 9531   2.198   5.602   5.315 -0.7256 -1.6152 -0.9555
 2985SOL     OW 9532   3.435   1.686   9.968 -0.3061  0.3150 -0.2086
 2985SOL    HW1 9533   3.469   1.600   9.943 -1.4034 -0.4372  0.7679
 2985SOL    HW2 9534   3.437   1.737   9.887  0.7016 -0.5036 -0.7264
 2986SOL     OW 9535   8.335   6.046   0.370 -0.0929 -0.4513  0.6258
 2986SOL    HW1 9536   8.287   5.997   0.304  0.3249 -1.0778  0.7831
 2986SOL    HW2 9537   8.355   6.130   0.328  0.0404 -0.7865  0.0137
 2987SOL     OW 9538   6.295   8.368   0.760 -0.8000 -0.1064  0.4125
 2987SOL    HW1 9539   6.359   8.352   0.830 -1.5625 -2.7776  0.5862
 2987SOL    HW2 9540   6.276   8.462   0.766  0.9823  0.2039  2.1638
 2988SOL     OW 9541   3.583   4.878   3.403  0.4648 -0.7052  0.4372
 2988SOL    HW1 9542   3.531   4.873   3.483 -2.1445  2.5174 -0.7978
 2988SOL    HW2 9543   3.655   4.937   3.425  0.2406 -0.5121  0.6643
 2989SOL     OW 9544   2.930   4.903   0.902  0.0357  0.0122  0.7672
 2989SOL    HW1 9545   2.995   4.962   0.940 -0.7482  0.1914  1.8617
 2989SOL    HW2 9546   2.911   4.941   0.816  0.0898  0.9330  1.1571
 2990SOL     OW 9547   5.038   4.283   7.118  0.3287 -0.8661  0.5181
 2990SOL    HW1 9548   4.961   4.341   7.120  0.1715 -1.0840  0.9385
 2990SOL    HW2 9549   5.033   4.240   7.033  0.7617  0.1549 -0.0379
 2991SOL     OW 9550   3.988   2.548   8.988 -0.1865 -0.4241  0.0968
 2991SOL    HW1 9551   3.961   2.467   9.032 -3.1251 -0.5385 -1.6550
 2991SOL    HW2 9552   4.030   2.518   8.907 -0.5624 -0.2050 -0.1815
 2992SOL     OW 9553   1.724   9.636   9.002 -0.4496  0.1627  0.2797
 2992SOL    HW1 9554   1.659   9.580   9.044 -0.4042 -0.3661 -0.3372
 2992SOL    HW2 9555   1.689   9.651   8.914  1.0233 -1.5222 -0.6679
 2993SOL     OW 9556   9.551   6.710   7.733 -0.1953 -0.8146 -0.6786
 2993SOL    HW1 9557   9.625   6.770   7.721  1.7297 -3.0127 -0.4392
 2993SOL    HW2 9558   9.558   6.682   7.824 -1.6905 -0.6652 -0.4957
 2994SOL     OW 9559   4.429   6.446   7.771 -0.3729 -0.5281 -0.5679
 2994SOL    HW1 9560   4.492   6.492   7.826  0.1925  0.3492 -1.8872
 2994SOL    HW2 9561   4.343   6.468   7.808  0.0395 -1.7894  1.2862
 2995SOL     OW 9562   9.134   9.839   7.142 -0.0537  0.3900 -0.2368
 2995SOL    HW1 9563   9.155   9.816   7.051 -1.2691 -2.3526  0.0675
 2995SOL    HW2 9564   9.169   9.766   7.193  0.1190  1.6146  1.4754
 2996SOL     OW 9565   5.618   1.435   9.225 -0.1723  0.0742  0.6074
 2996SOL    HW1 9566   5.546   1.419   9.286  0.4589  0.2107  1.4051
 2996SOL    HW2 9567   5.697   1.430   9.279  0.3588  0.8325 -0.0696
 2997SOL     OW 9568   6.014   7.775   0.257 -0.1651  0.3253  0.0443
 2997SOL    HW1 9569   5.995   7.806   0.169 -0.8106  1.1376  0.4472
 2997SOL    HW2 9570   6.074   7.702   0.245  0.9137  1.3416 -1.0003
 2998SOL     OW 9571   1.517   2.418   3.107 -0.4842 -0.3189  0.0703
 2998SOL    HW1 9572   1.600   2.408   3.061 -1.1816  0.5916 -1.4744
 2998SOL    HW2 9573   1.507   2.337   3.157  2.0517  0.1785  1.5850
 2999SOL     OW 9574   5.894   9.053   8.646  0.3766 -0.1957 -0.5903
 2999SOL    HW1 9575   5.884   8.965   8.685  1.2395 -0.6321 -1.3136
 2999SOL    HW2 9576   5.823   9.104   8.684  1.5385 -0.4122  2.0797
 3000SOL     OW 9577   5.528   7.631   2.293  0.2716  0.3507  0.2674
 3000SOL    HW1 9578   5.619   7.652   2.316  0.6272 -0.3366 -0.4473
 3000SOL    HW2 9579   5.487   7.606   2.376  0.5125  1.4114  0.7236
 3001SOL     OW 9580   6.631   5.164   6.230 -0.1300 -0.0344 -0.2838
 3001SOL    HW1 9581   6.694   5.211   6.286 -1.3477  1.6689 -0.2550
 3001SOL    HW2 9582   6.680   5.088   6.197  1.8296  1.0378 -0.0144
 3002SOL     OW 9583   8.713   1.809   5.206  0.2350  0.0983  0.3948
 3002SOL    HW1 9584   8.618   1.797   5.204  0.1703  0.6246  0.1879
 3002SOL    HW2 9585   8.726   1.896   5.245  0.7882 -1.6311  4.7157
 3003SOL     OW 9586   3.005   5.006   5.915 -0.0423 -0.7706  0.3861
 3003SOL    HW1 9587   2.923   4.969   5.881 -1.1594  2.4022 -0.7148
 3003SOL    HW2 9588   2.978   5.067   5.983  1.4328 -0.0208  0.3480
 3004SOL     OW 9589   7.203   4.017   5.385 -0.0616 -0.1510 -0.4191
 3004SOL    HW1 9590   7.111   3.990   5.386 -0.0399 -0.2288 -0.4655
 3004SOL    HW2 9591   7.228   4.020   5.477 -0.1586  0.0373 -0.3985
 3005SOL     OW 9592   0.791   6.729   1.824 -0.0507  0.3544  0.2701
 3005SOL    HW1 9593   0.725   6.665   1.796 -0.5049  1.1019 -0.4114
 3005SOL    HW2 9594   0.873   6.694   1.790  0.0678 -0.9872  1.7864
 3006SOL     OW 9595   7.105   5.489   1.493  0.3134  0.0533  0.0582
 3006SOL    HW1 9596   7.137   5.578   1.477 -0.6773  0.4378  0.1303
 3006SOL    HW2 9597   7.078   5.490   1.585  0.9308 -0.5284  0.2463
 3007SOL     OW 9598   6.389   5.729   3.876 -0.1715  0.1553  1.0669
 3007SOL    HW1 9599   6.298   5.757   3.873 -0.0583  0.4757 -0.5920
 3007SOL    HW2 9600   6.434   5.798   3.924 -0.4789  1.1339  0.0095
 3008SOL     OW 9601   7.592   2.708   8.631 -0.0109  0.2765  0.1195
 3008SOL    HW1 9602   7.661   2.669   8.685 -3.0026 -2.1163  2.5907
 3008SOL    HW2 9603   7.590   2.654   8.551 -0.0883 -0.7365  0.7899
 3009SOL     OW 9604   9.080   5.130   9.036  0.0642 -0.4977 -0.8674
 3009SOL    HW1 9605   9.066   5.217   9.075 -0.2274 -1.5697  1.6396
 3009SOL    HW2 9606   9.176   5.122   9.033  0.0984  0.0904 -1.5834
 3010SOL     OW 9607   5.054   3.688   3.118 -0.3858  0.4590 -0.0844
 3010SOL    HW1 9608   5.098   3.622   3.172  0.6823  0.7094 -0.6376
 3010SOL    HW2 9609   5.069   3.659   3.028 -1.6436  0.3758 -0.2960
 3011SOL     OW 9610   7.455   5.299   9.513 -0.0828  0.1965  0.3378
 3011SOL    HW1 9611   7.377   5.258   9.476 -1.0268  1.6468  0.6436
 3011SOL    HW2 9612   7.462   5.383   9.467  2.4769 -0.7077 -1.1134
 3012SOL     OW 9613   2.361   2.079   4.844  0.3448  0.3790 -0.2133
 3012SOL    HW1 9614   2.373   2.083   4.939  1.5219 -0.6813 -0.2925
 3012SOL    HW2 9615   2.385   2.167   4.813 -0.0396  0.7258  0.4565
 3013SOL     OW 9616   7.310   3.134   0.445  0.1771  0.4590  0.3133
 3013SOL    HW1 9617   7.327   3.139   0.351  0.2331 -1.5067  0.1861
 3013SOL    HW2 9618   7.232   3.079   0.452  2.1940 -2.4931  1.5174
 3014SOL     OW 9619   5.804   5.491   7.020  0.2616  0.1829  0.1086
 3014SOL    HW1 9620   5.844   5.420   7.071 -0.5817 -0.6929 -0.4125
 3014SOL    HW2 9621   5.878   5.544   6.991  0.8079  0.3288  1.6863
 3015SOL     OW 9622   5.065   0.224   6.114  0.5584 -0.6160  0.1726
 3015SOL    HW1 9623   5.079   0.139   6.156  1.5037  0.1745  1.5504
 3015SOL    HW2 9624   5.146   0.240   6.066  0.4456 -0.4368  0.0420
 3016SOL     OW 9625   2.938   5.286   3.269 -0.4360  0.5002  0.3775
 3016SOL    HW1 9626   2.982   5.225   3.210 -2.9396 -0.6428 -0.4470
 3016SOL    HW2 9627   2.963   5.373   3.237 -1.8676 -0.0577 -2.6279
 3017SOL     OW 9628   7.376   7.355   4.381  0.2001 -0.9799 -0.2862
 3017SOL    HW1 9629   7.351   7.375   4.291 -1.4028 -1.9666 -0.0976
 3017SOL    HW2 9630   7.463   7.316   4.373  0.2100 -0.7741 -1.3769
 3018SOL     OW 9631   4.648   2.123   8.797  0.1289  0.8313 -0.5183
 3018SOL    HW1 9632   4.612   2.169   8.873  1.9208 -0.2261  1.0827
 3018SOL    HW2 9633   4.718   2.180   8.766  0.0545  0.7977 -0.7460
 3019SOL     OW 9634   4.220   6.382   8.444  0.1451  0.6972  0.4133
 3019SOL    HW1 9635   4.223   6.309   8.506 -0.0782 -0.7571 -1.2216
 3019SOL    HW2 9636   4.126   6.399   8.432  0.1051 -0.4277 -1.0618
 3020SOL     OW 9637   8.300   8.086   5.198 -0.1513  0.5462  0.5317
 3020SOL    HW1 9638   8.359   8.013   5.181 -0.2382 -0.0500  2.5562
 3020SOL    HW2 9639   8.354   8.151   5.244 -0.3436  1.3170 -0.2953
 3021SOL     OW 9640   9.916   7.868   1.091 -1.0098 -0.0590 -0.4510
 3021SOL    HW1 9641   9.933   7.785   1.135 -1.9267 -0.2511 -0.4301
 3021SOL    HW2 9642   9.853   7.913   1.148  0.2167  1.0966  0.0515
 3022SOL     OW 9643   2.906   9.125   2.843 -0.4586 -0.1602 -0.5212
 3022SOL    HW1 9644   2.815   9.101   2.861 -0.4785  1.7255  2.7153
 3022SOL    HW2 9645   2.909   9.143   2.749 -3.3983 -0.4167 -0.7315
 3023SOL     OW 9646   2.295   8.582   3.623 -0.3252  0.5833  0.4851
 3023SOL    HW1 9647   2.352   8.658   3.615 -0.4811  0.6010 -0.5550
 3023SOL    HW2 9648   2.335   8.515   3.568  0.4344 -0.5018  2.2726
 3024SOL     OW 9649   0.175   2.772   4.194  0.1064  0.2836  0.5141
 3024SOL    HW1 9650   0.183   2.810   4.282 -1.6811 -0.3555  0.9892
 3024SOL    HW2 9651   0.089   2.729   4.194  1.2623 -2.1800 -0.6246
 3025SOL     OW 9652   5.948   5.622   4.750 -0.2515  0.1407 -0.0405
 3025SOL    HW1 9653   5.962   5.628   4.844  0.8244 -0.0215 -0.1818
 3025SOL    HW2 9654   6.035   5.610   4.713 -0.7511 -0.7520 -0.9809
 3026SOL     OW 9655   2.982   8.157   8.926 -0.2243  0.1181 -0.4136
 3026SOL    HW1 9656   2.942   8.180   8.842  1.1801 -0.3805 -1.2443
 3026SOL    HW2 9657   3.071   8.191   8.922 -0.1312  0.1119  0.9020
 3027SOL     OW 9658   7.421   9.022   2.748 -0.4599 -0.3068  1.0351
 3027SOL    HW1 9659   7.430   9.080   2.824 -1.4978 -1.3342  1.9633
 3027SOL    HW2 9660   7.341   8.973   2.764  0.6342 -2.3670  0.5305
 3028SOL     OW 9661   5.615   4.077   0.168 -0.1130  0.4218  0.2327
 3028SOL    HW1 9662   5.653   4.139   0.105  0.1731  0.2204  0.2045
 3028SOL    HW2 9663   5.551   4.028   0.117  0.2087  0.1722  0.0607
 3029SOL     OW 9664   8.129   3.580   8.566 -0.1972 -0.2522  0.1627
 3029SOL    HW1 9665   8.216   3.549   8.542  0.0870  0.0302  0.8048
 3029SOL    HW2 9666   8.080   3.500   8.589 -0.1853 -0.4317 -0.4350
 3030SOL     OW 9667   1.803   2.977   6.863  0.0617 -0.4023 -0.1202
 3030SOL    HW1 9668   1.710   2.961   6.847 -0.1160 -0.2883  0.7743
 3030SOL    HW2 9669   1.812   2.974   6.958  0.6809  1.2246 -0.1030
 3031SOL     OW 9670   1.787   9.088   4.713 -0.5432  0.1804 -0.1860
 3031SOL    HW1 9671   1.869   9.126   4.681  0.3413 -0.5069  1.2012
 3031SOL    HW2 9672   1.811   9.000   4.741 -1.4456  0.4490  1.5312
 3032SOL     OW 9673   2.686   6.568   1.741 -0.5345  0.2640  0.3476
 3032SOL    HW1 9674   2.714   6.657   1.722  1.1585 -0.3896 -0.4409
 3032SOL    HW2 9675   2.637   6.575   1.823 -0.1768  1.8670  0.4549
 3033SOL     OW 9676   8.232   4.146   3.394 -0.0848 -0.1286 -0.4703
 3033SOL    HW1 9677   8.273   4.193   3.468 -1.1858  1.2095 -0.6750
 3033SOL    HW2 9678   8.248   4.054   3.414  1.0499  0.2539  0.6075
 3034SOL     OW 9679   4.514   9.864   6.940  0.0318  0.3992  0.2263
 3034SOL    HW1 9680   4.473   9.868   6.854  0.5615 -0.6794 -0.0921
 3034SOL    HW2 9681   4.603   9.832   6.924  0.6289  1.5910  1.0334
 3035SOL     OW 9682   8.374   4.960   7.928 -0.4975  0.3652 -0.0736
 3035SOL    HW1 9683   8.423   4.878   7.935  1.0647  1.3341  1.0052
 3035SOL    HW2 9684   8.438   5.024   7.899 -1.2019  1.6171  1.0277
 3036SOL     OW 9685   1.580   2.206   3.862 -0.1928 -0.3171  0.0993
 3036SOL    HW1 9686   1.504   2.186   3.916 -1.9701 -2.5869 -2.9170
 3036SOL    HW2 9687   1.597   2.126   3.813  1.8365  1.2679 -2.0425
 3037SOL     OW 9688   7.445   9.152   8.911  0.6966 -0.6956  0.0516
 3037SOL    HW1 9689   7.481   9.209   8.843 -0.2346 -0.5345 -0.3269
 3037SOL    HW2 9690   7.388   9.210   8.963 -0.2557 -1.2615 -0.3380
 3038SOL     OW 9691   8.990   6.676   7.050  0.0914  0.5962  0.3230
 3038SOL    HW1 9692   9.006   6.768   7.071 -0.9847  0.8392  0.1404
 3038SOL    HW2 9693   9.073   6.645   7.015 -0.1018  2.0752 -1.6006
 3039SOL     OW 9694   7.591   6.783   0.280 -0.1486  0.0184 -0.5376
 3039SOL    HW1 9695   7.645   6.758   0.355 -0.0675  0.3935 -0.4686
 3039SOL    HW2 9696   7.571   6.875   0.295 -3.0886 -0.7171  0.8756
 3040SOL     OW 9697   9.399   3.732   5.471 -0.0916 -0.0237 -0.4442
 3040SOL    HW1 9698   9.448   3.791   5.413  0.9975 -1.0449 -0.5861
 3040SOL    HW2 9699   9.455   3.720   5.547 -1.0616  0.4689  0.3710
 3041SOL     OW 9700   9.880   2.507   5.189  0.4514  0.5799  0.3159
 3041SOL    HW1 9701   9.939   2.435   5.209  2.6083  1.9739 -0.7384
 3041SOL    HW2 9702   9.831   2.477   5.112  0.2173 -0.3177  0.7997
 3042SOL     OW 9703   8.202   9.239   4.117 -0.4371  0.2466 -0.6629
 3042SOL    HW1 9704   8.163   9.154   4.140 -1.6544  1.1423  0.7926
 3042SOL    HW2 9705   8.291   9.217   4.089  0.3529 -1.3142  2.5779
 3043SOL     OW 9706   9.651   1.148   4.467  0.0693 -0.2054 -0.2333
 3043SOL    HW1 9707   9.656   1.067   4.416 -0.0340 -0.4224  0.1018
 3043SOL    HW2 9708   9.724   1.143   4.528  0.0378 -0.0679 -0.1837
 3044SOL     OW 9709   4.241   9.874   5.219  0.4404 -0.3248  0.2531
 3044SOL    HW1 9710   4.280   9.820   5.150  1.8183  1.3905 -0.3985
 3044SOL    HW2 9711   4.242   9.818   5.296  0.4659 -1.7055 -0.7009
 3045SOL     OW 9712   8.032   1.639   0.023 -0.2279 -0.0676 -0.6367
 3045SOL    HW1 9713   8.005   1.594   0.103  1.2511 -0.6822 -0.4504
 3045SOL    HW2 9714   7.950   1.663  -0.020 -1.0480 -0.6443  0.5445
 3046SOL     OW 9715   7.642   9.906   3.465  0.4773 -0.2821 -0.4769
 3046SOL    HW1 9716   7.713   9.894   3.402  1.2585 -0.4144  0.4115
 3046SOL    HW2 9717   7.655   9.837   3.530 -1.1500 -1.0408 -0.8963
 3047SOL     OW 9718   4.793   7.865   0.679  0.4403  0.2047  0.3900
 3047SOL    HW1 9719   4.722   7.884   0.740  1.4230 -0.5697  1.8518
 3047SOL    HW2 9720   4.751   7.861   0.593 -1.4688 -1.2341  1.3172
 3048SOL     OW 9721   1.511   5.339   6.438 -0.7244 -0.4133  0.6800
 3048SOL    HW1 9722   1.532   5.247   6.452 -2.1638 -1.2299 -1.9246
 3048SOL    HW2 9723   1.423   5.349   6.473 -0.4245  0.1354  1.3215
 3049SOL     OW 9724   7.807   8.953   4.364  0.0572 -0.7867 -0.5897
 3049SOL    HW1 9725   7.851   9.038   4.351  0.0911 -0.4822  1.2697
 3049SOL    HW2 9726   7.858   8.911   4.433 -1.8112 -0.9673  0.7286
 3050SOL     OW 9727   2.578   6.016   6.345 -0.6481 -0.0055  0.5848
 3050SOL    HW1 9728   2.600   6.082   6.412 -1.7206 -0.2578  1.2037
 3050SOL    HW2 9729   2.506   6.056   6.296  0.7806  0.6003 -1.0923
 3051SOL     OW 9730   5.515   8.045   5.511 -0.1455  0.4319 -0.2327
 3051SOL    HW1 9731   5.558   8.085   5.436  0.5331  2.3540  1.1092
 3051SOL    HW2 9732   5.439   8.101   5.527 -0.2744  0.0563  0.5086
 3052SOL     OW 9733   9.583   0.752   8.031 -0.2924 -0.0905  0.3322
 3052SOL    HW1 9734   9.547   0.689   7.968 -1.8871  1.7680 -0.7476
 3052SOL    HW2 9735   9.521   0.753   8.103 -2.3644  2.7614 -1.3078
 3053SOL     OW 9736   8.258   8.715   7.354  0.5157 -0.1286  0.7631
 3053SOL    HW1 9737   8.202   8.655   7.404  1.7105 -0.6601  1.4941
 3053SOL    HW2 9738   8.225   8.708   7.264 -2.3755  1.6363  1.5177
 3054SOL     OW 9739   4.616   9.656   3.071  0.7051  0.3276 -0.0204
 3054SOL    HW1 9740   4.633   9.565   3.050 -0.6174  0.2426 -0.8008
 3054SOL    HW2 9741   4.643   9.665   3.163 -1.0289 -1.3734  0.7099
 3055SOL     OW 9742   9.836   5.407   7.789 -0.2175  1.2971  0.2339
 3055SOL    HW1 9743   9.829   5.475   7.855  0.8643  1.5990  0.0523
 3055SOL    HW2 9744   9.929   5.385   7.786 -0.3065  1.0099 -0.9019
 3056SOL     OW 9745   8.697   6.076   3.604 -0.2752  0.2842  0.3007
 3056SOL    HW1 9746   8.610   6.096   3.570  0.4333  1.8758 -0.7280
 3056SOL    HW2 9747   8.717   6.148   3.663  0.8684  0.7007 -0.5555
 3057SOL     OW 9748   0.894   3.926   3.622 -0.1010  0.1545 -0.3484
 3057SOL    HW1 9749   0.906   3.995   3.557  3.1244  0.3711  0.2903
 3057SOL    HW2 9750   0.935   3.849   3.582  0.2256 -0.2015  0.6440
 3058SOL     OW 9751   0.055   0.242   2.106  0.2381 -0.1684 -0.2708
 3058SOL    HW1 9752   0.091   0.167   2.058  1.5245 -0.3085  0.8416
 3058SOL    HW2 9753   0.118   0.258   2.177 -1.5150  0.0808  1.3269
 3059SOL     OW 9754   4.974   0.386   6.324  0.2145  0.3404 -0.1693
 3059SOL    HW1 9755   5.047   0.406   6.383  1.1677  1.1863 -1.5646
 3059SOL    HW2 9756   5.014   0.334   6.254 -0.8715 -0.5675 -0.1297
 3060SOL     OW 9757   5.097   6.424   7.171  0.3423 -0.3034  0.0516
 3060SOL    HW1 9758   5.039   6.460   7.238 -0.5016 -0.0234 -0.8218
 3060SOL    HW2 9759   5.113   6.334   7.199 -1.5124 -0.7835 -0.3359
 3061SOL     OW 9760   1.258   8.755   1.222  0.4468  1.1012 -0.2784
 3061SOL    HW1 9761   1.218   8.807   1.292  2.1382  2.1848 -0.0618
 3061SOL    HW2 9762   1.210   8.781   1.143 -0.3598  1.1164  0.2012
 3062SOL     OW 9763   3.700   6.274   3.688 -0.0722  0.8145 -0.2790
 3062SOL    HW1 9764   3.619   6.316   3.718 -0.4711 -0.0978 -0.0653
 3062SOL    HW2 9765   3.681   6.180   3.690  0.5700  0.6441 -1.4683
 3063SOL     OW 9766   6.579   3.696   8.754 -0.1610 -0.4005 -0.4501
 3063SOL    HW1 9767   6.583   3.606   8.788  1.1641 -0.3503 -0.4180
 3063SOL    HW2 9768   6.555   3.749   8.830  1.5966 -0.4339  0.1722
 3064SOL     OW 9769   5.529   2.264   0.513 -0.1851  0.1711  0.6933
 3064SOL    HW1 9770   5.511   2.294   0.602  1.1844 -1.6390  1.6575
 3064SOL    HW2 9771   5.617   2.296   0.494  0.1792 -0.8121  0.6595
 3065SOL     OW 9772   9.618   4.086   3.619  0.4470  0.3040  0.3270
 3065SOL    HW1 9773   9.605   4.162   3.676 -0.3394 -0.0826  0.6678
 3065SOL    HW2 9774   9.692   4.040   3.659 -0.2013 -0.0546  1.1431
 3066SOL     OW 9775   7.647   1.428   5.862 -0.0174  0.0073 -0.7217
 3066SOL    HW1 9776   7.696   1.507   5.887 -0.4790 -0.6225  2.7971
 3066SOL    HW2 9777   7.708   1.356   5.876 -1.0585 -0.5780  1.3271
 3067SOL     OW 9778   9.052   4.460   0.118 -0.5308  0.3058  0.3037
 3067SOL    HW1 9779   8.975   4.495   0.164  0.0672  0.2624  1.3774
 3067SOL    HW2 9780   9.125   4.479   0.177  0.2667  0.2514 -0.6562
 3068SOL     OW 9781   8.306   1.808   4.519  0.4771  0.1409 -0.2252
 3068SOL    HW1 9782   8.294   1.879   4.582  0.6985 -1.1561  1.3515
 3068SOL    HW2 9783   8.390   1.769   4.543 -0.3972 -1.6839  0.0584
 3069SOL     OW 9784   8.554   5.511   0.980  0.1336 -0.7027  0.0144
 3069SOL    HW1 9785   8.541   5.464   1.063 -0.2823  0.1703  0.4505
 3069SOL    HW2 9786   8.482   5.481   0.924 -1.1046  0.6110  0.8456
 3070SOL     OW 9787   0.824   1.242   2.520  0.4847  0.0904 -0.5099
 3070SOL    HW1 9788   0.824   1.168   2.461  0.6221  0.1641 -0.6025
 3070SOL    HW2 9789   0.793   1.316   2.467 -1.2137 -0.2199 -0.0134
 3071SOL     OW 9790   2.133   4.473   7.267  0.2562  0.0878  0.9925
 3071SOL    HW1 9791   2.173   4.391   7.295  0.0418  0.2648  1.8230
 3071SOL    HW2 9792   2.178   4.541   7.316  1.0319  0.5654 -0.3207
 3072SOL     OW 9793   6.269   5.927   9.124  0.3800 -0.3781 -0.2674
 3072SOL    HW1 9794   6.221   5.904   9.045  0.5487  0.0005 -0.4826
 3072SOL    HW2 9795   6.307   6.013   9.105  1.5617 -0.8897 -0.2872
 3073SOL     OW 9796   7.328   1.148   3.292  0.5091  0.2026 -0.1727
 3073SOL    HW1 9797   7.305   1.103   3.211  0.2865  1.0782 -0.6038
 3073SOL    HW2 9798   7.417   1.180   3.277  0.5075  0.2738 -0.0293
 3074SOL     OW 9799   7.712   9.335   1.327  0.0379  0.0627  0.0594
 3074SOL    HW1 9800   7.725   9.241   1.337  2.1397 -0.1434 -3.1851
 3074SOL    HW2 9801   7.677   9.346   1.239  1.2683  2.3412 -0.2444
 3075SOL     OW 9802   4.023   1.609   4.927  0.1721  0.1453  0.2888
 3075SOL    HW1 9803   4.115   1.593   4.948 -0.2839 -0.8327  1.6787
 3075SOL    HW2 9804   4.000   1.686   4.978 -0.0531 -0.2410  0.7753
 3076SOL     OW 9805   6.641   3.284   9.949  0.2984 -0.2810 -0.1005
 3076SOL    HW1 9806   6.601   3.202   9.977 -0.3845 -0.2329 -0.8621
 3076SOL    HW2 9807   6.567   3.337   9.918  0.9908 -0.5419 -2.4344
 3077SOL     OW 9808   8.949   8.237   9.554  0.3038 -0.6514 -0.2078
 3077SOL    HW1 9809   8.904   8.230   9.638  0.6007 -0.3657 -0.0241
 3077SOL    HW2 9810   9.042   8.230   9.575  0.3551 -1.1691 -0.5799
 3078SOL     OW 9811   9.558   3.994   1.710 -0.0204  0.1945  0.3261
 3078SOL    HW1 9812   9.612   4.065   1.676  0.6639 -0.5763 -0.2369
 3078SOL    HW2 9813   9.473   4.034   1.727  0.2488  1.0670 -0.3266
 3079SOL     OW 9814   3.287   4.718   6.952 -0.6465  0.2979 -0.6412
 3079SOL    HW1 9815   3.268   4.808   6.976 -1.9281 -0.0756 -0.1337
 3079SOL    HW2 9816   3.222   4.666   7.000  0.0558 -0.8923 -0.9258
 3080SOL     OW 9817   3.305   3.556   8.384 -0.3612 -0.4904  0.4992
 3080SOL    HW1 9818   3.322   3.646   8.412 -1.4199 -0.4577  1.0886
 3080SOL    HW2 9819   3.331   3.503   8.459  1.5430 -0.8152 -0.3281
 3081SOL     OW 9820   3.588   2.767   8.632  0.5608  0.0913 -0.0917
 3081SOL    HW1 9821   3.563   2.693   8.577  0.2810  0.3118 -0.2670
 3081SOL    HW2 9822   3.610   2.728   8.717  1.5564 -0.3076 -0.5275
 3082SOL     OW 9823   7.178   9.336   9.456  0.0262 -0.0314 -0.1142
 3082SOL    HW1 9824   7.135   9.394   9.394 -0.3779 -0.5956 -0.3619
 3082SOL    HW2 9825   7.127   9.345   9.537  0.6742  0.8596  0.2167
 3083SOL     OW 9826   9.843   6.832   8.969 -0.0742  0.5548 -0.5039
 3083SOL    HW1 9827   9.817   6.759   8.912 -2.6356 -0.1866  1.4254
 3083SOL    HW2 9828   9.931   6.808   8.999 -0.4184 -1.2116 -0.7829
 3084SOL     OW 9829   4.985   2.743   1.308  0.6152 -0.2014  0.2456
 3084SOL    HW1 9830   4.929   2.666   1.317 -0.4830  0.6085  0.4106
 3084SOL    HW2 9831   5.074   2.706   1.302  0.2038 -1.4348  1.2361
 3085SOL     OW 9832   5.666   3.759   8.351 -0.1180  0.2510 -0.3447
 3085SOL    HW1 9833   5.711   3.797   8.427  1.3070 -1.1502 -0.4366
 3085SOL    HW2 9834   5.697   3.810   8.277  1.1809 -0.5007 -0.3675
 3086SOL     OW 9835   3.754   1.475   4.406 -0.8930 -0.0885  0.0024
 3086SOL    HW1 9836   3.771   1.476   4.312  1.0395  0.7657  0.3105
 3086SOL    HW2 9837   3.659   1.463   4.413 -1.0456 -0.4467 -2.0319
 3087SOL     OW 9838   2.451   7.987   3.056  0.4184 -0.0313  0.3408
 3087SOL    HW1 9839   2.415   7.898   3.062  2.5651 -0.9261  1.0720
 3087SOL    HW2 9840   2.453   8.017   3.147  0.4723  0.4296  0.1864
 3088SOL     OW 9841   1.728   8.649   8.045  0.0417  0.2975 -0.1482
 3088SOL    HW1 9842   1.739   8.696   7.963 -0.7753  0.8029  0.0138
 3088SOL    HW2 9843   1.816   8.623   8.071  0.3975  0.9201 -0.7261
 3089SOL     OW 9844   1.894   8.535   3.424  0.3710  0.9829  0.1914
 3089SOL    HW1 9845   1.892   8.562   3.332  1.0454  1.7247  0.3872
 3089SOL    HW2 9846   1.826   8.467   3.430  1.0706  0.1184 -1.0938
 3090SOL     OW 9847   7.734   6.487   1.411  0.3537 -0.2282 -0.1475
 3090SOL    HW1 9848   7.798   6.416   1.400 -0.8159 -1.4768  0.7929
 3090SOL    HW2 9849   7.788   6.566   1.422  1.7992 -1.3550  1.5023
 3091SOL     OW 9850   5.297   2.962   3.116  0.0029 -0.0496  0.3143
 3091SOL    HW1 9851   5.346   3.044   3.110  0.7135 -0.4826  0.1194
 3091SOL    HW2 9852   5.242   2.960   3.038 -0.8789  0.7811  0.8932
 3092SOL     OW 9853   6.913   9.892   4.004 -0.0551  0.1110 -0.1505
 3092SOL    HW1 9854   6.919   9.969   3.946 -0.3184  0.0023 -0.3282
 3092SOL    HW2 9855   6.998   9.850   3.997  0.7978  1.4432  1.4607
 3093SOL     OW 9856   8.285   5.252   3.863  0.6578 -0.6746 -0.4039
 3093SOL    HW1 9857   8.248   5.183   3.808 -0.0254 -0.2001 -0.5508
 3093SOL    HW2 9858   8.214   5.276   3.923  0.9159 -0.1519 -0.2994
 3094SOL     OW 9859   4.922   8.457   8.734  0.3504 -0.2549  0.1872
 3094SOL    HW1 9860   4.978   8.412   8.671 -0.0791  1.6117 -1.6235
 3094SOL    HW2 9861   4.949   8.549   8.729 -1.8399  0.4585  0.3524
 3095SOL     OW 9862   5.780   5.435   2.400  0.2250 -0.4279  0.2013
 3095SOL    HW1 9863   5.826   5.510   2.436  1.6309 -0.8868 -0.5781
 3095SOL    HW2 9864   5.828   5.359   2.433  0.2099 -0.9134 -0.8393
 3096SOL     OW 9865   1.860   1.333   4.673  0.1861  0.2942 -0.2571
 3096SOL    HW1 9866   1.809   1.375   4.742  0.9600  0.7418  0.0569
 3096SOL    HW2 9867   1.796   1.311   4.605 -0.5563 -0.0401  0.5452
 3097SOL     OW 9868   5.959   6.317   0.697 -0.5461 -0.4029  0.3477
 3097SOL    HW1 9869   5.885   6.357   0.742 -0.6749 -1.8057  1.4349
 3097SOL    HW2 9870   6.011   6.278   0.767 -0.8115 -2.7628 -0.6923
 3098SOL     OW 9871   8.682   6.831   0.402 -0.2701  0.3428 -0.3308
 3098SOL    HW1 9872   8.754   6.891   0.386 -1.0179  1.1549 -0.7303
 3098SOL    HW2 9873   8.615   6.857   0.339 -1.4474  0.5114  0.9489
 3099SOL     OW 9874   3.373   3.941   0.559 -0.3281 -0.1339  0.6077
 3099SOL    HW1 9875   3.372   3.874   0.628 -2.4702 -0.9944 -0.1607
 3099SOL    HW2 9876   3.408   3.894   0.482  1.4029  0.6315  0.8825
 3100SOL     OW 9877   5.615   4.466   6.850 -0.1912 -0.4863 -0.4602
 3100SOL    HW1 9878   5.524   4.439   6.838 -0.5586  0.0418  1.0470
 3100SOL    HW2 9879   5.632   4.455   6.943  0.6342  1.4238 -0.3397
 3101SOL     OW 9880   4.739   8.171   4.714  0.7824  0.0572 -0.1058
 3101SOL    HW1 9881   4.815   8.201   4.666  0.1934  0.8241 -0.5715
 3101SOL    HW2 9882   4.725   8.237   4.782  0.2327  0.1841 -0.3410
 3102SOL     OW 9883   2.738   2.462   1.692  0.1665  0.3854  0.2045
 3102SOL    HW1 9884   2.651   2.499   1.706  0.0434  0.1549  0.0635
 3102SOL    HW2 9885   2.751   2.468   1.597 -0.8754 -2.1381 -0.1684
 3103SOL     OW 9886   2.109   9.604   5.526  0.0760 -0.2512 -0.4941
 3103SOL    HW1 9887   2.198   9.614   5.559 -0.6925  1.2332  1.3170
 3103SOL    HW2 9888   2.117   9.542   5.453  2.6455  0.2424 -0.7303
 3104SOL     OW 9889   7.564   8.355   5.451  0.1981 -0.7550  0.6413
 3104SOL    HW1 9890   7.533   8.406   5.525  1.1598 -0.6267  0.9696
 3104SOL    HW2 9891   7.658   8.344   5.467  0.2357 -1.5500 -0.0665
 3105SOL     OW 9892   5.858   5.980   7.140 -0.2222  0.0907  0.0506
 3105SOL    HW1 9893   5.784   5.920   7.133 -0.7209  0.8391 -1.6322
 3105SOL    HW2 9894   5.828   6.047   7.202 -0.5744 -0.1428  0.1363
 3106SOL     OW 9895   8.674   4.275   3.488 -0.4797 -0.1431  0.3466
 3106SOL    HW1 9896   8.593   4.269   3.538 -0.2139  0.5875  0.8960
 3106SOL    HW2 9897   8.740   4.234   3.544 -0.3951 -0.3825  0.0742
 3107SOL     OW 9898   8.997   6.661   3.386  0.2477 -0.0403 -0.3683
 3107SOL    HW1 9899   8.921   6.616   3.422 -0.9108  1.3084 -1.0559
 3107SOL    HW2 9900   8.976   6.754   3.391  0.9580  0.2945 -2.4193
 3108SOL     OW 9901   9.705   4.815   5.308  0.6025 -0.6471  0.1096
 3108SOL    HW1 9902   9.634   4.775   5.359  0.3603 -0.0833  0.2172
 3108SOL    HW2 9903   9.674   4.904   5.289  1.7292 -0.0368  1.0425
 3109SOL     OW 9904   6.313   8.621   3.204  0.0307 -0.1504  0.5803
 3109SOL    HW1 9905   6.338   8.629   3.112  2.0254  2.9417  1.2267
 3109SOL    HW2 9906   6.325   8.529   3.224  2.1304 -0.4829 -1.6407
 3110SOL     OW 9907   7.416   4.629   3.877 -0.3868  0.0456 -0.0400
 3110SOL    HW1 9908   7.326   4.603   3.900 -1.2729  0.6618 -2.4959
 3110SOL    HW2 9909   7.410   4.656   3.785  1.8420  2.4385  0.4213
 3111SOL     OW 9910   0.466   0.253   1.420  0.2863 -0.1799 -0.1024
 3111SOL    HW1 9911   0.479   0.241   1.514  2.0240 -2.1861 -0.5198
 3111SOL    HW2 9912   0.421   0.337   1.413 -0.4949 -0.2731  2.5359
 3112SOL     OW 9913   5.105   5.540   5.095 -0.5098  0.1821  0.1010
 3112SOL    HW1 9914   5.152   5.463   5.128 -3.8269 -2.0938  0.0646
 3112SOL    HW2 9915   5.128   5.544   5.002 -0.4896 -0.9750  0.0387
 3113SOL     OW 9916   1.054   9.687   5.056  0.3864  0.3636  0.7333
 3113SOL    HW1 9917   1.053   9.781   5.038  1.0708  0.2873  0.2531
 3113SOL    HW2 9918   1.029   9.647   4.973  1.2239  0.0886  0.6031
 3114SOL     OW 9919   6.828   5.175   2.394 -0.3399  0.1776  0.7232
 3114SOL    HW1 9920   6.791   5.101   2.443  0.6745 -0.2907  0.8084
 3114SOL    HW2 9921   6.907   5.198   2.443  0.6427 -0.2290 -0.6298
 3115SOL     OW 9922   7.312   3.614   9.179  1.2505 -0.0548  0.0271
 3115SOL    HW1 9923   7.296   3.567   9.097 -1.6552  2.3650 -0.9584
 3115SOL    HW2 9924   7.257   3.569   9.243 -0.7586  1.2597 -0.6901
 3116SOL     OW 9925   6.481   9.285   7.707  0.6112 -0.3057 -0.2504
 3116SOL    HW1 9926   6.557   9.252   7.754  0.5850 -0.4340 -0.2972
 3116SOL    HW2 9927   6.455   9.213   7.650  1.2034  0.1594 -1.1442
 3117SOL     OW 9928   6.619   4.767   2.835 -0.2890  0.4508 -0.6486
 3117SOL    HW1 9929   6.644   4.832   2.769  4.1670  2.5998  2.5727
 3117SOL    HW2 9930   6.571   4.818   2.901 -0.4968 -0.4792 -0.0602
 3118SOL     OW 9931   3.528  -0.005   9.749  0.2406 -0.0449  0.3549
 3118SOL    HW1 9932   3.582   0.013   9.672  1.8039  0.2737  1.4845
 3118SOL    HW2 9933   3.584   0.015   9.823 -1.6578  0.9302  1.6069
 3119SOL     OW 9934   0.451   8.656   3.853 -0.5564 -0.4014 -0.2457
 3119SOL    HW1 9935   0.536   8.701   3.847  0.3012 -1.9249  0.0852
 3119SOL    HW2 9936   0.387   8.727   3.862  0.8384  0.7299  1.4110
 3120SOL     OW 9937   7.111   6.948   8.196 -0.2773  0.4165  0.0663
 3120SOL    HW1 9938   7.097   6.974   8.287 -2.3712  0.5400 -0.2526
 3120SOL    HW2 9939   7.060   7.010   8.145 -0.4327 -0.6312 -1.1014
 3121SOL     OW 9940   1.830   9.660   7.422  0.4638  0.7894 -0.0749
 3121SOL    HW1 9941   1.836   9.740   7.369 -2.4159  0.8792 -0.4001
 3121SOL    HW2 9942   1.876   9.594   7.370  0.0499  1.5082 -1.4008
 3122SOL     OW 9943   6.198   2.780   1.688  0.6673  0.2849 -0.2498
 3122SOL    HW1 9944   6.238   2.773   1.602  0.5404  1.7312 -0.4561
 3122SOL    HW2 9945   6.112   2.818   1.672  0.3151 -0.1957  0.4425
 3123SOL     OW 9946   3.974   9.064   0.969  0.6804  0.7521 -0.0221
 3123SOL    HW1 9947   3.881   9.041   0.981  0.5794  0.1540 -1.6880
 3123SOL    HW2 9948   3.977   9.158   0.983 -0.2558  0.8396 -0.3552
 3124SOL     OW 9949   9.175   3.213   7.849 -0.0694  0.1379 -0.3502
 3124SOL    HW1 9950   9.110   3.243   7.914  0.7414  1.9663 -0.3205
 3124SOL    HW2 9951   9.239   3.164   7.900 -0.9918 -1.0021 -0.2568
 3125SOL     OW 9952   2.023   9.167   7.763  0.2182  0.4533  0.2520
 3125SOL    HW1 9953   2.115   9.151   7.739  0.1423  1.7547 -0.9791
 3125SOL    HW2 9954   2.029   9.217   7.844  0.6166  0.9790 -0.0942
 3126SOL     OW 9955   8.075   2.167   6.781  0.0843 -0.4813  0.4935
 3126SOL    HW1 9956   8.060   2.081   6.741  0.4341 -0.3092 -0.0138
 3126SOL    HW2 9957   7.988   2.196   6.808 -0.2960 -0.2447 -0.8803
 3127SOL     OW 9958   8.576   9.771   8.399 -0.3403  0.7277  0.6396
 3127SOL    HW1 9959   8.495   9.739   8.440 -0.3329 -0.0920  0.0376
 3127SOL    HW2 9960   8.547   9.827   8.327 -0.3609  1.0541  0.8991
 3128SOL     OW 9961   3.930   4.527   1.662 -0.1774  0.1938 -0.8458
 3128SOL    HW1 9962   3.943   4.502   1.754  1.1316  2.0129 -0.4905
 3128SOL    HW2 9963   3.948   4.447   1.613  0.0394 -0.5701  0.4132
 3129SOL     OW 9964   4.973   1.767   1.191 -0.7943  0.4461 -0.3771
 3129SOL    HW1 9965   5.019   1.720   1.261 -1.0713  1.6395  0.6465
 3129SOL    HW2 9966   4.951   1.851   1.230 -2.2530  0.5878 -1.4399
 3130SOL     OW 9967   3.850   8.766   1.168 -0.1630 -0.4854 -0.3972
 3130SOL    HW1 9968   3.929   8.810   1.135 -1.4390  1.9874 -0.3715
 3130SOL    HW2 9969   3.874   8.738   1.257  0.2225  1.7173  0.2470
 3131SOL     OW 9970   1.486   7.775   3.186 -0.1514 -0.0522  0.1991
 3131SOL    HW1 9971   1.397   7.810   3.195  0.5014  1.4707  1.1996
 3131SOL    HW2 9972   1.486   7.694   3.235 -1.4912 -1.1206 -1.4497
 3132SOL     OW 9973   5.701   0.603   6.052 -0.4182 -0.2872  0.0887
 3132SOL    HW1 9974   5.769   0.539   6.075 -0.0991 -0.1560 -0.4662
 3132SOL    HW2 9975   5.739   0.653   5.980 -0.7758  0.3449  0.3304
 3133SOL     OW 9976   5.766   1.784   1.657  0.4591 -0.8633 -0.2643
 3133SOL    HW1 9977   5.814   1.866   1.664  1.6118 -1.6199  1.2774
 3133SOL    HW2 9978   5.829   1.717   1.682 -0.7404 -2.1357 -0.5202
 3134SOL     OW 9979   8.921   6.371   9.395 -0.1403  0.0730  0.2588
 3134SOL    HW1 9980   8.912   6.288   9.442  2.2621 -0.0101  0.7146
 3134SOL    HW2 9981   8.860   6.430   9.439 -0.0180 -0.7669  1.6324
 3135SOL     OW 9982   0.519   4.862   4.297 -0.1506  0.5138  0.1201
 3135SOL    HW1 9983   0.574   4.940   4.291  1.8035 -0.9026 -3.0824
 3135SOL    HW2 9984   0.441   4.884   4.247  0.7288  0.2583 -1.4256
 3136SOL     OW 9985   8.983   2.182   0.720 -0.4916 -0.4562 -0.4595
 3136SOL    HW1 9986   9.044   2.149   0.785 -0.9237  0.7983  0.6337
 3136SOL    HW2 9987   8.905   2.127   0.730  0.0234 -1.2982 -1.0402
 3137SOL     OW 9988   6.856   5.774   3.310  0.1484  0.3297 -0.0970
 3137SOL    HW1 9989   6.857   5.691   3.262 -0.1762  0.9795 -1.2509
 3137SOL    HW2 9990   6.812   5.753   3.393  2.0755 -1.1578  0.6378
 3138SOL     OW 9991   1.505   6.008   3.444 -0.7534  0.1757  0.3463
 3138SOL    HW1 9992   1.585   5.971   3.407 -0.1346  0.2752  1.5363
 3138SOL    HW2 9993   1.535   6.067   3.513 -1.8640 -1.0614  1.9836
 3139SOL     OW 9994   6.261   9.073   7.619 -0.6349 -0.0150 -0.4365
 3139SOL    HW1 9995   6.301   9.050   7.703 -1.6463 -2.4475 -0.5404
 3139SOL    HW2 9996   6.170   9.048   7.629 -1.4893  2.4452 -1.3059
 3140SOL     OW 9997   3.564   7.894   6.474 -0.1367 -0.1124 -0.1265
 3140SOL    HW1 9998   3.611   7.956   6.418  0.4793 -0.0520  0.4480
 3140SOL    HW2 9999   3.473   7.900   6.445 -0.3592  2.0927  0.8284
 3141SOL     OW10000   5.597   2.026   4.184 -1.0336  0.1455  0.0564
 3141SOL    HW110001   5.549   1.945   4.200  0.9535 -1.2480 -0.6565
 3141SOL    HW210002   5.647   2.040   4.264  0.5931 -0.8116 -0.7469
 3142SOL     OW10003   5.459   6.547   4.482 -0.3404 -0.3857 -0.1930
 3142SOL    HW110004   5.465   6.610   4.411  1.2526  0.3623  0.5449
 3142SOL    HW210005   5.524   6.577   4.546 -1.1159 -1.5185  1.1899
 3143SOL     OW10006   0.508   5.953   5.679 -0.3577  0.1250 -0.4059
 3143SOL    HW110007   0.516   6.006   5.758 -0.7025 -0.7473  0.2308
 3143SOL    HW210008   0.442   5.998   5.626 -0.1791  0.6748 -0.1730
 3144SOL     OW10009   9.023   6.935   3.423  0.0550 -0.0072  0.2956
 3144SOL    HW110010   9.063   6.998   3.363  1.6958 -1.0231  0.2585
 3144SOL    HW210011   9.097   6.892   3.465 -1.0382 -0.0241  2.3572
 3145SOL     OW10012   4.503   3.262   1.722  0.0268 -0.3946  0.1925
 3145SOL    HW110013   4.596   3.274   1.744  0.4000  1.2318 -1.9844
 3145SOL    HW210014   4.490   3.167   1.725  1.1179 -0.5472  2.7867
 3146SOL     OW10015   7.076   1.455   1.806  0.4547 -0.2967  0.1866
 3146SOL    HW110016   7.149   1.398   1.832 -0.0756 -0.9630  0.2334
 3146SOL    HW210017   7.099   1.483   1.717  1.0824  0.0219  0.4446
 3147SOL     OW10018   9.113   8.879   8.373  0.3000  0.1134  0.1350
 3147SOL    HW110019   9.079   8.935   8.303 -0.7389 -0.6104  0.0561
 3147SOL    HW210020   9.208   8.882   8.360  0.1002 -1.6946 -2.6714
 3148SOL     OW10021   1.180   6.424   7.032  0.2092  0.3510 -0.5590
 3148SOL    HW110022   1.224   6.396   7.112 -0.8150 -1.2347 -0.5236
 3148SOL    HW210023   1.223   6.507   7.010  0.6614  0.7298  1.4936
 3149SOL     OW10024   6.749   4.009   1.727  0.3020 -1.1049 -0.4651
 3149SOL    HW110025   6.844   4.017   1.722  0.4000  1.8273  2.6580
 3149SOL    HW210026   6.734   3.950   1.801 -0.2515 -0.6356 -0.1916
 3150SOL     OW10027   5.213   9.615   9.663 -0.6988 -0.9092 -0.1136
 3150SOL    HW110028   5.132   9.664   9.671 -0.9718 -1.6036  2.1772
 3150SOL    HW210029   5.259   9.655   9.589 -2.2429  0.7667 -0.2197
 3151SOL     OW10030   4.599   1.942   6.426 -0.1124  0.0591 -0.3321
 3151SOL    HW110031   4.573   1.873   6.365  0.0645 -0.9582  0.6993
 3151SOL    HW210032   4.683   1.972   6.393  0.6117 -1.3893  0.1049
 3152SOL     OW10033   0.663   3.933   2.311  0.4941  0.0388  0.0473
 3152SOL    HW110034   0.634   3.856   2.263  0.1283  0.4394 -0.3885
 3152SOL    HW210035   0.725   3.900   2.377 -1.2547 -0.8955  1.2869
 3153SOL     OW10036   7.024   0.090   1.530 -0.0633  0.1735 -0.1456
 3153SOL    HW110037   7.001   0.049   1.613 -0.8096  0.4277 -0.2196
 3153SOL    HW210038   6.997   0.026   1.464 -0.7667  0.5602 -0.2415
 3154SOL     OW10039   8.388   0.364   0.573  0.4234  0.0734 -0.0073
 3154SOL    HW110040   8.356   0.449   0.604 -0.2823 -0.6009  1.2028
 3154SOL    HW210041   8.416   0.318   0.653 -0.3614 -1.2994 -0.4920
 3155SOL     OW10042   6.463   4.830   9.174 -0.0439 -0.4279 -0.2506
 3155SOL    HW110043   6.443   4.782   9.255 -0.5274 -1.5243 -0.9854
 3155SOL    HW210044   6.384   4.881   9.156  0.3380  0.3942  0.3428
 3156SOL     OW10045   9.036   7.524   1.141  0.8415 -0.0830 -0.6115
 3156SOL    HW110046   9.061   7.530   1.233  2.2919 -0.0280 -0.9854
 3156SOL    HW210047   8.977   7.449   1.137  0.0224  0.4808  0.5067
 3157SOL     OW10048   3.801   1.119   2.363  0.4074 -0.2335  0.5609
 3157SOL    HW110049   3.717   1.132   2.409  0.2095 -0.1469  0.1782
 3157SOL    HW210050   3.840   1.206   2.360  0.8272 -0.3857  1.3339
 3158SOL     OW10051   0.738   5.992   0.169 -0.2939  0.1288 -0.5446
 3158SOL    HW110052   0.776   5.906   0.185  0.9048  0.6615 -0.4690
 3158SOL    HW210053   0.763   6.013   0.079 -0.1033  0.6447 -0.3714
 3159SOL     OW10054   6.240   8.825   8.090  0.0402 -0.2921 -0.1766
 3159SOL    HW110055   6.148   8.798   8.091 -0.2820  0.7529 -0.3274
 3159SOL    HW210056   6.240   8.908   8.043  0.8401  0.5019  1.1607
 3160SOL     OW10057   8.747   9.871   0.655 -0.1971 -0.1286  0.2409
 3160SOL    HW110058   8.759   9.801   0.590  0.1253 -0.1003  0.2660
 3160SOL    HW210059   8.685   9.932   0.614  0.9248  0.5095 -0.5565
 3161SOL     OW10060   8.753   9.851   4.700 -0.4331 -0.1603 -0.6500
 3161SOL    HW110061   8.713   9.824   4.783 -0.1313  0.5064 -0.2733
 3161SOL    HW210062   8.843   9.819   4.706 -0.4358 -0.1867 -0.7514
 3162SOL     OW10063   0.151   4.198   3.041 -0.1993  0.0282 -0.5245
 3162SOL    HW110064   0.163   4.149   3.122 -0.9999 -0.8081 -0.8943
 3162SOL    HW210065   0.118   4.133   2.978 -0.4856  0.8644 -1.2569
 3163SOL     OW10066   9.893   3.888   8.096  0.5339 -0.0872 -0.1363
 3163SOL    HW110067   9.844   3.939   8.031  1.4575  2.0700  0.7706
 3163SOL    HW210068   9.985   3.903   8.075  0.8541 -1.3675  0.2211
 3164SOL     OW10069   7.936   6.685   1.321 -0.0693 -0.3827  0.1205
 3164SOL    HW110070   7.993   6.610   1.338  2.3104  1.0554 -1.0326
 3164SOL    HW210071   7.908   6.674   1.230  1.1657  0.6251 -0.4059
 3165SOL     OW10072   3.560   6.789   0.334  0.0506  0.3390 -0.3908
 3165SOL    HW110073   3.576   6.876   0.297 -0.6288  1.4977  1.8299
 3165SOL    HW210074   3.592   6.796   0.424 -2.3883 -0.8684  0.6492
 3166SOL     OW10075   4.137   9.939   8.920 -0.8442 -0.6090 -0.1168
 3166SOL    HW110076   4.082   9.897   8.855 -0.0842 -0.9673 -0.5397
 3166SOL    HW210077   4.223   9.947   8.879 -0.8967  1.2088  0.0107
 3167SOL     OW10078   6.457   6.676   1.107  0.2287 -0.1761  0.1805
 3167SOL    HW110079   6.548   6.664   1.134  0.5624  0.8402 -0.4328
 3167SOL    HW210080   6.458   6.756   1.054 -0.8563 -0.6781 -0.6341
 3168SOL     OW10081   8.892   3.978   4.477  0.0923 -0.4771  0.3443
 3168SOL    HW110082   8.802   3.989   4.507 -0.5126 -1.3436 -1.0215
 3168SOL    HW210083   8.885   3.972   4.381  1.7470  0.6830  0.1147
 3169SOL     OW10084   5.967   3.557   3.167 -0.5428  0.5717  0.4897
 3169SOL    HW110085   6.007   3.607   3.238 -0.0313 -0.2463  0.8010
 3169SOL    HW210086   5.873   3.569   3.179 -0.4681  0.3561  1.3820
 3170SOL     OW10087   5.985   4.961   0.528 -0.8595 -0.4365  0.2147
 3170SOL    HW110088   6.008   4.966   0.436 -0.7317 -0.0843  0.2643
 3170SOL    HW210089   5.897   4.997   0.533 -1.0065 -0.7907  0.1782
 3171SOL     OW10090   4.275   6.974   0.686 -0.0121 -0.0957 -0.8747
 3171SOL    HW110091   4.307   6.892   0.649  1.0079  0.3372 -0.9924
 3171SOL    HW210092   4.327   6.986   0.766 -0.9870 -0.1564 -0.2205
 3172SOL     OW10093   2.165   1.256   7.243  1.0378 -0.3543 -0.2602
 3172SOL    HW110094   2.155   1.187   7.308  0.5370  0.2825  0.3501
 3172SOL    HW210095   2.243   1.231   7.194  0.1128 -2.0512 -0.9332
 3173SOL     OW10096   2.640   0.969   1.935  0.2680 -0.1826  0.3007
 3173SOL    HW110097   2.705   0.938   1.871 -0.4158 -0.7511 -0.1376
 3173SOL    HW210098   2.565   0.993   1.881 -1.0137 -2.3985  0.9785
 3174SOL     OW10099   4.736   0.222   8.688 -0.2542  0.2320 -0.4228
 3174SOL    HW110100   4.680   0.297   8.669 -1.4488 -0.6972 -0.6835
 3174SOL    HW210101   4.823   0.249   8.658 -0.6371  1.5365 -0.4197
 3175SOL     OW10102   2.232   6.738   1.651 -0.0252  0.1560  0.0426
 3175SOL    HW110103   2.295   6.676   1.616 -0.2106  0.1839 -0.3437
 3175SOL    HW210104   2.214   6.707   1.740 -0.1213 -0.3489 -0.1477
 3176SOL     OW10105   7.208   1.415   2.405 -0.2472 -0.6436  0.9217
 3176SOL    HW110106   7.187   1.351   2.337 -0.6947 -0.2985  0.7322
 3176SOL    HW210107   7.304   1.417   2.406 -0.2201  0.0174 -0.3557
 3177SOL     OW10108   1.390   0.535   0.134 -0.2702 -0.1630  0.0788
 3177SOL    HW110109   1.407   0.563   0.044 -1.5244 -1.5205 -0.6120
 3177SOL    HW210110   1.300   0.505   0.134 -0.1285 -0.6989  1.6762
 3178SOL     OW10111   0.995   2.590   6.095  0.6564  0.1828 -0.0692
 3178SOL    HW110112   1.071   2.535   6.080  0.9822  1.2721 -3.1967
 3178SOL    HW210113   0.920   2.535   6.071  0.6734 -0.0185  0.3334
 3179SOL     OW10114   9.002   5.192   2.568  0.2839  0.0937 -0.0849
 3179SOL    HW110115   8.925   5.139   2.590  0.3503 -0.3583 -0.9193
 3179SOL    HW210116   8.973   5.251   2.499  0.1459  1.3407  1.0037
 3180SOL     OW10117   4.844   2.118   0.840 -0.3364 -0.4527 -0.2294
 3180SOL    HW110118   4.846   2.075   0.755  0.8702 -0.0679 -0.4138
 3180SOL    HW210119   4.921   2.085   0.886  0.1692  0.8804 -0.0701
 3181SOL     OW10120   8.464   3.397   3.941 -0.2672 -0.1386  0.5636
 3181SOL    HW110121   8.423   3.441   4.015  0.1069 -0.2348  0.8283
 3181SOL    HW210122   8.517   3.328   3.980 -0.8249 -0.8071  0.1473
 3182SOL     OW10123   3.363   1.976   6.560  0.2733 -0.1796  0.3698
 3182SOL    HW110124   3.367   2.064   6.596  0.8007  0.7566 -1.8417
 3182SOL    HW210125   3.371   1.918   6.636  0.6820  1.6618  1.7797
 3183SOL     OW10126   1.553   5.167   1.163  0.1526  0.2074  0.5546
 3183SOL    HW110127   1.580   5.082   1.129 -0.7759 -0.6224  1.7913
 3183SOL    HW210128   1.612   5.184   1.236 -0.2237  0.1999  0.8645
 3184SOL     OW10129   0.123   2.941   7.310  0.0529 -0.6335 -0.1330
 3184SOL    HW110130   0.086   2.878   7.248 -1.6013  1.4645 -1.3894
 3184SOL    HW210131   0.218   2.932   7.298 -0.1265 -2.5808 -0.5168
 3185SOL     OW10132   4.575   5.497   2.752 -0.0805 -0.4729 -0.2530
 3185SOL    HW110133   4.587   5.509   2.658  1.2556  0.2186 -0.0254
 3185SOL    HW210134   4.481   5.506   2.766 -0.1243  1.1285 -1.3176
 3186SOL     OW10135   1.051   1.537   3.511 -0.3071  0.2063  0.2794
 3186SOL    HW110136   1.130   1.592   3.511  0.1985 -0.4926 -0.3705
 3186SOL    HW210137   0.986   1.588   3.559  0.7621  0.4613  1.4900
 3187SOL     OW10138   8.605   0.284   8.200  0.0422 -0.2749 -0.2765
 3187SOL    HW110139   8.670   0.218   8.225 -0.5293  0.0094  2.2584
 3187SOL    HW210140   8.523   0.251   8.239 -0.5027  1.3022 -0.0362
 3188SOL     OW10141   2.990   8.571   5.836  0.1993  0.6830  0.1381
 3188SOL    HW110142   2.957   8.658   5.814  1.0943  1.3368  1.2729
 3188SOL    HW210143   3.079   8.570   5.802 -0.0691 -0.1067 -0.5785
 3189SOL     OW10144   6.597   1.823   3.301 -0.5557  0.3233  0.2968
 3189SOL    HW110145   6.515   1.775   3.287 -0.6267  0.6000 -0.2896
 3189SOL    HW210146   6.665   1.766   3.265 -0.9431  1.9475 -3.5144
 3190SOL     OW10147   5.439   0.972   0.911 -0.0422  0.2910  0.2529
 3190SOL    HW110148   5.393   1.048   0.875 -1.0870  0.9767  2.7495
 3190SOL    HW210149   5.445   0.991   1.005 -1.0497 -3.0080  1.1277
 3191SOL     OW10150   7.535   9.381   4.221 -0.3416  0.2217  0.2675
 3191SOL    HW110151   7.474   9.377   4.295 -1.0088  0.6065 -0.2448
 3191SOL    HW210152   7.616   9.414   4.258 -0.8985  1.1349  0.7060
 3192SOL     OW10153   8.852   0.498   9.451 -0.4442 -0.1238 -0.1131
 3192SOL    HW110154   8.778   0.520   9.393  0.0232 -0.4387 -0.8386
 3192SOL    HW210155   8.847   0.563   9.521 -2.0232 -0.7700  0.4177
 3193SOL     OW10156   4.280   2.014   3.068 -0.0079 -0.1505 -0.6328
 3193SOL    HW110157   4.308   2.084   3.127  0.8590  0.6404 -1.9279
 3193SOL    HW210158   4.185   2.025   3.061  0.3373  2.2537 -2.4261
 3194SOL     OW10159   1.094   7.169   1.988 -0.1146  0.0066  0.0982
 3194SOL    HW110160   1.047   7.125   1.917  1.5178  1.2806 -1.8860
 3194SOL    HW210161   1.171   7.114   2.004  0.2187  0.4259 -0.0575
 3195SOL     OW10162   4.173   5.083   1.854 -0.0317  0.0798  0.3222
 3195SOL    HW110163   4.189   5.061   1.946  1.0089  0.7192  0.3085
 3195SOL    HW210164   4.164   4.998   1.810 -1.4341 -0.2267  1.1447
 3196SOL     OW10165   2.442   8.380   2.984  0.2955 -0.3634 -0.0022
 3196SOL    HW110166   2.513   8.337   3.032 -2.0620 -3.0620  1.3667
 3196SOL    HW210167   2.438   8.334   2.900 -0.8652 -1.4544  0.6165
 3197SOL     OW10168   7.081   1.106   9.311 -0.0437 -0.2783  0.3561
 3197SOL    HW110169   7.124   1.045   9.251 -0.5744 -1.8970  1.5370
 3197SOL    HW210170   7.134   1.101   9.391  0.5371  1.6820  0.1364
 3198SOL     OW10171   9.457   4.883   1.313 -0.4960  0.2442  0.2901
 3198SOL    HW110172   9.532   4.889   1.372 -0.2347  2.4538 -0.1772
 3198SOL    HW210173   9.493   4.905   1.227 -1.3677 -0.3879 -0.2576
 3199SOL     OW10174   3.602   9.127   2.497  0.2009  0.0580 -0.4764
 3199SOL    HW110175   3.599   9.206   2.443 -0.7968  1.0074  0.9272
 3199SOL    HW210176   3.618   9.158   2.586  0.4521 -1.3814  0.0180
 3200SOL     OW10177   4.562   0.715   9.841 -0.2713 -0.2187  0.1400
 3200SOL    HW110178   4.534   0.626   9.863 -2.3689  0.2306 -0.4757
 3200SOL    HW210179   4.587   0.754   9.925 -0.3169 -1.0614  0.5543
 3201SOL     OW10180   9.682   3.465   7.409  0.4228 -0.2966  0.1952
 3201SOL    HW110181   9.678   3.432   7.319 -0.8281  2.5051 -0.8741
 3201SOL    HW210182   9.610   3.422   7.454  0.6153 -1.1813 -0.3125
 3202SOL     OW10183   8.320   0.692   7.847  0.3660  0.4770 -0.0646
 3202SOL    HW110184   8.383   0.691   7.918 -1.5137  0.8755  1.6930
 3202SOL    HW210185   8.265   0.615   7.862  0.5055  0.0341 -1.6505
 3203SOL     OW10186   6.939   0.747   1.896 -0.1566 -0.4521  0.2995
 3203SOL    HW110187   6.884   0.819   1.865 -1.3247 -1.6278 -0.5301
 3203SOL    HW210188   6.897   0.717   1.976 -0.1241 -0.6830  0.2321
 3204SOL     OW10189   9.017   0.776   6.720 -0.5978 -0.2132  0.8003
 3204SOL    HW110190   8.944   0.818   6.766 -1.3197 -1.5886  0.9626
 3204SOL    HW210191   9.093   0.831   6.741 -1.3801  0.6446  1.5033
 3205SOL     OW10192   7.023   8.446   4.041 -0.0300  0.3199 -0.0051
 3205SOL    HW110193   7.101   8.406   4.002  0.6175  1.9007 -0.4216
 3205SOL    HW210194   7.019   8.410   4.129  0.8650 -0.1824 -0.1540
 3206SOL     OW10195   7.516   2.069   2.894  0.7460 -0.2049  0.0175
 3206SOL    HW110196   7.464   2.082   2.974  1.1389  0.2888  0.2006
 3206SOL    HW210197   7.492   2.142   2.837 -0.5817 -1.3276 -0.9005
 3207SOL     OW10198   0.454   5.272   1.092  0.3922 -0.3524  0.7521
 3207SOL    HW110199   0.376   5.324   1.073 -0.7778 -1.7150  1.6852
 3207SOL    HW210200   0.518   5.336   1.124 -1.2097  0.4669  2.4753
 3208SOL     OW10201   4.823   6.076   3.012  0.3359 -0.2910  0.2181
 3208SOL    HW110202   4.822   5.982   3.028 -0.0921 -0.2861  0.2415
 3208SOL    HW210203   4.887   6.089   2.942  0.8407 -0.5299  0.6311
 3209SOL     OW10204   9.097   8.471   1.840  0.1857  0.9053 -0.2197
 3209SOL    HW110205   9.114   8.388   1.885  1.8164  0.0193 -2.3036
 3209SOL    HW210206   9.150   8.535   1.888  0.7959  0.2612 -0.0135
 3210SOL     OW10207   2.605   9.448   8.393 -0.2832 -0.1576 -0.3096
 3210SOL    HW110208   2.577   9.488   8.311 -0.4500  0.9913  0.2847
 3210SOL    HW210209   2.525   9.420   8.435 -0.4112  1.1659  0.3972
 3211SOL     OW10210   9.868   7.745   4.575 -0.0262 -0.3583  0.4174
 3211SOL    HW110211   9.955   7.785   4.574 -0.0966 -0.1628  1.4376
 3211SOL    HW210212   9.868   7.690   4.653 -0.7147 -0.6007  0.2523
 3212SOL     OW10213   8.974   7.699   7.476 -0.5985 -0.6909 -0.3409
 3212SOL    HW110214   9.054   7.741   7.505 -0.1879 -0.3918 -1.8256
 3212SOL    HW210215   9.001   7.612   7.446 -0.7841 -0.5154 -1.0343
 3213SOL     OW10216   5.158   8.234   3.065  0.6006 -0.0829  0.1787
 3213SOL    HW110217   5.220   8.204   2.999 -0.1018 -0.8657 -0.1452
 3213SOL    HW210218   5.190   8.198   3.147  2.4156  2.2513  0.6014
 3214SOL     OW10219   9.836   3.955   4.360 -0.8385 -0.1713  0.1487
 3214SOL    HW110220   9.899   4.009   4.313 -1.5894 -0.1245 -0.8471
 3214SOL    HW210221   9.804   4.011   4.430 -0.1191 -0.0407  0.3853
 3215SOL     OW10222   5.778   4.329   9.498  0.0405 -0.1299 -0.8599
 3215SOL    HW110223   5.733   4.249   9.469 -0.0619 -0.4867  0.2570
 3215SOL    HW210224   5.737   4.351   9.582  0.6546  0.6234 -0.7454
 3216SOL     OW10225   9.169   2.644   8.943  0.2112 -0.0606  0.0273
 3216SOL    HW110226   9.099   2.580   8.959  0.9701 -0.8004  0.4649
 3216SOL    HW210227   9.200   2.624   8.855 -0.5587  0.6954 -0.4234
 3217SOL     OW10228   6.919   6.612   4.544 -0.3297  0.5212  0.5526
 3217SOL    HW110229   6.923   6.546   4.613  0.6223 -0.3234 -0.2857
 3217SOL    HW210230   6.923   6.695   4.591  1.9966 -0.0353  1.4846
 3218SOL     OW10231   1.663   5.735   3.705 -0.4088  0.1764  0.1315
 3218SOL    HW110232   1.737   5.677   3.720  0.3220  0.7188 -1.1539
 3218SOL    HW210233   1.680   5.810   3.761 -0.0888  0.1964  0.0110
 3219SOL     OW10234   0.657   3.132   1.661 -0.0058 -0.1395  0.3110
 3219SOL    HW110235   0.605   3.190   1.606  0.2685  0.9174  1.1310
 3219SOL    HW210236   0.688   3.064   1.601 -2.3807 -0.8663 -0.1751
 3220SOL     OW10237   3.755   4.879   6.979  0.1055 -0.1862 -0.4448
 3220SOL    HW110238   3.684   4.819   6.960  0.8845 -1.2692 -0.0087
 3220SOL    HW210239   3.763   4.933   6.900 -1.6671  0.4690 -0.2177
 3221SOL     OW10240   4.133   1.473   7.033  0.2085  0.0729  0.4392
 3221SOL    HW110241   4.091   1.500   6.951 -1.3127 -1.4050  0.7018
 3221SOL    HW210242   4.090   1.525   7.100 -1.7436 -1.8517  0.7794
 3222SOL     OW10243   8.627   4.929   7.005  0.2573  0.1792  0.3329
 3222SOL    HW110244   8.622   4.838   7.036 -1.2216 -0.3125 -1.2010
 3222SOL    HW210245   8.630   4.981   7.085 -1.2901 -1.1089  1.2923
 3223SOL     OW10246   1.699   2.887   5.947  0.3154 -0.3269  0.9075
 3223SOL    HW110247   1.674   2.805   5.904 -1.7444  0.3064  0.7601
 3223SOL    HW210248   1.663   2.879   6.035  0.1414  0.3778  0.9068
 3224SOL     OW10249   8.933   7.715   7.925 -0.6274  0.2965 -0.0513
 3224SOL    HW110250   9.014   7.766   7.926 -0.5619  0.2460 -1.1688
 3224SOL    HW210251   8.962   7.624   7.925 -0.6162  0.2680 -1.6493
 3225SOL     OW10252   4.586   6.160   1.133  0.3284  0.0772 -0.3294
 3225SOL    HW110253   4.550   6.184   1.048  1.7027  0.4068 -0.8502
 3225SOL    HW210254   4.518   6.183   1.196 -0.3377  0.7017 -1.2593
 3226SOL     OW10255   0.873   8.316   0.203 -0.5708  0.3714  0.0742
 3226SOL    HW110256   0.878   8.363   0.119 -1.3799 -1.2510 -0.9392
 3226SOL    HW210257   0.782   8.323   0.228 -0.0586  2.1815  1.7009
 3227SOL     OW10258   4.785   6.390   5.464 -0.2872  0.7794  0.5780
 3227SOL    HW110259   4.848   6.350   5.404  0.0649  4.1324 -1.5064
 3227SOL    HW210260   4.834   6.399   5.546  1.6426  2.2174 -0.6441
 3228SOL     OW10261   6.167   5.199   6.441  0.2170 -0.4411 -0.4033
 3228SOL    HW110262   6.259   5.179   6.420  1.1976  1.5971  1.4917
 3228SOL    HW210263   6.123   5.114   6.440  2.7299 -1.9071  1.3284
 3229SOL     OW10264   4.841   1.866   0.313  0.0992 -0.0932  0.0320
 3229SOL    HW110265   4.803   1.917   0.242 -0.4247 -0.1556  0.2598
 3229SOL    HW210266   4.799   1.780   0.306  0.3806 -0.2397  0.1399
 3230SOL     OW10267   0.461   4.402   4.889  0.1065  0.0570 -0.0446
 3230SOL    HW110268   0.381   4.426   4.842  0.2191  0.6589  0.0534
 3230SOL    HW210269   0.455   4.450   4.972  0.5138  0.0220  0.0084
 3231SOL     OW10270   0.989   8.137   7.762 -0.3182 -0.3548 -0.4393
 3231SOL    HW110271   0.956   8.113   7.676 -2.0237  0.2098  0.0171
 3231SOL    HW210272   1.044   8.214   7.747  0.7080 -1.2197 -1.2018
 3232SOL     OW10273   1.830   5.166   9.813  0.8647  0.2934 -0.0147
 3232SOL    HW110274   1.788   5.194   9.894 -0.3567 -2.6730  0.4900
 3232SOL    HW210275   1.758   5.148   9.752  1.4575 -1.8426 -0.1885
 3233SOL     OW10276   4.705   8.524   7.286 -0.2861 -0.0464  0.0727
 3233SOL    HW110277   4.749   8.532   7.371  0.4932  0.4844 -0.3651
 3233SOL    HW210278   4.731   8.439   7.253 -0.5927 -0.2551  0.3588
 3234SOL     OW10279   5.171   4.738   8.992  0.3642 -0.3199 -0.1898
 3234SOL    HW110280   5.193   4.765   9.081  1.9586 -3.3318  0.4485
 3234SOL    HW210281   5.081   4.768   8.979  0.0412  0.0748  2.4764
 3235SOL     OW10282   1.875   0.952   1.516 -0.4052 -0.2765  0.0696
 3235SOL    HW110283   1.932   1.029   1.512 -2.3582  1.2026 -1.5876
 3235SOL    HW210284   1.829   0.961   1.599  0.5790 -0.6312  0.6779
 3236SOL     OW10285   8.206   9.778   3.391 -0.2164  0.1474 -0.4727
 3236SOL    HW110286   8.272   9.711   3.407 -1.3708 -0.9791 -0.2931
 3236SOL    HW210287   8.254   9.850   3.349  1.4575  0.1449  1.3282
 3237SOL     OW10288   7.835   7.728   8.033 -0.2847  0.1874  0.2257
 3237SOL    HW110289   7.859   7.641   8.066 -0.5327  0.5927  1.5608
 3237SOL    HW210290   7.919   7.769   8.012 -0.1085 -0.0664  0.4271
 3238SOL     OW10291   1.775   3.547   8.945 -0.3435  0.0429 -0.1047
 3238SOL    HW110292   1.763   3.490   8.869  0.1035  0.7060 -0.6863
 3238SOL    HW210293   1.846   3.507   8.994  0.1615  0.2463 -0.6596
 3239SOL     OW10294   9.362   7.294   2.479 -0.5296  0.1960 -0.2427
 3239SOL    HW110295   9.313   7.286   2.397  0.0100  1.5353 -0.7210
 3239SOL    HW210296   9.445   7.336   2.454 -0.1162  0.1163  0.9037
 3240SOL     OW10297   6.441   9.930   9.368  0.4258  0.2090 -0.3037
 3240SOL    HW110298   6.394  10.013   9.382  0.1295  0.1172 -0.7586
 3240SOL    HW210299   6.382   9.878   9.313  1.0780  0.1066 -0.9104
 3241SOL     OW10300   8.523   7.116   7.882 -0.6963 -0.0920 -0.0590
 3241SOL    HW110301   8.450   7.178   7.869 -1.8575 -1.5217 -0.6198
 3241SOL    HW210302   8.518   7.057   7.807  2.5213  1.1079 -1.3914
 3242SOL     OW10303   3.437   3.029   5.127 -0.2020  0.2781  0.6815
 3242SOL    HW110304   3.495   3.051   5.055  0.0189  1.6743  1.2509
 3242SOL    HW210305   3.373   3.101   5.129 -2.2215 -1.3977 -0.1728
 3243SOL     OW10306   2.452   1.417   3.750 -0.2170  0.2582  0.1658
 3243SOL    HW110307   2.378   1.428   3.810  0.3745 -2.9819  1.7041
 3243SOL    HW210308   2.511   1.357   3.795  2.2424  0.8376 -2.0315
 3244SOL     OW10309   5.107   2.893   4.025 -0.2626 -0.0063 -0.4293
 3244SOL    HW110310   5.097   2.987   4.014  1.8358  0.2174 -0.8196
 3244SOL    HW210311   5.061   2.873   4.106  0.8269  1.6878  0.6543
 3245SOL     OW10312   8.974   6.792   2.705 -0.1626  0.0656  0.2041
 3245SOL    HW110313   8.998   6.720   2.646 -0.0978 -0.0412  0.3632
 3245SOL    HW210314   8.942   6.861   2.646  2.0496  0.8520 -0.1869
 3246SOL     OW10315   0.196   5.929   3.695  0.1098  0.2536  0.0031
 3246SOL    HW110316   0.190   5.959   3.785 -0.0875  1.9469 -0.5432
 3246SOL    HW210317   0.289   5.915   3.680  0.4693  2.6025 -0.3042
 3247SOL     OW10318   9.479   9.910   8.416 -0.2805  0.6204  0.0913
 3247SOL    HW110319   9.462   9.985   8.473 -2.7307 -0.5071  0.9994
 3247SOL    HW210320   9.487   9.947   8.329 -1.1860  1.9792  0.5487
 3248SOL     OW10321   3.170   8.148   6.317  0.2629 -0.4755 -0.0740
 3248SOL    HW110322   3.077   8.132   6.336  0.0559  1.5475  0.8221
 3248SOL    HW210323   3.170   8.199   6.236  0.4373  1.1360  0.8967
 3249SOL     OW10324   5.570   5.581   2.781 -0.3193 -0.2511  0.2531
 3249SOL    HW110325   5.639   5.516   2.789 -1.4880 -1.3398  2.6739
 3249SOL    HW210326   5.503   5.552   2.843 -1.2231  2.8855  0.9017
 3250SOL     OW10327   2.624   2.789   0.185 -0.4180 -0.0247  0.0625
 3250SOL    HW110328   2.552   2.748   0.137 -0.3156  0.5550 -0.6120
 3250SOL    HW210329   2.692   2.802   0.119  0.7279 -1.4904  0.9016
 3251SOL     OW10330   1.481   9.268   8.702 -0.0809  0.1731  0.6213
 3251SOL    HW110331   1.509   9.298   8.615 -0.9466  1.0750  0.6334
 3251SOL    HW210332   1.392   9.302   8.711 -0.2017 -0.3833  1.6481
 3252SOL     OW10333   0.138   3.322   7.478  0.4551 -0.0783 -0.1576
 3252SOL    HW110334   0.153   3.414   7.453 -0.7111 -0.0749 -0.9510
 3252SOL    HW210335   0.169   3.316   7.568  1.0648  0.9550 -0.2815
 3253SOL     OW10336   7.143   0.229   6.804 -0.0961 -0.4683 -0.2657
 3253SOL    HW110337   7.209   0.296   6.787  0.0146 -0.4491  0.2222
 3253SOL    HW210338   7.066   0.257   6.754  0.3944 -0.7198 -1.1899
 3254SOL     OW10339   4.343   6.204   2.480 -0.0829 -0.1243  0.2374
 3254SOL    HW110340   4.314   6.164   2.562 -0.6788 -0.6262 -0.2092
 3254SOL    HW210341   4.356   6.131   2.420  0.2430  0.2448 -0.1558
 3255SOL     OW10342   3.785   0.205   5.197 -0.5265  0.0521 -0.0359
 3255SOL    HW110343   3.789   0.290   5.152 -1.7497  0.0659 -0.1671
 3255SOL    HW210344   3.753   0.144   5.130  1.2891 -0.7539 -0.2248
 3256SOL     OW10345   3.109   8.861   7.963  0.7530 -0.1901 -0.5055
 3256SOL    HW110346   3.140   8.913   8.037 -0.6625 -0.4089  0.2663
 3256SOL    HW210347   3.186   8.810   7.936  1.4044  0.2100  0.5316
 3257SOL     OW10348   1.722   6.830   7.855 -0.5273  0.7547 -0.3989
 3257SOL    HW110349   1.734   6.748   7.903  2.4957  1.6068  0.5301
 3257SOL    HW210350   1.722   6.805   7.763 -3.5195 -0.5967 -0.1527
 3258SOL     OW10351   9.341   3.200   5.781  0.5101  0.8309 -0.0086
 3258SOL    HW110352   9.371   3.160   5.862  2.2896  0.4422 -0.8162
 3258SOL    HW210353   9.401   3.168   5.714  0.3938  2.7890 -1.1316
 3259SOL     OW10354   4.211   6.555   2.078 -0.0749 -0.2682  0.5393
 3259SOL    HW110355   4.177   6.467   2.096 -1.7074  0.0824 -0.5778
 3259SOL    HW210356   4.231   6.591   2.164 -2.6751 -0.5105  1.3408
 3260SOL     OW10357   0.827   4.514   3.326  0.3720 -0.1984 -0.2681
 3260SOL    HW110358   0.816   4.560   3.243 -0.3927  0.9815  0.4602
 3260SOL    HW210359   0.812   4.422   3.304  2.0757 -0.1803 -1.7854
 3261SOL     OW10360   4.738   3.980   9.751 -0.2742  0.2839  0.1199
 3261SOL    HW110361   4.682   4.045   9.709  1.0153  0.9403 -0.6250
 3261SOL    HW210362   4.742   3.908   9.689 -0.5684  0.0859  0.3288
 3262SOL     OW10363   3.477   9.543   1.122 -0.6399  0.1328  0.2675
 3262SOL    HW110364   3.540   9.540   1.193  1.5388 -0.9521 -1.5510
 3262SOL    HW210365   3.525   9.507   1.047 -3.4207 -0.6930 -1.2618
 3263SOL     OW10366   0.342   9.361   3.319  0.4040  0.1768 -0.3774
 3263SOL    HW110367   0.365   9.417   3.244  2.3595 -1.0211 -0.7488
 3263SOL    HW210368   0.333   9.274   3.281 -1.2187 -0.0201  0.4122
 3264SOL     OW10369   8.740   0.141   2.310  0.2109  0.1578 -0.2752
 3264SOL    HW110370   8.687   0.077   2.357  0.0636  1.7305  1.8563
 3264SOL    HW210371   8.826   0.100   2.303 -0.4808 -1.2090 -1.0890
 3265SOL     OW10372   4.706   2.964   8.697 -0.1394  0.4465  0.2509
 3265SOL    HW110373   4.797   2.939   8.711 -0.3482  0.1213  1.0693
 3265SOL    HW210374   4.659   2.924   8.769 -1.1249 -0.4206 -0.8480
 3266SOL     OW10375   1.742   5.997   5.216  0.5304 -0.0982 -0.2839
 3266SOL    HW110376   1.664   6.009   5.163  0.3977  1.0495  0.1614
 3266SOL    HW210377   1.768   5.906   5.199  0.5683  0.2543 -2.3926
 3267SOL     OW10378   8.258   2.686   3.401  0.2500  0.3482  0.2829
 3267SOL    HW110379   8.221   2.627   3.466 -1.4840 -1.1205 -1.8744
 3267SOL    HW210380   8.253   2.773   3.441 -3.6375 -0.0373  1.0657
 3268SOL     OW10381   4.970   1.651   0.121  0.2550 -0.1946 -0.4587
 3268SOL    HW110382   4.887   1.687   0.151  0.5248  0.4788 -0.5010
 3268SOL    HW210383   4.947   1.567   0.082 -0.2805 -0.4174  0.3346
 3269SOL     OW10384   8.308   2.363   2.127  0.4456  0.1102  0.7224
 3269SOL    HW110385   8.293   2.455   2.152  2.5743  0.5519  0.6249
 3269SOL    HW210386   8.400   2.361   2.102 -0.1430 -1.5737 -1.5944
 3270SOL     OW10387   6.223   0.361   5.787 -0.3003 -0.4242 -0.1210
 3270SOL    HW110388   6.206   0.455   5.800  0.5260 -0.3910  0.9572
 3270SOL    HW210389   6.178   0.319   5.860  0.4823 -0.7254  0.1951
 3271SOL     OW10390   1.353   1.798   1.396 -0.2185 -0.2915 -0.7383
 3271SOL    HW110391   1.359   1.864   1.465  1.0857 -2.2885  1.2018
 3271SOL    HW210392   1.259   1.784   1.383 -0.4969  1.3005 -0.6051
 3272SOL     OW10393   2.467   3.743   1.010 -0.2382 -0.5426 -0.8729
 3272SOL    HW110394   2.533   3.786   0.955 -0.0796  0.2008 -0.1360
 3272SOL    HW210395   2.514   3.669   1.049  0.1469 -0.0835 -0.4417
 3273SOL     OW10396   3.333   8.883   0.668 -0.8860 -0.2447  0.6173
 3273SOL    HW110397   3.322   8.904   0.575 -0.5790 -2.6508 -0.0263
 3273SOL    HW210398   3.255   8.919   0.710 -1.0276  0.8965 -0.5382
 3274SOL     OW10399   8.322   8.978   2.619  0.1059  0.0765  0.1365
 3274SOL    HW110400   8.235   8.990   2.580  0.7086 -0.8049 -1.6169
 3274SOL    HW210401   8.358   9.066   2.625  0.0299  0.2696 -1.5507
 3275SOL     OW10402   8.798   9.563   2.022  0.0406  0.0198 -0.2858
 3275SOL    HW110403   8.703   9.549   2.025  0.1169 -0.3988  0.5219
 3275SOL    HW210404   8.817   9.616   2.099  0.4574  0.1254 -0.4575
 3276SOL     OW10405   4.571   2.896   5.087  0.0513 -0.1425 -0.7178
 3276SOL    HW110406   4.560   2.801   5.093 -1.7135  0.0579 -0.0094
 3276SOL    HW210407   4.552   2.928   5.175 -0.8415  0.9718 -1.2908
 3277SOL     OW10408   2.051   7.762   1.652  0.1493  0.2390 -0.5874
 3277SOL    HW110409   2.140   7.798   1.647  0.0767  0.2889 -1.7107
 3277SOL    HW210410   2.010   7.810   1.724  0.9727  0.3541 -0.1846
 3278SOL     OW10411   5.535   0.403   6.933 -0.0706 -0.1331  0.2688
 3278SOL    HW110412   5.446   0.375   6.912  0.4339 -1.2915 -0.4333
 3278SOL    HW210413   5.560   0.349   7.009  0.7755 -1.3987 -0.8608
 3279SOL     OW10414   6.170   3.892   0.162  0.1643 -0.0881 -0.6384
 3279SOL    HW110415   6.089   3.917   0.117  0.2996 -2.0272 -2.0621
 3279SOL    HW210416   6.142   3.834   0.232  0.1865  0.9482  0.2707
 3280SOL     OW10417   0.427   3.521   1.744 -0.7162  0.6651  0.4360
 3280SOL    HW110418   0.507   3.496   1.697 -0.7796  0.9010  0.1983
 3280SOL    HW210419   0.417   3.615   1.725 -0.6875  0.7837  1.0046
 3281SOL     OW10420   3.265   2.377   5.053  0.1444 -0.3850  0.1762
 3281SOL    HW110421   3.213   2.303   5.021 -0.7744  0.1972  0.2913
 3281SOL    HW210422   3.277   2.360   5.147 -0.2850 -0.2618  0.2534
 3282SOL     OW10423   8.205   6.987   5.114  0.2233 -0.0556 -0.4761
 3282SOL    HW110424   8.112   6.979   5.095 -0.0949 -0.9852  1.2597
 3282SOL    HW210425   8.223   7.081   5.107 -1.6499  0.6530  2.3703
 3283SOL     OW10426   1.272   3.122   6.909  0.1108  0.1766 -0.5159
 3283SOL    HW110427   1.206   3.170   6.859 -0.7400  0.3225  0.7057
 3283SOL    HW210428   1.300   3.183   6.976  0.3522 -0.4174 -0.0702
 3284SOL     OW10429   9.046   1.273   7.727 -0.2082  0.2979 -0.0100
 3284SOL    HW110430   8.962   1.293   7.770  0.5007 -0.0624  1.6000
 3284SOL    HW210431   9.025   1.202   7.666 -1.4151  1.4177 -0.9545
 3285SOL     OW10432   3.493   9.486   3.944  0.3256 -0.0729  0.2656
 3285SOL    HW110433   3.542   9.499   4.025  1.3558  0.5658 -0.4213
 3285SOL    HW210434   3.507   9.394   3.922  0.4177 -0.1337  0.5742
 3286SOL     OW10435   9.451   8.436   7.648  0.3270  0.0813 -0.4052
 3286SOL    HW110436   9.424   8.385   7.571  1.6228  0.4984 -1.1712
 3286SOL    HW210437   9.532   8.393   7.677 -0.4202 -0.4024  1.0838
 3287SOL     OW10438   0.073   1.291   5.782 -0.1989  0.0852 -0.1630
 3287SOL    HW110439  -0.017   1.261   5.770  0.2259 -0.6176 -1.8134
 3287SOL    HW210440   0.070   1.384   5.761 -0.8112  0.4538  1.3745
 3288SOL     OW10441   9.695   8.703   5.646  0.0676 -0.5348 -0.0747
 3288SOL    HW110442   9.621   8.642   5.641  0.9748 -1.5856 -1.2691
 3288SOL    HW210443   9.772   8.648   5.631  1.1810  0.4127  1.7770
 3289SOL     OW10444   4.737   6.569   4.474  1.2227  0.1262 -0.0081
 3289SOL    HW110445   4.764   6.502   4.411 -1.3991 -0.9506 -0.0912
 3289SOL    HW210446   4.699   6.639   4.421 -0.6394 -0.6152  0.2732
 3290SOL     OW10447   1.976   7.266   5.298 -0.0357 -0.8103  0.4414
 3290SOL    HW110448   1.971   7.357   5.271 -0.8031 -1.1753 -0.6979
 3290SOL    HW210449   1.906   7.257   5.364 -1.3941 -1.0602 -0.9799
 3291SOL     OW10450   4.222   7.816   2.454  0.0621  0.1081  0.6018
 3291SOL    HW110451   4.175   7.770   2.385 -1.1817  4.1924 -1.5549
 3291SOL    HW210452   4.312   7.783   2.448 -0.5281 -1.3111 -1.3901
 3292SOL     OW10453   2.360   4.094   7.131  0.1123 -0.5677  0.7589
 3292SOL    HW110454   2.287   4.073   7.189 -0.4871 -0.8905 -0.0828
 3292SOL    HW210455   2.389   4.181   7.159 -1.2791  0.0246  0.4654
 3293SOL     OW10456   8.119   5.906   2.804 -0.0437 -0.0313  0.5732
 3293SOL    HW110457   8.132   5.991   2.847 -0.2844  0.1655  0.2654
 3293SOL    HW210458   8.203   5.862   2.811  0.4366  0.7202 -0.3146
 3294SOL     OW10459   4.701   7.169   9.735  0.0108 -0.1248  0.2643
 3294SOL    HW110460   4.626   7.206   9.780 -0.6996 -0.6987 -0.4311
 3294SOL    HW210461   4.731   7.238   9.676 -0.1600 -0.0065  0.3177
 3295SOL     OW10462   8.152   8.308   2.735  0.4103  0.3734  0.3611
 3295SOL    HW110463   8.151   8.378   2.800  1.1741 -0.4025  1.2408
 3295SOL    HW210464   8.225   8.252   2.762 -1.0852 -1.5740  0.5516
 3296SOL     OW10465   9.599   1.293   7.613 -0.0778 -0.2722  0.1040
 3296SOL    HW110466   9.553   1.275   7.695  1.3518  1.6295  1.4183
 3296SOL    HW210467   9.531   1.327   7.555 -0.7527  0.3366  1.2129
 3297SOL     OW10468   0.803   5.588   7.043  0.4122  0.3709  0.5610
 3297SOL    HW110469   0.823   5.676   7.075  0.4460  0.1357  1.2037
 3297SOL    HW210470   0.711   5.575   7.066  0.1414  0.5831 -0.3580
 3298SOL     OW10471   0.601   4.957   7.660  0.1604 -0.4605  0.3749
 3298SOL    HW110472   0.580   5.016   7.732 -1.0977  1.0136 -1.1072
 3298SOL    HW210473   0.583   4.869   7.694 -0.2291  0.1832  1.8858
 3299SOL     OW10474   5.143   9.720   2.809 -0.0645  0.6537 -0.2995
 3299SOL    HW110475   5.190   9.793   2.850 -0.8444  0.5877  0.7461
 3299SOL    HW210476   5.115   9.665   2.882  0.8139 -0.9117 -1.0883
 3300SOL     OW10477   5.845   5.734   1.674  0.5125  0.2939 -0.0173
 3300SOL    HW110478   5.830   5.645   1.707  1.3380 -0.3271 -1.2278
 3300SOL    HW210479   5.823   5.729   1.581  0.2649  1.4423 -0.0314
 3301SOL     OW10480   3.953   3.582   4.875 -0.0275 -0.1240 -0.0999
 3301SOL    HW110481   3.966   3.512   4.810  1.0033 -0.6302  0.6235
 3301SOL    HW210482   3.904   3.649   4.828 -1.1671 -1.3708 -0.7960
 3302SOL     OW10483   2.815   6.154   7.907 -0.2418 -0.0360 -0.5149
 3302SOL    HW110484   2.896   6.131   7.862  0.7535  1.7192  0.3088
 3302SOL    HW210485   2.746   6.119   7.851  0.9953  0.5960 -2.5084
 3303SOL     OW10486   4.381   9.089   6.822 -0.2705  0.5610  0.3400
 3303SOL    HW110487   4.333   9.147   6.881 -1.2883  0.1123 -0.0397
 3303SOL    HW210488   4.412   9.018   6.878 -2.1198 -0.4145  0.1953
 3304SOL     OW10489   2.944   2.615   8.663  0.0493 -0.5091  0.2139
 3304SOL    HW110490   3.035   2.628   8.688 -0.4370  1.6262  1.0813
 3304SOL    HW210491   2.898   2.601   8.745 -0.5854 -0.3445 -0.1024
 3305SOL     OW10492   5.054   4.856   7.396 -0.3672  0.0864 -0.1114
 3305SOL    HW110493   5.050   4.947   7.423  1.1834 -0.1383  1.0287
 3305SOL    HW210494   4.993   4.811   7.455 -0.5055  0.2573 -0.1219
 3306SOL     OW10495   4.358   7.445   3.327 -0.1921 -0.1985 -0.5979
 3306SOL    HW110496   4.309   7.503   3.268  1.3084 -1.3557 -3.1024
 3306SOL    HW210497   4.321   7.358   3.312 -0.5401 -0.3943  1.0846
 3307SOL     OW10498   9.836   5.599   6.404  0.7470  0.1375 -0.0790
 3307SOL    HW110499   9.877   5.675   6.445 -0.5490  0.7291  0.2028
 3307SOL    HW210500   9.843   5.616   6.310  0.3703  0.6836 -0.0178
 3308SOL     OW10501   4.286   1.806   2.103  0.1845 -0.3293 -0.5235
 3308SOL    HW110502   4.358   1.754   2.140 -0.9763  0.2942  2.8891
 3308SOL    HW210503   4.320   1.895   2.101  0.3282 -0.3870 -1.3743
 3309SOL     OW10504   8.909   7.893   0.313  0.3282 -0.1273 -0.0682
 3309SOL    HW110505   8.944   7.810   0.346 -0.2898 -0.4571 -0.2166
 3309SOL    HW210506   8.979   7.929   0.259  0.2852 -1.0038 -0.7493
 3310SOL     OW10507   8.716   8.629   2.964  0.3863  1.0923 -0.4295
 3310SOL    HW110508   8.655   8.557   2.982  2.5083 -1.3279 -2.1578
 3310SOL    HW210509   8.780   8.624   3.035  1.2468  0.3917 -1.2350
 3311SOL     OW10510   2.782   9.889   3.780 -0.7335  0.3444 -0.2730
 3311SOL    HW110511   2.800   9.962   3.720 -0.7794  1.1890  0.7186
 3311SOL    HW210512   2.810   9.812   3.732  0.9808  1.1635 -0.6882
 3312SOL     OW10513   5.664   9.054   0.508 -0.3283 -0.1034  0.3236
 3312SOL    HW110514   5.737   8.993   0.507  0.4244  0.7512  0.9035
 3312SOL    HW210515   5.704   9.139   0.529 -0.9525  1.0985 -2.8545
 3313SOL     OW10516   4.639   7.319   7.950 -0.2260  0.5773  0.0935
 3313SOL    HW110517   4.726   7.342   7.918  0.6935 -1.9967  0.5301
 3313SOL    HW210518   4.596   7.278   7.875 -1.3104  2.2338 -0.2599
 3314SOL     OW10519   2.570   7.698   8.053  0.3016 -0.5306  0.5196
 3314SOL    HW110520   2.588   7.755   8.127  1.7359  0.2954 -0.4012
 3314SOL    HW210521   2.646   7.709   7.995 -0.0656 -2.2627 -0.3847
 3315SOL     OW10522   6.118   7.234   3.079 -0.4045 -0.2907 -0.0124
 3315SOL    HW110523   6.077   7.174   3.141 -0.1966  0.5042  0.9157
 3315SOL    HW210524   6.201   7.258   3.120 -0.7847  1.1551 -0.0248
 3316SOL     OW10525   1.099   5.072   2.811  0.3719  0.0904 -0.3107
 3316SOL    HW110526   1.080   5.057   2.904 -0.7491 -0.0201 -0.5401
 3316SOL    HW210527   1.100   5.167   2.802  1.4424  0.1230 -0.0173
 3317SOL     OW10528   3.718   4.810   3.864  0.1988  0.1152 -0.0170
 3317SOL    HW110529   3.764   4.844   3.941  0.6102  1.2720 -0.7493
 3317SOL    HW210530   3.787   4.794   3.800 -0.2836  0.6888 -0.6933
 3318SOL     OW10531   1.485   0.102   1.292  0.0843  0.3322 -0.1326
 3318SOL    HW110532   1.487   0.021   1.241  0.3754 -0.2911  0.8372
 3318SOL    HW210533   1.570   0.104   1.337  0.2550  1.4025 -0.4770
 3319SOL     OW10534   5.349   8.024   7.053  0.4216 -0.0917 -0.2240
 3319SOL    HW110535   5.366   8.118   7.053  1.0374 -0.0542  3.4092
 3319SOL    HW210536   5.254   8.017   7.054  0.3061  0.3339 -2.6478
 3320SOL     OW10537   1.100   9.112   6.507 -0.1286  0.0154  0.3499
 3320SOL    HW110538   1.170   9.085   6.448  0.5374  2.6126 -0.1553
 3320SOL    HW210539   1.140   9.174   6.567 -1.8798  1.2249  0.3462
 3321SOL     OW10540   2.829   9.028   4.889 -0.4365 -0.8564  0.2786
 3321SOL    HW110541   2.867   9.082   4.819  3.3067 -1.5618  1.5370
 3321SOL    HW210542   2.837   8.938   4.858 -2.7720 -1.0247 -0.0535
 3322SOL     OW10543   9.742   2.655   7.131 -0.2532  0.2125 -0.5705
 3322SOL    HW110544   9.678   2.726   7.125  1.1996  1.6944  0.7399
 3322SOL    HW210545   9.732   2.622   7.221 -0.3541 -0.7301 -0.9133
 3323SOL     OW10546   4.587   1.359   3.429  0.3761 -0.1132 -0.0433
 3323SOL    HW110547   4.553   1.274   3.400  1.6894 -0.1668 -1.5758
 3323SOL    HW210548   4.538   1.424   3.379 -0.1131  0.0168  0.5878
 3324SOL     OW10549   2.056   7.044   4.225  0.6516 -0.2188 -0.0057
 3324SOL    HW110550   2.089   7.111   4.166  1.6772 -0.3109  0.4464
 3324SOL    HW210551   2.055   7.086   4.311 -1.7225  0.2289 -0.1784
 3325SOL     OW10552   6.866   4.057   2.066 -0.2617 -0.6880 -0.5038
 3325SOL    HW110553   6.892   3.965   2.064 -1.4263 -1.0311 -1.4473
 3325SOL    HW210554   6.785   4.057   2.117  1.0931  0.2447  1.7967
 3326SOL     OW10555   8.710   5.279   6.519 -0.4319 -0.8572 -0.2723
 3326SOL    HW110556   8.730   5.319   6.434 -2.7875 -0.1612 -0.5732
 3326SOL    HW210557   8.632   5.226   6.502  0.7442 -3.0745  0.8463
 3327SOL     OW10558   3.349   5.121   4.499 -0.0358  1.0375  0.4934
 3327SOL    HW110559   3.374   5.198   4.551  1.6064 -0.0183  1.3471
 3327SOL    HW210560   3.336   5.052   4.564  1.7404 -0.2292 -0.4253
 3328SOL     OW10561   3.152   1.715   7.140 -1.0543 -0.3288 -0.9788
 3328SOL    HW110562   3.177   1.775   7.070 -0.4836 -0.5929 -1.0082
 3328SOL    HW210563   3.231   1.663   7.156 -1.9671 -2.1232 -1.9941
 3329SOL     OW10564   3.225   0.461   4.036 -0.2207 -0.5417 -0.2092
 3329SOL    HW110565   3.193   0.494   4.120 -1.4766 -0.0600 -0.8425
 3329SOL    HW210566   3.237   0.539   3.982 -0.1181 -0.8897 -0.6981
 3330SOL     OW10567   5.003   8.237   3.416 -0.1978  0.3477 -0.4853
 3330SOL    HW110568   5.050   8.309   3.458  0.1551 -0.4035  0.4676
 3330SOL    HW210569   4.990   8.173   3.487 -1.8457  0.1277 -0.9401
 3331SOL     OW10570   2.061   7.029   8.222 -0.0239  0.3479  0.0774
 3331SOL    HW110571   2.016   7.032   8.306 -0.0565 -0.6453  0.1011
 3331SOL    HW210572   1.995   6.996   8.161  0.5638 -0.8532  0.0615
 3332SOL     OW10573   4.857   3.318   9.451 -0.3047 -0.1331 -0.0402
 3332SOL    HW110574   4.818   3.279   9.529 -1.8567 -2.4074 -1.8040
 3332SOL    HW210575   4.951   3.315   9.468 -0.6028  2.4652  2.9859
 3333SOL     OW10576   0.520   9.725   4.435 -0.5686 -0.0850  0.1741
 3333SOL    HW110577   0.551   9.707   4.346 -1.8699 -1.9114  0.0450
 3333SOL    HW210578   0.532   9.642   4.482 -1.3876  0.3886  1.2701
 3334SOL     OW10579   2.663   3.890   1.568 -0.5591  0.2347  0.5271
 3334SOL    HW110580   2.697   3.801   1.576 -1.0854  0.1351  1.8630
 3334SOL    HW210581   2.646   3.918   1.658  1.8005  2.5951  0.3458
 3335SOL     OW10582   7.668   6.679   6.024  0.2258  0.0496  0.6878
 3335SOL    HW110583   7.604   6.657   6.092 -0.0648 -0.4339  0.2684
 3335SOL    HW210584   7.631   6.641   5.944  0.5848  0.5710  0.2674
 3336SOL     OW10585   0.333   5.582   8.774 -0.6454 -0.0565  0.0779
 3336SOL    HW110586   0.380   5.666   8.778 -0.0868 -0.3716  0.3039
 3336SOL    HW210587   0.403   5.516   8.777 -1.1511 -0.5502  1.3875
 3337SOL     OW10588   2.423   3.749   3.413 -0.3355 -0.3274  0.1333
 3337SOL    HW110589   2.511   3.754   3.449  1.1746 -0.1192 -3.2330
 3337SOL    HW210590   2.403   3.839   3.386 -1.9744 -0.2200  1.5234
 3338SOL     OW10591   6.514   2.563   8.522  0.4493  0.0110 -0.4166
 3338SOL    HW110592   6.586   2.521   8.569 -0.0074 -1.8920 -1.3309
 3338SOL    HW210593   6.527   2.538   8.430 -2.3479 -1.9829 -0.3948
 3339SOL     OW10594   8.788   4.703   4.850  0.6827 -0.0740  0.0376
 3339SOL    HW110595   8.847   4.749   4.909  1.6529 -0.1627 -0.8364
 3339SOL    HW210596   8.787   4.757   4.771  0.4534 -0.6442 -0.3532
 3340SOL     OW10597   7.475   5.989   4.742 -0.0990  0.0686 -0.3030
 3340SOL    HW110598   7.405   5.925   4.755  0.2085 -0.3154 -0.5007
 3340SOL    HW210599   7.554   5.944   4.773  0.0384  0.5447  0.0398
 3341SOL     OW10600   6.683   9.350   2.639  0.5986 -0.0763  0.7161
 3341SOL    HW110601   6.620   9.375   2.572  0.8597 -0.4421  0.3327
 3341SOL    HW210602   6.694   9.255   2.629  1.1061 -0.0404  0.8615
 3342SOL     OW10603   3.893   4.146   3.118  0.3210  0.6022  0.0095
 3342SOL    HW110604   3.975   4.152   3.070  0.4716 -1.7595 -0.1172
 3342SOL    HW210605   3.826   4.166   3.052  0.7157  1.4859 -0.1396
 3343SOL     OW10606   6.690   9.603   9.418 -0.2311  0.2671 -0.6761
 3343SOL    HW110607   6.671   9.686   9.462  0.0031  0.1489 -0.3485
 3343SOL    HW210608   6.688   9.538   9.488 -1.8904 -0.2281 -1.1373
 3344SOL     OW10609   3.831   8.606   2.565  0.5802 -0.2054  0.2502
 3344SOL    HW110610   3.812   8.514   2.547 -0.4975 -0.3366  1.8286
 3344SOL    HW210611   3.891   8.604   2.639 -0.6624  0.3387  1.3188
 3345SOL     OW10612   2.733   6.319   1.159 -0.1472  0.6026  0.1194
 3345SOL    HW110613   2.652   6.356   1.122 -1.0487 -0.1309  1.3035
 3345SOL    HW210614   2.706   6.281   1.242  1.3410 -0.1040  0.3026
 3346SOL     OW10615   9.275   2.107   0.052  0.1109  0.6261  0.2309
 3346SOL    HW110616   9.338   2.092  -0.019  1.3615  1.2524  1.1749
 3346SOL    HW210617   9.190   2.086   0.013  1.0476 -2.4084 -0.4688
 3347SOL     OW10618   7.979   0.065   4.947 -0.4294  0.2543  0.0411
 3347SOL    HW110619   7.960  -0.017   4.902  0.5698 -0.4165  0.8123
 3347SOL    HW210620   7.909   0.124   4.919 -0.6391 -0.5653 -1.2646
 3348SOL     OW10621   4.804   9.753   5.059 -0.2343  0.4758 -0.2329
 3348SOL    HW110622   4.759   9.734   5.142  0.9669 -1.0616  0.1156
 3348SOL    HW210623   4.897   9.739   5.078  0.0302 -0.4375 -1.9523
 3349SOL     OW10624   5.393   1.869   3.707  0.1189 -0.4704  0.3318
 3349SOL    HW110625   5.392   1.962   3.732 -2.5821 -0.4698  0.5277
 3349SOL    HW210626   5.348   1.867   3.622  1.2540 -1.4921 -0.2729
 3350SOL     OW10627   9.488   7.562   0.279 -1.0957 -0.3544  0.3105
 3350SOL    HW110628   9.436   7.560   0.359 -1.6902  1.7022  0.0332
 3350SOL    HW210629   9.507   7.655   0.264 -1.2045 -0.6318 -2.0393
 3351SOL     OW10630   3.506   0.551   5.117 -0.5379 -0.2560  0.1572
 3351SOL    HW110631   3.494   0.568   5.211  2.1075 -0.4701  0.6020
 3351SOL    HW210632   3.458   0.470   5.101 -1.2653 -0.0591  1.2383
 3352SOL     OW10633   4.292   1.849   3.641  0.2394  0.4372 -0.0620
 3352SOL    HW110634   4.232   1.867   3.568  0.7867  1.6314 -0.2429
 3352SOL    HW210635   4.371   1.899   3.621  1.0712 -0.6046  0.4957
 3353SOL     OW10636   3.636   5.020   2.504  0.1639 -0.1279 -0.0812
 3353SOL    HW110637   3.622   4.930   2.476  0.9340 -0.6411  1.0832
 3353SOL    HW210638   3.711   5.050   2.454  0.8539 -0.6676  0.6004
 3354SOL     OW10639   5.702   2.462   7.431 -0.2841 -0.6924 -0.1500
 3354SOL    HW110640   5.650   2.383   7.442 -0.6212 -0.3022  1.3150
 3354SOL    HW210641   5.688   2.488   7.340 -1.1611 -1.6236 -0.2938
 3355SOL     OW10642   2.431   6.699   6.649 -0.2053 -0.0907 -0.5569
 3355SOL    HW110643   2.489   6.774   6.658  0.7528 -0.9187  0.4398
 3355SOL    HW210644   2.421   6.687   6.555 -0.0488  1.0231 -0.7289
 3356SOL     OW10645   2.419   3.725   4.900 -0.5018  0.2336 -0.9704
 3356SOL    HW110646   2.376   3.685   4.824 -0.5852  0.5791 -1.1077
 3356SOL    HW210647   2.493   3.773   4.863  1.5354 -2.3198 -0.5441
 3357SOL     OW10648   8.494   8.501   4.439  0.1872  0.1042  0.0393
 3357SOL    HW110649   8.529   8.416   4.415  0.0847  0.4388 -1.4041
 3357SOL    HW210650   8.568   8.547   4.481  0.0355 -0.9210  1.4876
 3358SOL     OW10651   2.831   1.005   0.879 -0.1465  0.1315  0.0747
 3358SOL    HW110652   2.885   0.965   0.946 -0.3886  0.3566  0.4042
 3358SOL    HW210653   2.879   1.084   0.853  0.6667 -0.6844 -1.0489
 3359SOL     OW10654   7.775   3.444   0.746 -0.0841 -0.4286  0.3583
 3359SOL    HW110655   7.844   3.509   0.755 -1.4265  0.8868  1.6439
 3359SOL    HW210656   7.795   3.379   0.814 -0.8414  0.6890  1.6978
 3360SOL     OW10657   4.861   7.357   2.499 -0.5627  0.0101 -0.2909
 3360SOL    HW110658   4.807   7.387   2.425  0.3749 -2.0637 -1.9186
 3360SOL    HW210659   4.837   7.265   2.510  1.8740 -0.7029 -0.4283
 3361SOL     OW10660   1.612   6.175   4.132 -0.3048 -0.4391  0.2483
 3361SOL    HW110661   1.554   6.173   4.056 -0.3042  0.1768  0.2241
 3361SOL    HW210662   1.588   6.256   4.178 -0.8714 -1.2301  1.3618
 3362SOL     OW10663   6.053   6.386   5.099 -0.2320 -0.4570  0.4688
 3362SOL    HW110664   6.101   6.440   5.037 -1.4199 -1.7634 -1.7466
 3362SOL    HW210665   6.097   6.301   5.096 -1.1127 -0.9174  0.4030
 3363SOL     OW10666   9.711   8.941   9.766 -0.3941  0.3418 -0.1952
 3363SOL    HW110667   9.648   8.876   9.798 -0.9050  0.3981 -1.0584
 3363SOL    HW210668   9.777   8.946   9.835 -0.1430 -1.3614 -0.2738
 3364SOL     OW10669   6.762   3.194   0.605  0.1346  0.4918  0.5710
 3364SOL    HW110670   6.691   3.176   0.668 -2.3370 -0.9267 -2.3453
 3364SOL    HW210671   6.812   3.113   0.603 -0.0641  0.3703  0.4166
 3365SOL     OW10672   4.054   9.247   0.749 -0.2168  0.0195  0.0632
 3365SOL    HW110673   4.148   9.232   0.734 -0.4905 -1.1469 -0.5964
 3365SOL    HW210674   4.011   9.172   0.709 -1.5317  1.1398 -0.7357
 3366SOL     OW10675   4.566   5.050   8.980 -0.0121  0.2829 -0.7470
 3366SOL    HW110676   4.526   5.018   9.061 -0.5760 -0.4057 -1.2876
 3366SOL    HW210677   4.493   5.060   8.919  0.2847  1.7209 -0.8874
 3367SOL     OW10678   7.874   1.960   3.440 -0.6133 -0.1474  0.0040
 3367SOL    HW110679   7.805   1.960   3.373 -0.4243  0.7078 -0.2024
 3367SOL    HW210680   7.849   2.030   3.500 -0.1970 -0.1849  0.2255
 3368SOL     OW10681   2.598   8.531   6.041  0.0105  0.0834  0.2849
 3368SOL    HW110682   2.600   8.574   6.127  0.2949 -0.4900  0.5646
 3368SOL    HW210683   2.555   8.447   6.057  1.5920 -0.7714  0.2071
 3369SOL     OW10684   4.304   2.282   7.946 -0.4157  0.1454 -0.3413
 3369SOL    HW110685   4.354   2.306   7.868 -0.1940  0.4318 -0.1145
 3369SOL    HW210686   4.246   2.356   7.961 -0.9597 -0.2147 -0.6412
 3370SOL     OW10687   2.105   8.342   1.631  0.0292 -0.9380  0.0703
 3370SOL    HW110688   2.080   8.323   1.540  1.3162 -0.2727 -0.4462
 3370SOL    HW210689   2.175   8.407   1.623 -1.1086  0.5211  1.6267
 3371SOL     OW10690   0.243   0.275   7.278 -0.0416 -0.2307  0.0324
 3371SOL    HW110691   0.299   0.282   7.356  1.0209 -0.6232 -0.6816
 3371SOL    HW210692   0.172   0.216   7.305 -1.0840  1.5815  1.4816
 3372SOL     OW10693   1.148   0.379   1.565 -0.2367 -0.2537  0.4371
 3372SOL    HW110694   1.067   0.350   1.524  1.3236 -3.4085 -0.7669
 3372SOL    HW210695   1.170   0.309   1.627  0.6268  1.4795  2.1898
 3373SOL     OW10696   8.577   3.903   2.624 -0.3145  0.1307  0.2781
 3373SOL    HW110697   8.513   3.847   2.668  2.3706 -3.2732  0.3452
 3373SOL    HW210698   8.624   3.946   2.696 -1.3565  1.2710  0.2967
 3374SOL     OW10699   8.137   8.402   7.043  0.3409  0.3743  0.0867
 3374SOL    HW110700   8.088   8.320   7.038  0.1108  0.5408 -0.5505
 3374SOL    HW210701   8.173   8.404   7.131 -0.5789  0.1158  0.4761
 3375SOL     OW10702   9.357   5.250   1.745  0.0286  0.8699  0.0750
 3375SOL    HW110703   9.286   5.313   1.756  0.9222  2.0493 -0.6064
 3375SOL    HW210704   9.313   5.166   1.730 -1.2201  1.6117 -0.5865
 3376SOL     OW10705   2.298   6.371   5.896  0.2288  0.0723 -0.2195
 3376SOL    HW110706   2.383   6.368   5.853  0.5765 -0.9124  0.4801
 3376SOL    HW210707   2.276   6.464   5.899  2.3559  0.6258  1.5693
 3377SOL     OW10708   0.806   8.917   9.047  0.4159  0.4869 -0.2766
 3377SOL    HW110709   0.901   8.911   9.032  0.1762  0.2241 -1.7699
 3377SOL    HW210710   0.769   8.844   8.998 -0.6961  1.5374 -1.0574
 3378SOL     OW10711   1.988   2.988   9.863  0.1284  0.1191  0.0503
 3378SOL    HW110712   2.006   2.948   9.778 -0.1696  1.2995 -0.5848
 3378SOL    HW210713   1.944   2.919   9.913 -0.5701 -0.2888 -1.0914
 3379SOL     OW10714   5.974   9.069   7.677  0.0181  0.0813  0.4231
 3379SOL    HW110715   5.961   9.158   7.709 -1.9386  0.0374 -0.1223
 3379SOL    HW210716   5.931   9.014   7.743  0.5937 -0.4138  0.3910
 3380SOL     OW10717   8.037   6.069   9.780  0.9621 -0.5013 -0.0841
 3380SOL    HW110718   8.027   5.990   9.834 -0.4151  0.2351  0.7706
 3380SOL    HW210719   7.978   6.133   9.820 -1.5570 -0.4459 -3.4878
 3381SOL     OW10720   4.166   6.633   7.128 -0.2137  0.0257 -0.2275
 3381SOL    HW110721   4.245   6.666   7.170  0.4589 -1.1713 -0.5112
 3381SOL    HW210722   4.115   6.593   7.198  0.0472 -0.3592 -0.2593
 3382SOL     OW10723   3.822   2.211   5.129 -0.2645 -0.5304  0.0775
 3382SOL    HW110724   3.892   2.173   5.182  0.4547  0.2202 -0.3018
 3382SOL    HW210725   3.868   2.254   5.056 -1.1557 -0.5209 -0.5028
 3383SOL     OW10726   1.505   7.286   1.781  0.1827  0.2851 -0.6388
 3383SOL    HW110727   1.538   7.335   1.855 -0.0771  0.0857 -0.3888
 3383SOL    HW210728   1.583   7.248   1.740  0.1697 -1.8710  1.1220
 3384SOL     OW10729   4.586   7.906   2.879  0.0663 -0.7226 -0.3785
 3384SOL    HW110730   4.518   7.930   2.942 -0.0275 -0.5185 -0.5556
 3384SOL    HW210731   4.654   7.864   2.932  1.2603  1.8866  0.3112
 3385SOL     OW10732   7.244   7.657   9.043 -0.1951 -0.0340 -0.2635
 3385SOL    HW110733   7.177   7.650   8.975  0.1920  1.0102 -0.7827
 3385SOL    HW210734   7.326   7.635   9.000  0.5616  3.6428 -1.1046
 3386SOL     OW10735   9.922   4.712   9.680 -0.5502  0.1505 -0.1269
 3386SOL    HW110736  10.009   4.718   9.641 -1.0632  0.6951 -1.2320
 3386SOL    HW210737   9.884   4.632   9.643 -1.8525  1.7762 -2.5513
 3387SOL     OW10738   3.312   3.089   3.947  0.4517  0.1501  0.4872
 3387SOL    HW110739   3.346   3.007   3.913  1.8875  1.2784 -0.9633
 3387SOL    HW210740   3.377   3.118   4.011  0.3767  0.5483  0.3880
 3388SOL     OW10741   5.248   4.714   8.473  0.0491 -0.4025 -0.1459
 3388SOL    HW110742   5.189   4.659   8.524  0.3945 -0.3905  0.2666
 3388SOL    HW210743   5.245   4.800   8.516  0.3489 -0.3953 -0.1367
 3389SOL     OW10744   2.507   5.756   5.248 -0.5845  0.4735 -0.5740
 3389SOL    HW110745   2.591   5.727   5.285 -0.7969 -0.4273 -0.7763
 3389SOL    HW210746   2.496   5.845   5.282  0.2345  0.4355 -0.1745
 3390SOL     OW10747   5.936   9.615   7.407 -0.0985 -0.1721  0.2310
 3390SOL    HW110748   5.978   9.699   7.387 -0.4427 -0.0289  0.0993
 3390SOL    HW210749   5.882   9.633   7.484  1.3130 -0.7481  1.4044
 3391SOL     OW10750   1.527   7.085   6.470  0.3826 -0.4481 -0.4417
 3391SOL    HW110751   1.504   7.107   6.560 -0.4329  0.3289 -0.8221
 3391SOL    HW210752   1.621   7.101   6.465  0.2766  0.4134  0.0289
 3392SOL     OW10753   4.523   0.244   8.459 -0.0723 -0.0343 -0.1465
 3392SOL    HW110754   4.599   0.191   8.482 -1.1598 -0.4683  2.8519
 3392SOL    HW210755   4.453   0.180   8.442 -0.3846  0.4022 -0.5483
 3393SOL     OW10756   2.028   6.187   3.781  0.0424 -0.1727  0.4167
 3393SOL    HW110757   2.036   6.096   3.810  1.9266 -0.5238 -1.0049
 3393SOL    HW210758   1.992   6.180   3.692 -2.4488  0.6752  1.2917
 3394SOL     OW10759   8.871   7.932   7.745  0.1489 -0.4744  0.4010
 3394SOL    HW110760   8.855   7.885   7.827 -0.2171 -0.9248  0.0773
 3394SOL    HW210761   8.910   8.015   7.772 -0.6003 -0.3306  1.0711
 3395SOL     OW10762   6.863   7.386   3.052 -0.2198  0.1059 -0.1484
 3395SOL    HW110763   6.794   7.423   2.998  0.4839  1.0282 -0.4425
 3395SOL    HW210764   6.911   7.328   2.993 -0.8583 -0.7024  0.1118
 3396SOL     OW10765   2.757   8.732   0.584  0.0426  0.1518 -0.5403
 3396SOL    HW110766   2.841   8.748   0.540  0.3754  0.6967  0.2584
 3396SOL    HW210767   2.727   8.820   0.610 -1.4311  0.1110 -1.9548
 3397SOL     OW10768   1.264   6.427   8.733 -0.1339 -0.5269  0.0330
 3397SOL    HW110769   1.332   6.469   8.786 -0.0482 -0.7228  0.0769
 3397SOL    HW210770   1.200   6.497   8.717 -0.3575 -0.5656  0.7285
 3398SOL     OW10771   1.338   9.549   3.545  0.4705 -0.6531 -0.0345
 3398SOL    HW110772   1.337   9.535   3.450  0.4167 -0.4017 -0.0733
 3398SOL    HW210773   1.358   9.464   3.582 -1.4634 -1.2082 -0.1740
 3399SOL     OW10774   6.076   1.612   6.630 -0.7908  0.6960  0.5118
 3399SOL    HW110775   6.151   1.599   6.572 -1.1035 -0.5764  0.3594
 3399SOL    HW210776   6.036   1.694   6.601 -0.2268  0.6986 -0.2672
 3400SOL     OW10777   5.547   3.345   3.594 -0.6254  0.6337 -0.0328
 3400SOL    HW110778   5.514   3.390   3.672  0.2708  1.2584 -0.0062
 3400SOL    HW210779   5.628   3.390   3.572  0.0336 -0.6300 -0.3186
 3401SOL     OW10780   4.318   5.226   3.322 -0.0221 -0.5265  0.5285
 3401SOL    HW110781   4.388   5.178   3.278 -0.3726 -0.6586  0.1105
 3401SOL    HW210782   4.280   5.162   3.383  0.0410 -0.5335  0.5613
 3402SOL     OW10783   2.964   1.992   7.646 -0.4809 -0.5491  0.1665
 3402SOL    HW110784   2.957   1.904   7.608  2.2261 -1.4657  1.4729
 3402SOL    HW210785   2.924   1.984   7.733  2.0247 -1.3653  1.3566
 3403SOL     OW10786   6.330   7.047   3.365 -0.2108 -0.2011  0.6614
 3403SOL    HW110787   6.398   7.086   3.310  0.4762 -1.1421  0.8186
 3403SOL    HW210788   6.341   6.953   3.353 -1.5946 -0.3747  0.5754
 3404SOL     OW10789   8.106   0.507   7.971 -0.3825 -0.2805  0.4179
 3404SOL    HW110790   8.061   0.489   7.889  2.4392  0.6971 -1.5068
 3404SOL    HW210791   8.175   0.440   7.975  2.0854  2.0546 -0.2194
 3405SOL     OW10792   3.714   0.672   3.255 -0.4572  0.1653  0.3503
 3405SOL    HW110793   3.655   0.738   3.219  0.2885  0.0277 -1.2324
 3405SOL    HW210794   3.680   0.654   3.343 -1.4750  1.6416  0.2988
 3406SOL     OW10795   5.540   9.721   1.958  0.6393 -0.6567  0.3103
 3406SOL    HW110796   5.522   9.687   2.046  2.2302 -1.0261  0.5179
 3406SOL    HW210797   5.603   9.791   1.972  0.8254 -0.6537 -0.5316
 3407SOL     OW10798   5.841   0.060   5.571 -0.1236 -0.2552  0.3103
 3407SOL    HW110799   5.882   0.061   5.484  0.6752  0.9540  0.6719
 3407SOL    HW210800   5.851   0.150   5.603 -1.6622 -0.3376  1.0871
 3408SOL     OW10801   3.438   8.478   0.901  0.4112  0.4199 -0.2705
 3408SOL    HW110802   3.411   8.557   0.949 -0.0042  0.8330 -1.1618
 3408SOL    HW210803   3.404   8.406   0.953 -0.3161  0.8729 -0.0971
 3409SOL     OW10804   1.537   1.544   0.356 -0.3116  0.7068 -0.2501
 3409SOL    HW110805   1.462   1.507   0.309  0.1761 -0.7378  0.0435
 3409SOL    HW210806   1.509   1.632   0.381 -2.4281 -0.2535  1.0347
 3410SOL     OW10807   8.387   2.514   7.954  0.0455  0.0636  0.2191
 3410SOL    HW110808   8.381   2.424   7.986  1.5194  0.7397  2.6630
 3410SOL    HW210809   8.471   2.545   7.986 -0.2873  2.2471 -0.8382
 3411SOL     OW10810   8.343   5.159   8.959 -0.1088  0.2858  0.1945
 3411SOL    HW110811   8.277   5.104   9.001 -0.2500  0.4249  0.1572
 3411SOL    HW210812   8.423   5.143   9.009  0.2047 -0.9932 -0.6521
 3412SOL     OW10813   1.989   8.066   2.000  0.0105 -0.2148  0.2128
 3412SOL    HW110814   2.082   8.066   1.979 -0.2034  0.8489 -0.9061
 3412SOL    HW210815   1.984   8.041   2.092  1.3485 -0.8488  0.1290
 3413SOL     OW10816   1.190   5.156   2.457  0.4542  0.2445  0.3814
 3413SOL    HW110817   1.189   5.226   2.391  0.6411 -0.1886 -0.0936
 3413SOL    HW210818   1.265   5.101   2.431  0.0158 -0.3990  0.4551
 3414SOL     OW10819   4.477   6.553   9.039  0.1460 -0.0551 -0.3715
 3414SOL    HW110820   4.555   6.509   9.005  0.4674  0.2462 -0.0377
 3414SOL    HW210821   4.404   6.498   9.010  0.6719 -2.6753  2.7156
 3415SOL     OW10822   4.703   3.335   5.823  0.4227 -0.1022  0.2574
 3415SOL    HW110823   4.771   3.400   5.810 -0.2792  0.3095 -1.6891
 3415SOL    HW210824   4.717   3.271   5.753 -0.5248 -0.5849  0.4866
 3416SOL     OW10825   7.018   2.780   3.426 -0.1704  0.0384  0.0390
 3416SOL    HW110826   6.979   2.786   3.338 -0.6401 -0.5349  0.2027
 3416SOL    HW210827   7.048   2.690   3.432  1.0349  0.4170 -0.0067
 3417SOL     OW10828   4.446   4.846   1.522 -0.0027 -0.4278  0.2383
 3417SOL    HW110829   4.496   4.928   1.521  2.1914 -1.6710  0.5229
 3417SOL    HW210830   4.444   4.818   1.431  0.9722 -0.9996  0.3784
 3418SOL     OW10831   0.953   2.286   0.839  0.1667 -0.0841  0.4843
 3418SOL    HW110832   1.005   2.241   0.771 -1.6942  0.2488 -1.2438
 3418SOL    HW210833   1.016   2.306   0.908  1.8572 -1.7593 -0.4834
 3419SOL     OW10834   6.120   7.754   9.500  0.1541  0.2554  0.1121
 3419SOL    HW110835   6.117   7.820   9.431 -0.4744  1.1128  0.9262
 3419SOL    HW210836   6.041   7.770   9.551 -0.7977 -2.0919 -0.5042
 3420SOL     OW10837   8.525   7.086   4.428  0.2871  0.0238  0.2019
 3420SOL    HW110838   8.543   7.137   4.507 -1.4655  0.3051  0.4557
 3420SOL    HW210839   8.455   7.027   4.454  2.1815 -2.5359 -0.1157
 3421SOL     OW10840   2.836   8.316   6.253  0.1547  0.3140  0.0226
 3421SOL    HW110841   2.886   8.385   6.209  4.0350 -0.8229  2.1323
 3421SOL    HW210842   2.758   8.359   6.286 -0.4971  2.2571 -3.5628
 3422SOL     OW10843   9.727   5.809   4.260 -0.3284  0.2197  0.3380
 3422SOL    HW110844   9.634   5.826   4.272 -0.7608 -2.3997  1.3834
 3422SOL    HW210845   9.763   5.808   4.349  0.1779 -1.1947  0.1444
 3423SOL     OW10846   4.058   6.873   0.264  0.4361  0.2351 -0.4096
 3423SOL    HW110847   4.041   6.787   0.226  0.7355 -0.1098  0.2104
 3423SOL    HW210848   4.139   6.902   0.222 -0.8643  1.2675 -2.3417
 3424SOL     OW10849   7.575   2.296   6.185 -0.0046  0.2150  0.1500
 3424SOL    HW110850   7.669   2.289   6.169 -0.0940  0.6522 -0.5989
 3424SOL    HW210851   7.561   2.247   6.266  0.4501 -2.3390 -1.2033
 3425SOL     OW10852   4.094   6.648   9.961 -0.2654 -0.1078  0.4566
 3425SOL    HW110853   4.066   6.693   9.882  1.4466 -2.1322 -1.4736
 3425SOL    HW210854   4.020   6.655  10.021 -1.2110  2.4523 -0.8687
 3426SOL     OW10855   1.349   3.838   9.013 -0.5134  0.1157  0.3045
 3426SOL    HW110856   1.290   3.811   9.083  2.9968 -2.1659  2.7712
 3426SOL    HW210857   1.344   3.767   8.949 -0.4784 -0.1045  0.5411
 3427SOL     OW10858   9.827   9.605   1.078 -0.4452  0.0004  0.0947
 3427SOL    HW110859   9.897   9.620   1.141 -0.3401 -0.3119  0.0523
 3427SOL    HW210860   9.778   9.531   1.114 -2.3910  1.8422  1.5532
 3428SOL     OW10861   0.573   3.860   7.038  0.1048  0.0319 -0.3308
 3428SOL    HW110862   0.667   3.856   7.021 -0.0708  1.4620 -1.8354
 3428SOL    HW210863   0.567   3.884   7.131  1.1938 -0.6828 -0.0527
 3429SOL     OW10864   4.887   7.599   5.823  0.1988 -0.4337 -0.1733
 3429SOL    HW110865   4.846   7.556   5.749 -0.8085 -0.2008  0.2339
 3429SOL    HW210866   4.914   7.528   5.881 -0.7057 -0.5521  0.1078
 3430SOL     OW10867   1.395   7.682   2.831  0.1106 -0.4825  0.0700
 3430SOL    HW110868   1.413   7.637   2.748 -0.3623 -1.0739  0.2791
 3430SOL    HW210869   1.477   7.678   2.879  0.5312  0.2837 -0.5546
 3431SOL     OW10870   5.913   8.533   6.609 -0.2703 -0.3557  0.2061
 3431SOL    HW110871   5.931   8.446   6.574  2.7406  0.5897 -0.9172
 3431SOL    HW210872   5.951   8.532   6.697 -0.8628 -0.3550  0.4703
 3432SOL     OW10873   8.866   7.296   7.559 -0.1433  0.3427 -0.0818
 3432SOL    HW110874   8.889   7.370   7.503  1.4751 -1.1931 -1.5966
 3432SOL    HW210875   8.930   7.299   7.630 -0.8841  1.1035  0.5647
 3433SOL     OW10876   7.005   5.592   7.848  0.1954  0.2911 -0.2485
 3433SOL    HW110877   6.976   5.675   7.809 -1.3808 -0.1169  0.0201
 3433SOL    HW210878   6.925   5.545   7.868  1.0720 -1.6587 -1.1111
 3434SOL     OW10879   7.528   2.198   8.582  0.1365 -0.1710  0.0763
 3434SOL    HW110880   7.470   2.131   8.618  0.2633 -0.6174 -0.5227
 3434SOL    HW210881   7.485   2.226   8.502  0.5086 -0.1638 -0.1263
 3435SOL     OW10882   5.166   4.125   8.501  0.1009  0.0256 -0.0026
 3435SOL    HW110883   5.206   4.192   8.446  1.5561 -1.6888 -1.1390
 3435SOL    HW210884   5.166   4.046   8.447 -2.0389 -0.8122  1.0993
 3436SOL     OW10885   2.650   4.367  -0.023 -0.4324 -0.2739 -0.3702
 3436SOL    HW110886   2.609   4.444   0.017  1.3324  0.2724  0.4655
 3436SOL    HW210887   2.646   4.301   0.046  0.6892  0.0000 -0.0319
 3437SOL     OW10888   8.442   7.375   2.798 -0.1214 -0.8548  0.0660
 3437SOL    HW110889   8.507   7.423   2.850 -0.8684  1.0477 -0.6979
 3437SOL    HW210890   8.483   7.363   2.713 -0.3830 -0.5807 -0.0968
 3438SOL     OW10891   0.074   2.546   9.230 -0.0426  0.4526 -0.5576
 3438SOL    HW110892   0.033   2.540   9.316 -1.5729 -0.9766 -1.3408
 3438SOL    HW210893   0.156   2.498   9.239 -0.2234  0.2515  0.0825
 3439SOL     OW10894   5.607   8.546   7.945 -0.0495  0.1001 -0.0298
 3439SOL    HW110895   5.569   8.468   7.986 -0.5769  1.8179  3.0604
 3439SOL    HW210896   5.701   8.526   7.940 -0.6072 -2.7872 -4.5253
 3440SOL     OW10897   0.605   9.754   8.485  0.2129  0.5024  0.0104
 3440SOL    HW110898   0.534   9.800   8.438  0.9597  2.3651  0.6292
 3440SOL    HW210899   0.559   9.691   8.541 -0.7358 -1.7740 -3.0124
 3441SOL     OW10900   8.175   7.173   9.148  0.2518  0.0109 -0.8119
 3441SOL    HW110901   8.242   7.225   9.192 -1.1214  0.4214  0.9292
 3441SOL    HW210902   8.152   7.225   9.071  0.4886  0.8875 -0.3151
 3442SOL     OW10903   3.371   8.227   0.252 -0.4200 -0.0820 -0.0447
 3442SOL    HW110904   3.379   8.170   0.175 -2.1095 -0.3398 -0.0645
 3442SOL    HW210905   3.461   8.248   0.275  0.2686 -2.5962 -0.1483
 3443SOL     OW10906   8.809   0.083   8.295 -0.2228  0.3250  0.1402
 3443SOL    HW110907   8.789   0.019   8.226 -3.4218  1.6896 -0.4127
 3443SOL    HW210908   8.774   0.044   8.375 -2.5426  1.3787 -0.2638
 3444SOL     OW10909   6.749   6.967   2.940  0.4322 -0.4604  0.3920
 3444SOL    HW110910   6.763   6.905   3.011  0.1152  0.9325  1.7275
 3444SOL    HW210911   6.832   6.969   2.893  0.8346 -0.9955  1.0724
 3445SOL     OW10912   7.490   2.723   3.340  0.0736  0.1464 -0.0589
 3445SOL    HW110913   7.574   2.758   3.370 -0.4325  1.2701  0.0956
 3445SOL    HW210914   7.431   2.736   3.414  0.1946 -2.4931  0.6121
 3446SOL     OW10915   0.754   9.687   0.736 -0.0702  0.2697 -0.0293
 3446SOL    HW110916   0.792   9.735   0.663 -0.7703 -1.0649 -1.3104
 3446SOL    HW210917   0.799   9.603   0.736 -0.0532  0.2546  1.1239
 3447SOL     OW10918   6.705   2.933   1.268 -0.0245 -0.6131  0.0027
 3447SOL    HW110919   6.727   2.955   1.358  0.0011  0.0385 -0.1575
 3447SOL    HW210920   6.611   2.949   1.261  0.1109  0.1115 -0.2933
 3448SOL     OW10921   5.773   3.523   7.363 -0.0807 -0.0399  0.0175
 3448SOL    HW110922   5.728   3.439   7.360  0.5509 -0.3731 -0.5782
 3448SOL    HW210923   5.769   3.550   7.455  1.5048 -1.7378  0.6669
 3449SOL     OW10924   1.736   6.927  -0.016  0.2557 -0.0701 -0.2384
 3449SOL    HW110925   1.774   7.010  -0.044  2.1259 -1.2624 -1.4406
 3449SOL    HW210926   1.782   6.906   0.066  0.0800 -0.1043 -0.1489
 3450SOL     OW10927   6.792   4.512   6.423 -0.3750 -0.0633 -0.7329
 3450SOL    HW110928   6.884   4.537   6.414 -0.5022  0.4619 -0.6316
 3450SOL    HW210929   6.748   4.593   6.447 -0.5896 -0.6713  1.1071
 3451SOL     OW10930   0.081   9.131   2.618 -0.5122  1.2873 -0.0783
 3451SOL    HW110931   0.095   9.059   2.681 -0.3032  1.4179  0.0265
 3451SOL    HW210932  -0.008   9.117   2.586 -1.0900  1.9392  1.1881
 3452SOL     OW10933   3.394   8.421   6.208 -0.0778 -0.0505  0.3448
 3452SOL    HW110934   3.320   8.394   6.153  0.7222  0.9796 -1.3141
 3452SOL    HW210935   3.369   8.507   6.240  0.0444 -0.0757  0.5069
 3453SOL     OW10936   7.809   5.395   5.218 -0.1500  0.1015 -0.0690
 3453SOL    HW110937   7.868   5.378   5.292 -2.7001  0.4688  2.2010
 3453SOL    HW210938   7.854   5.462   5.167  1.7086 -0.1597  1.1040
 3454SOL     OW10939   6.798   0.579   8.482 -0.8230  0.8337 -0.0331
 3454SOL    HW110940   6.761   0.617   8.562  0.7827  1.7534  0.3124
 3454SOL    HW210941   6.852   0.506   8.513 -0.1024  1.2667 -0.2625
 3455SOL     OW10942   3.516   1.245   3.764  0.2733  0.0472 -0.4051
 3455SOL    HW110943   3.558   1.254   3.678  2.7229  2.5443  0.8892
 3455SOL    HW210944   3.441   1.304   3.760  0.5131  0.3364 -0.8117
 3456SOL     OW10945   8.427   7.691   0.649 -0.1983  0.4926  0.2018
 3456SOL    HW110946   8.464   7.606   0.625 -0.1441  0.0748  1.6792
 3456SOL    HW210947   8.482   7.722   0.720  0.1643  2.0832 -0.7160
 3457SOL     OW10948   9.484   5.851   5.955  0.0492 -0.2136  0.2631
 3457SOL    HW110949   9.414   5.791   5.981  0.7575 -1.1919 -0.0722
 3457SOL    HW210950   9.559   5.825   6.009  0.7123 -0.4293 -0.7497
 3458SOL     OW10951   0.796   6.899   8.335 -0.0300  0.6506 -0.2583
 3458SOL    HW110952   0.742   6.974   8.356 -1.4790 -0.9349  2.2654
 3458SOL    HW210953   0.763   6.866   8.252 -0.3871  1.8896 -0.6120
 3459SOL     OW10954   1.179   7.599   8.075  0.3227 -0.1424 -0.0278
 3459SOL    HW110955   1.177   7.693   8.093 -0.6233  0.1027 -1.2740
 3459SOL    HW210956   1.252   7.588   8.015 -0.0273 -0.0758 -0.4728
 3460SOL     OW10957   9.206   9.950   2.774  0.1920 -0.7358  0.4283
 3460SOL    HW110958   9.269   9.955   2.846  0.2845  1.4115  0.2442
 3460SOL    HW210959   9.259   9.955   2.695 -0.0409 -1.5093  0.2083
 3461SOL     OW10960   8.240   5.403   5.051  0.2185 -0.0287  0.5575
 3461SOL    HW110961   8.231   5.312   5.023 -1.8303  0.3143 -0.0577
 3461SOL    HW210962   8.258   5.452   4.970  1.6826  0.1194  0.9300
 3462SOL     OW10963   7.823   7.391   9.560 -0.6674 -0.0066  0.2086
 3462SOL    HW110964   7.781   7.453   9.619 -2.2766  0.5808 -1.4692
 3462SOL    HW210965   7.766   7.314   9.560 -0.7201  0.0217 -0.6125
 3463SOL     OW10966   1.741   9.082   0.114  0.1228  0.6304 -0.2409
 3463SOL    HW110967   1.699   9.039   0.040 -1.9551  1.6057  0.3072
 3463SOL    HW210968   1.782   9.160   0.077  1.0939 -0.0706 -0.6981
 3464SOL     OW10969   0.365   5.865   0.854 -0.3315 -0.0786  0.4502
 3464SOL    HW110970   0.279   5.875   0.813 -0.3923  2.3307  1.0110
 3464SOL    HW210971   0.352   5.895   0.944  0.4631 -2.4926  1.4299
 3465SOL     OW10972   1.322   1.969   5.530 -0.3036  0.1635  0.0045
 3465SOL    HW110973   1.337   1.934   5.618  0.4852 -1.0012 -0.5720
 3465SOL    HW210974   1.246   1.921   5.499  1.0030 -1.3847 -0.9311
 3466SOL     OW10975   7.409   1.418   5.275  0.6165  0.2807 -0.1396
 3466SOL    HW110976   7.358   1.486   5.320  0.2654 -0.1664  0.1473
 3466SOL    HW210977   7.487   1.464   5.244  1.1392  0.4892  1.4064
 3467SOL     OW10978   0.364   2.965   8.212  0.1408  0.2379 -0.0536
 3467SOL    HW110979   0.393   2.874   8.206  1.3845  0.4345  2.0798
 3467SOL    HW210980   0.438   3.016   8.179  0.4019  0.5418  0.9549
 3468SOL     OW10981   9.913   1.700   6.096 -0.4899 -0.4272 -0.3448
 3468SOL    HW110982   9.958   1.733   6.174 -0.5750 -0.5476 -0.2438
 3468SOL    HW210983   9.920   1.605   6.103 -2.7840 -0.5774  0.9214
 3469SOL     OW10984   6.329   7.005   9.378  1.0989 -0.3888  0.2596
 3469SOL    HW110985   6.257   6.958   9.420 -0.6702  1.4323 -0.5336
 3469SOL    HW210986   6.407   6.977   9.425 -0.3114 -1.2316  2.2473
 3470SOL     OW10987   3.461   9.970   3.540 -0.0248 -0.2632  0.3130
 3470SOL    HW110988   3.517  10.037   3.578 -0.3679 -0.1155  0.5629
 3470SOL    HW210989   3.517   9.893   3.532  0.7398  0.3994 -1.1380
 3471SOL     OW10990   7.193   6.118   8.755  0.3385  0.3965 -0.0174
 3471SOL    HW110991   7.237   6.124   8.670  0.2856 -0.1415 -0.0883
 3471SOL    HW210992   7.137   6.196   8.759 -0.9707 -0.4175 -1.2321
 3472SOL     OW10993   7.326   9.767   0.445 -1.2096 -0.3690  0.2316
 3472SOL    HW110994   7.403   9.756   0.502  0.1911  0.9727 -1.2996
 3472SOL    HW210995   7.353   9.732   0.361 -2.1951  0.3060 -0.3884
 3473SOL     OW10996   6.999   0.504   6.260  0.6032  0.0930 -0.0326
 3473SOL    HW110997   7.081   0.546   6.238  0.8434  0.3400  1.2611
 3473SOL    HW210998   6.989   0.518   6.354 -0.5956 -0.4940 -0.0512
 3474SOL     OW10999   1.180   8.614   0.878 -0.0014  0.3129 -0.1273
 3474SOL    HW111000   1.134   8.530   0.875 -2.4425  1.5683 -1.7809
 3474SOL    HW211001   1.110   8.678   0.896  1.3799  2.2044 -1.1835
 3475SOL     OW11002   7.507   6.893   5.976 -0.3507  0.1469 -0.8189
 3475SOL    HW111003   7.551   6.959   5.922 -0.6486  1.4406  0.4693
 3475SOL    HW211004   7.566   6.818   5.974  0.2326  0.6024 -1.9383
 3476SOL     OW11005   7.030   9.627   6.620  0.1608 -0.1688 -0.8220
 3476SOL    HW111006   7.016   9.543   6.576 -1.0335 -1.0091  1.0482
 3476SOL    HW211007   6.943   9.653   6.651  0.6294  1.4200 -0.7438
 3477SOL     OW11008   2.185   8.081   8.067  0.3930  0.3811 -0.0246
 3477SOL    HW111009   2.259   8.131   8.101  1.2720 -0.5300 -0.5651
 3477SOL    HW211010   2.144   8.139   8.003  0.9126  0.7230 -0.0503
 3478SOL     OW11011   3.450   1.521   3.022 -0.2524 -0.5387  0.2308
 3478SOL    HW111012   3.413   1.455   2.963 -0.6694 -0.1620  0.0727
 3478SOL    HW211013   3.374   1.559   3.066 -0.1106  0.6180 -0.4843
 3479SOL     OW11014   2.079   1.110   5.647  0.6476  0.6833 -0.1629
 3479SOL    HW111015   2.097   1.125   5.554 -0.4608 -0.0656 -0.5257
 3479SOL    HW211016   2.124   1.028   5.667  0.1236  0.3591 -0.2922
 3480SOL     OW11017   7.149   6.094   4.833 -0.0734  0.0627  0.1348
 3480SOL    HW111018   7.097   6.028   4.879 -0.7445  0.4704 -0.0172
 3480SOL    HW211019   7.115   6.177   4.865  0.8563  0.3354  0.4202
 3481SOL     OW11020   9.347   0.894   1.615  0.1961  0.3970  0.3473
 3481SOL    HW111021   9.375   0.968   1.560  0.0429  0.9195  0.9586
 3481SOL    HW211022   9.416   0.829   1.603  0.2332  0.5500 -0.3583
 3482SOL     OW11023   6.856   3.345   0.959 -0.1869 -0.0921  0.1170
 3482SOL    HW111024   6.824   3.326   0.871  0.3335  0.4944 -0.2042
 3482SOL    HW211025   6.856   3.260   1.004 -0.1558 -0.4436 -0.5411
 3483SOL     OW11026   2.398   8.397   4.228  0.5468  0.1776  0.3691
 3483SOL    HW111027   2.382   8.401   4.322 -2.0670 -2.4219  0.1803
 3483SOL    HW211028   2.345   8.324   4.198  1.6883  0.5951 -3.0927
 3484SOL     OW11029   0.220   2.317   4.939 -0.3563 -0.0452  0.4436
 3484SOL    HW111030   0.210   2.390   4.877 -0.8561 -0.0392  0.5292
 3484SOL    HW211031   0.194   2.240   4.889 -1.5827  0.0640  0.8911
 3485SOL     OW11032   7.309   8.131   2.337  0.2083 -0.1923 -0.3560
 3485SOL    HW111033   7.393   8.092   2.314  0.0918 -2.4594  2.4803
 3485SOL    HW211034   7.252   8.111   2.262  1.3692 -1.5042 -0.9307
 3486SOL     OW11035   6.630   1.903   8.279  0.1255  0.4331 -0.1247
 3486SOL    HW111036   6.700   1.855   8.233  0.7849  0.1330  1.1587
 3486SOL    HW211037   6.672   1.985   8.305 -0.0581  0.3361  0.4763
 3487SOL     OW11038   3.839   9.468   9.539  0.5664 -0.5884 -0.1360
 3487SOL    HW111039   3.842   9.554   9.582  0.7222 -0.0090 -1.2628
 3487SOL    HW211040   3.930   9.437   9.541  0.9073  0.2245 -1.5349
 3488SOL     OW11041   2.078   4.834   4.384  0.4266  0.3147 -0.1957
 3488SOL    HW111042   2.024   4.877   4.450  1.9622  0.7695  0.8189
 3488SOL    HW211043   2.165   4.873   4.394  0.3887  1.7256 -3.6815
 3489SOL     OW11044   8.511   6.492   6.955  0.2127  0.5105 -0.2580
 3489SOL    HW111045   8.525   6.471   6.862 -0.0836 -1.5349  0.1275
 3489SOL    HW211046   8.597   6.521   6.985  0.9258 -1.1010 -0.6315
 3490SOL     OW11047   6.285   0.734   1.060 -0.1041  0.0585 -0.6126
 3490SOL    HW111048   6.260   0.821   1.031  0.4565  0.5754  0.3976
 3490SOL    HW211049   6.377   0.743   1.087  0.3071 -1.1094 -1.5445
 3491SOL     OW11050   8.774   1.673   4.794  0.1167 -0.3526 -0.3663
 3491SOL    HW111051   8.851   1.729   4.788  0.2384 -0.5407 -0.5887
 3491SOL    HW211052   8.809   1.584   4.787  0.0670 -0.5257  1.2293
 3492SOL     OW11053   8.746   9.926   8.523  0.2937  0.6186 -0.2011
 3492SOL    HW111054   8.801   9.873   8.580  0.7324  1.4790  0.1906
 3492SOL    HW211055   8.678   9.866   8.493  0.0397  0.1654  1.2424
 3493SOL     OW11056   1.520   1.754   4.495  0.1362 -0.7236 -0.3213
 3493SOL    HW111057   1.448   1.815   4.510 -0.1110 -1.2238  0.5998
 3493SOL    HW211058   1.599   1.807   4.500 -0.1674 -0.0956 -1.7333
 3494SOL     OW11059   4.725   9.693   6.811 -0.1007  0.2974  0.3679
 3494SOL    HW111060   4.636   9.658   6.817  0.1903 -0.2323  1.9259
 3494SOL    HW211061   4.780   9.616   6.792  0.0015  0.6938 -1.0914
 3495SOL     OW11062   5.921   7.100   0.980  0.6584  0.0580  0.1850
 3495SOL    HW111063   5.831   7.094   0.948 -0.4875  0.0595  3.0285
 3495SOL    HW211064   5.966   7.025   0.943 -0.3009  0.4243 -1.8313
 3496SOL     OW11065   0.382   8.470   3.253  0.2909 -0.2193 -0.1253
 3496SOL    HW111066   0.465   8.517   3.243 -0.3689  0.7507 -1.3210
 3496SOL    HW211067   0.317   8.539   3.265 -0.7332 -0.7900 -2.1255
 3497SOL     OW11068   4.354   8.826   4.899  0.0506 -0.2860 -0.0272
 3497SOL    HW111069   4.341   8.823   4.994 -2.2542  0.3290 -0.2790
 3497SOL    HW211070   4.282   8.773   4.863  2.0412 -2.2570 -1.4152
 3498SOL     OW11071   3.320   0.962   5.175  0.0589  0.2775  0.7863
 3498SOL    HW111072   3.363   0.971   5.090  0.2937 -4.2795  0.1763
 3498SOL    HW211073   3.386   0.988   5.239  1.5109 -0.6246 -0.3084
 3499SOL     OW11074   6.780   6.435   2.373 -0.1363 -0.2902 -0.2622
 3499SOL    HW111075   6.723   6.371   2.415  1.2451 -0.2169  1.8844
 3499SOL    HW211076   6.782   6.408   2.281 -0.5821 -2.5844  0.3276
 3500SOL     OW11077   1.985   2.653   9.831 -0.4414 -0.8929  0.0058
 3500SOL    HW111078   1.910   2.674   9.774  0.3945  1.6534 -0.2905
 3500SOL    HW211079   2.058   2.640   9.770  0.0153 -0.2234  0.3999
 3501SOL     OW11080   3.054   7.454   9.243 -0.4777  0.1119  0.0271
 3501SOL    HW111081   3.133   7.459   9.188 -0.4783  0.0955  0.0241
 3501SOL    HW211082   3.011   7.539   9.229  0.4509  0.8552  1.3945
 3502SOL     OW11083   3.375   9.104   8.534  0.5069  0.4185  0.0417
 3502SOL    HW111084   3.336   9.132   8.451  0.6291  1.2967  0.2735
 3502SOL    HW211085   3.378   9.184   8.587 -0.6775 -0.3414  1.3397
 3503SOL     OW11086   4.583   5.104   3.642  0.3306  0.0480  0.0984
 3503SOL    HW111087   4.637   5.025   3.634 -0.5725 -0.5402 -0.3596
 3503SOL    HW211088   4.604   5.155   3.564 -0.1508 -0.4318 -0.3574
 3504SOL     OW11089   5.997   4.419   9.873 -0.2231 -0.5954 -0.5447
 3504SOL    HW111090   6.063   4.444   9.809 -0.7505 -0.7161 -1.1357
 3504SOL    HW211091   5.922   4.390   9.822  0.7783 -4.7296 -0.0270
 3505SOL     OW11092   1.906   0.091   6.479  0.6669 -0.1358 -0.1258
 3505SOL    HW111093   1.825   0.091   6.531 -0.1083 -0.8597 -1.2668
 3505SOL    HW211094   1.885   0.036   6.403  1.6706  1.0473 -1.3152
 3506SOL     OW11095   7.924   8.087   1.428 -0.1388 -0.1527  0.5828
 3506SOL    HW111096   7.951   8.165   1.475  0.1845 -0.8835  1.6480
 3506SOL    HW211097   7.858   8.047   1.484 -1.2027 -0.0127 -0.5354
 3507SOL     OW11098   0.633   2.847   5.726 -0.1121  0.3948 -0.0584
 3507SOL    HW111099   0.545   2.831   5.692 -0.1454 -0.2784  0.3152
 3507SOL    HW211100   0.690   2.843   5.649 -0.3037 -0.0891 -0.1778
 3508SOL     OW11101   1.426   8.895   8.703 -0.5354  0.0129  0.5762
 3508SOL    HW111102   1.333   8.897   8.682 -0.1424  1.7195 -1.4055
 3508SOL    HW211103   1.454   8.806   8.682 -1.2698  0.1710 -1.2875
 3509SOL     OW11104   6.106   9.904   6.838 -0.0519 -0.2346  0.1368
 3509SOL    HW111105   6.045   9.945   6.899  1.4927  1.4203  0.6709
 3509SOL    HW211106   6.057   9.832   6.799 -2.0684  0.5524  1.0876
 3510SOL     OW11107   4.634   8.332   6.862  0.1840 -0.1306  0.2578
 3510SOL    HW111108   4.644   8.258   6.802 -0.6910  0.4038 -0.5942
 3510SOL    HW211109   4.577   8.393   6.814 -0.3869  0.3993  1.5709
 3511SOL     OW11110   7.658   7.642   4.953  0.5955  0.0389 -0.0638
 3511SOL    HW111111   7.679   7.571   5.014 -1.8195 -1.6650 -1.0794
 3511SOL    HW211112   7.563   7.652   4.958  0.6666  1.9274 -1.3529
 3512SOL     OW11113   6.024   3.575   3.597 -0.4981 -0.2959 -0.0202
 3512SOL    HW111114   6.082   3.501   3.584 -0.6332 -0.5466  0.7580
 3512SOL    HW211115   6.037   3.630   3.520 -1.6907 -1.9764 -1.4780
 3513SOL     OW11116   0.696   2.565   0.850  0.5420 -0.4070  0.1741
 3513SOL    HW111117   0.755   2.516   0.793 -1.1354 -0.2597 -1.7947
 3513SOL    HW211118   0.687   2.510   0.928  0.6283 -2.0398 -0.9262
 3514SOL     OW11119   0.677   7.310   1.780  0.0424 -0.0391 -0.3359
 3514SOL    HW111120   0.772   7.322   1.780 -0.0214  0.9085  1.9466
 3514SOL    HW211121   0.645   7.374   1.717  0.8390  0.5015 -0.2041
 3515SOL     OW11122   2.986   7.951   3.714  0.0901 -0.2037  0.1474
 3515SOL    HW111123   2.975   8.000   3.795 -1.2911 -1.6944  0.9324
 3515SOL    HW211124   3.077   7.923   3.714  1.2913  3.1347 -0.8843
 3516SOL     OW11125   3.694   7.622   0.435 -0.2164  0.0469  0.4282
 3516SOL    HW111126   3.655   7.636   0.349  0.8210 -0.8269 -0.2092
 3516SOL    HW211127   3.667   7.698   0.487  0.5678  1.4678 -1.1800
 3517SOL     OW11128   8.310   4.797   0.151  0.1207 -0.4007  0.2893
 3517SOL    HW111129   8.360   4.739   0.093 -0.0276  0.7415 -1.0117
 3517SOL    HW211130   8.222   4.759   0.152 -0.5089  0.7700 -2.1046
 3518SOL     OW11131   0.895   5.618   6.145 -0.1337  0.1611  0.1894
 3518SOL    HW111132   0.920   5.535   6.104 -0.7800  0.6011 -1.1731
 3518SOL    HW211133   0.918   5.684   6.079  1.1644  1.1700  1.5866
 3519SOL     OW11134   8.676   5.863   9.918 -0.2951 -0.1158 -0.7926
 3519SOL    HW111135   8.662   5.862  10.012 -0.7025 -0.7899 -0.8521
 3519SOL    HW211136   8.591   5.885   9.880  0.3028  2.1163 -0.9583
 3520SOL     OW11137   2.892   2.197   9.180  0.0554 -0.2021  0.0601
 3520SOL    HW111138   2.895   2.118   9.127 -1.1391 -0.2197 -0.0110
 3520SOL    HW211139   2.839   2.173   9.257 -0.2340  0.4795  0.0906
 3521SOL     OW11140   7.879   6.584   2.751  0.2249 -0.0878 -0.8441
 3521SOL    HW111141   7.898   6.492   2.735  2.0286  0.1093 -0.0331
 3521SOL    HW211142   7.903   6.599   2.842 -2.9524  0.5088  0.0277
 3522SOL     OW11143   3.164   6.558   3.554 -0.0565  0.2987 -0.2707
 3522SOL    HW111144   3.133   6.645   3.528 -1.5962 -0.3567 -0.7418
 3522SOL    HW211145   3.170   6.509   3.471 -0.2187 -0.3537  0.0997
 3523SOL     OW11146   0.420   4.323   3.285 -0.2753 -0.2127 -0.0756
 3523SOL    HW111147   0.452   4.396   3.233  0.1928 -0.7352 -0.5224
 3523SOL    HW211148   0.329   4.312   3.257 -0.8863  1.2409  1.1658
 3524SOL     OW11149   6.941   6.257   0.726 -0.1425  0.3360 -0.0749
 3524SOL    HW111150   6.886   6.190   0.684 -0.1133  0.9971 -1.2051
 3524SOL    HW211151   6.880   6.305   0.783 -0.3773  0.0103 -0.0440
 3525SOL     OW11152   5.029   5.724   8.438  0.5434 -0.1995 -0.2684
 3525SOL    HW111153   5.090   5.734   8.365  1.3218  0.4439  0.4541
 3525SOL    HW211154   5.013   5.813   8.469 -0.2686 -0.4186 -0.0411
 3526SOL     OW11155   0.537   9.977   4.836 -0.3344  0.1138  0.2929
 3526SOL    HW111156   0.450   9.938   4.831  0.0203 -0.7817  0.7271
 3526SOL    HW211157   0.561   9.994   4.745 -0.5812 -0.5290  0.1009
 3527SOL     OW11158   2.075   9.301   4.834 -0.3260  0.2245 -0.1124
 3527SOL    HW111159   2.033   9.326   4.916  2.7136 -0.4612  1.8063
 3527SOL    HW211160   2.040   9.214   4.815 -0.9956  0.3524  0.5085
 3528SOL     OW11161   6.548   1.111   4.520  0.1015 -0.1125 -0.5444
 3528SOL    HW111162   6.505   1.032   4.487  0.4301 -0.9602  0.9967
 3528SOL    HW211163   6.582   1.154   4.441  1.0456 -2.1635 -1.3068
 3529SOL     OW11164   5.675   7.477   2.084 -0.2821 -0.2966 -0.4730
 3529SOL    HW111165   5.594   7.453   2.130  0.5752  0.1700  1.3983
 3529SOL    HW211166   5.677   7.573   2.088  0.7973 -0.3267  0.3897
 3530SOL     OW11167   4.709   2.961   3.893  0.1124  0.2545 -0.1988
 3530SOL    HW111168   4.617   2.978   3.911 -0.9775 -2.6434 -2.2069
 3530SOL    HW211169   4.732   2.889   3.953 -0.4596 -2.2583 -2.7942
 3531SOL     OW11170   3.217   3.530   1.243 -0.0661 -0.5943 -0.0018
 3531SOL    HW111171   3.305   3.516   1.277  0.4297 -0.4085 -1.1638
 3531SOL    HW211172   3.162   3.467   1.289  1.0582 -2.2224 -0.8339
 3532SOL     OW11173   1.045   2.449   1.233 -0.1353 -0.0124 -0.0484
 3532SOL    HW111174   1.015   2.359   1.226  0.3883 -0.0818 -2.3353
 3532SOL    HW211175   1.119   2.454   1.172 -0.3982  2.0463 -0.2685
 3533SOL     OW11176   9.674   8.153   5.300  0.0217 -0.4256 -0.1589
 3533SOL    HW111177   9.763   8.182   5.279 -0.0363 -0.0069  0.1434
 3533SOL    HW211178   9.644   8.215   5.367 -0.4623 -0.6206 -0.1868
 3534SOL     OW11179   5.021   9.703   4.814 -0.8525  0.2774  0.0821
 3534SOL    HW111180   5.068   9.728   4.734  0.1964 -1.4689  0.1141
 3534SOL    HW211181   5.088   9.701   4.882 -1.2492 -0.7255  0.4634
 3535SOL     OW11182   5.066   5.110   7.493  0.9212  0.4555 -0.4840
 3535SOL    HW111183   5.158   5.126   7.513  0.4690  0.4049  1.8818
 3535SOL    HW211184   5.022   5.113   7.577 -1.2299  0.1964 -1.5253
 3536SOL     OW11185   6.834   9.583   3.054  0.7768 -0.4376  0.0715
 3536SOL    HW111186   6.756   9.544   3.014  1.2749 -1.9080  0.4663
 3536SOL    HW211187   6.823   9.568   3.148  0.2915  1.7385  0.4287
 3537SOL     OW11188   8.259   6.202   3.466  0.0840  0.4644 -0.1316
 3537SOL    HW111189   8.235   6.117   3.504  0.7283  0.4600  0.2773
 3537SOL    HW211190   8.245   6.264   3.538  0.8825  0.5184 -0.0189
 3538SOL     OW11191   9.681   5.426   4.564  0.0089  0.1406  0.2414
 3538SOL    HW111192   9.640   5.512   4.567 -2.1097 -0.7267 -1.1639
 3538SOL    HW211193   9.729   5.425   4.482 -2.3324 -0.8956 -1.2243
 3539SOL     OW11194   7.361   6.134   5.010 -0.1950  0.3066  0.4187
 3539SOL    HW111195   7.353   6.069   5.080 -1.7776  0.2099  0.1738
 3539SOL    HW211196   7.285   6.119   4.954  0.2081  1.4103 -0.4628
 3540SOL     OW11197   5.792   3.103   0.401  0.4425 -0.1524 -0.2647
 3540SOL    HW111198   5.867   3.162   0.401  0.3070  0.0241 -0.2290
 3540SOL    HW211199   5.817   3.031   0.344  0.7218 -0.2017 -0.0798
 3541SOL     OW11200   1.487   1.642   7.605  0.1279 -0.3430  0.1106
 3541SOL    HW111201   1.451   1.614   7.521 -0.1368  3.1297 -1.1096
 3541SOL    HW211202   1.579   1.617   7.601 -0.1890 -1.4623 -0.6131
 3542SOL     OW11203   8.631   2.778   1.690 -0.5166  0.2788 -0.6213
 3542SOL    HW111204   8.685   2.806   1.765  1.6449 -0.4794 -1.7998
 3542SOL    HW211205   8.632   2.683   1.694  0.2080  0.1986 -1.9430
 3543SOL     OW11206   2.718   5.749   3.810 -0.7907  0.1462  0.1230
 3543SOL    HW111207   2.754   5.660   3.799  1.9418  0.7033  2.9888
 3543SOL    HW211208   2.786   5.806   3.773  0.3317  1.1562  3.4213
 3544SOL     OW11209   6.424   2.963   2.086  0.1834 -0.1588 -0.3325
 3544SOL    HW111210   6.438   3.031   2.153  1.3391 -0.4653 -0.2573
 3544SOL    HW211211   6.406   2.884   2.136  1.4481 -0.4794 -0.3524
 3545SOL     OW11212   7.375   8.534   6.351 -0.0876  0.6998 -0.3225
 3545SOL    HW111213   7.312   8.572   6.290 -1.1449 -1.8436 -0.9269
 3545SOL    HW211214   7.431   8.480   6.296 -0.9405 -1.5036  0.8778
 3546SOL     OW11215   0.768   6.013   0.931  0.4668  0.4202 -0.9059
 3546SOL    HW111216   0.719   5.980   1.006 -0.8062  3.2679 -0.3710
 3546SOL    HW211217   0.819   5.937   0.901  1.8266 -0.6800  3.3818
 3547SOL     OW11218   8.617   7.165   4.682 -0.4686  0.4342 -0.3344
 3547SOL    HW111219   8.611   7.072   4.705 -1.5687  1.0477  2.1394
 3547SOL    HW211220   8.689   7.198   4.735 -0.5736  1.1548 -0.6267
 3548SOL     OW11221   3.201   7.003   7.702  0.2396 -0.1424  0.1158
 3548SOL    HW111222   3.180   7.087   7.661  0.7999 -0.1607 -0.2323
 3548SOL    HW211223   3.293   7.012   7.727 -0.3766  0.2729  2.4078
 3549SOL     OW11224   4.169   8.984   0.104  0.3188 -0.4263 -0.3228
 3549SOL    HW111225   4.262   9.006   0.112  0.3457 -0.9067  0.8213
 3549SOL    HW211226   4.141   9.028   0.023  1.3287  0.4487 -0.2205
 3550SOL     OW11227   4.329   0.831   6.870  0.0057 -0.5550  0.0033
 3550SOL    HW111228   4.386   0.865   6.801  1.9427  0.1484  1.8489
 3550SOL    HW211229   4.275   0.906   6.896  0.7685 -0.2248  0.6691
 3551SOL     OW11230   9.931   1.981   0.753 -0.4715  0.5810 -0.4312
 3551SOL    HW111231   9.976   1.921   0.694  3.3880  0.0534  2.6039
 3551SOL    HW211232   9.950   2.068   0.718 -2.1731  0.2462 -2.3447
 3552SOL     OW11233   6.278   6.063   2.775  0.3800  0.3801 -0.5190
 3552SOL    HW111234   6.342   6.002   2.812 -1.5117 -1.7448 -0.4876
 3552SOL    HW211235   6.267   6.131   2.841  0.2732 -0.9856  0.9442
 3553SOL     OW11236   6.819   8.675   1.343 -0.8513  0.4192 -0.3360
 3553SOL    HW111237   6.731   8.692   1.377 -0.8086 -0.9450  0.5713
 3553SOL    HW211238   6.805   8.650   1.252 -1.4383  0.0427 -0.1518
 3554SOL     OW11239   7.204   7.262   7.232  0.3812 -0.3957 -0.1936
 3554SOL    HW111240   7.249   7.317   7.168 -0.1735  0.0219 -0.2334
 3554SOL    HW211241   7.187   7.180   7.186 -1.1640  0.3544 -1.0265
 3555SOL     OW11242   1.999   6.301   7.021 -0.0279  0.1944 -0.4300
 3555SOL    HW111243   2.045   6.243   6.961 -1.4261 -1.7403  0.2461
 3555SOL    HW211244   2.059   6.375   7.035  2.6711 -1.9246  0.0635
 3556SOL     OW11245   0.998   7.288   8.738 -0.1940  0.9472 -0.0608
 3556SOL    HW111246   1.075   7.276   8.682  0.1898  0.4337  0.5597
 3556SOL    HW211247   1.032   7.282   8.828 -1.3349 -1.9821  0.2681
 3557SOL     OW11248   6.909   2.248   0.687 -0.3109  0.1209 -0.0445
 3557SOL    HW111249   6.906   2.326   0.631  0.9233  0.3936  0.2289
 3557SOL    HW211250   6.900   2.175   0.626  1.3296  0.4021 -0.6870
 3558SOL     OW11251   6.544   7.230   7.497 -0.0890 -0.1294  0.1552
 3558SOL    HW111252   6.494   7.160   7.455  1.7910 -0.3542 -1.8836
 3558SOL    HW211253   6.576   7.284   7.424  2.6370 -0.0461  1.2704
 3559SOL     OW11254   8.830   7.637   1.996  0.0813  0.5216 -0.4165
 3559SOL    HW111255   8.870   7.576   2.058 -0.0802  0.4325 -0.3988
 3559SOL    HW211256   8.837   7.722   2.038  0.5599  0.5582 -0.5611
 3560SOL     OW11257   7.268   9.915   2.418 -0.3583  0.7322 -0.4678
 3560SOL    HW111258   7.325   9.887   2.490  2.6412 -1.7160 -3.4688
 3560SOL    HW211259   7.295  10.005   2.399 -0.0349  0.8277  0.3971
 3561SOL     OW11260   9.058   8.540   7.675  0.0457  0.0325  0.5262
 3561SOL    HW111261   8.997   8.584   7.733  0.2969 -0.3721  1.1046
 3561SOL    HW211262   9.131   8.601   7.666  0.9649 -0.7356  2.3207
 3562SOL     OW11263   7.269   0.608   5.236 -0.1441  0.1947  0.7539
 3562SOL    HW111264   7.297   0.538   5.295  1.3118  1.2859  1.4104
 3562SOL    HW211265   7.277   0.571   5.149 -0.4314 -0.8042  1.1383
 3563SOL     OW11266   5.921   0.982   4.383  0.5203 -0.2188 -0.1299
 3563SOL    HW111267   5.923   0.971   4.288 -2.0258 -2.2756 -0.0466
 3563SOL    HW211268   5.955   1.071   4.397  1.1377  0.0787 -2.9153
 3564SOL     OW11269   1.008   0.675   8.071 -0.1883 -0.0202 -0.0922
 3564SOL    HW111270   1.049   0.757   8.100 -1.7257  0.8628 -0.3434
 3564SOL    HW211271   0.956   0.700   7.995 -1.8595 -0.9178  0.7106
 3565SOL     OW11272   7.072   9.890   3.086 -0.2086  0.3344  0.1891
 3565SOL    HW111273   7.119   9.959   3.134 -2.3996  2.4960 -0.5612
 3565SOL    HW211274   6.981   9.899   3.114 -0.9259 -0.7752 -1.6051
 3566SOL     OW11275   6.939   7.914   8.223  0.1439  0.7249 -0.2706
 3566SOL    HW111276   6.935   7.979   8.154 -2.0898 -0.7011 -1.6010
 3566SOL    HW211277   6.870   7.940   8.285 -0.5501 -0.1662 -0.6525
 3567SOL     OW11278   7.551   1.848   5.339 -0.1186 -0.0347 -0.3126
 3567SOL    HW111279   7.461   1.876   5.350 -0.5459 -0.9404 -1.2232
 3567SOL    HW211280   7.598   1.927   5.313  0.1446  1.2555  3.5671
 3568SOL     OW11281   4.246   8.177   8.500 -0.1580  0.4092 -0.2886
 3568SOL    HW111282   4.310   8.246   8.517  0.6196 -0.4732  0.4618
 3568SOL    HW211283   4.272   8.139   8.417 -0.0290  0.3979 -0.2418
 3569SOL     OW11284   4.247   9.518   2.322 -0.7276 -0.4998  0.3717
 3569SOL    HW111285   4.213   9.487   2.238 -1.1883  1.5742 -0.2601
 3569SOL    HW211286   4.196   9.470   2.387 -1.1699 -1.2939 -0.5265
 3570SOL     OW11287   5.745   0.321   8.174 -0.6852 -0.3863  0.0370
 3570SOL    HW111288   5.780   0.352   8.091 -0.3444 -0.4964  0.1401
 3570SOL    HW211289   5.756   0.226   8.171  0.2897 -0.3031  0.6434
 3571SOL     OW11290   5.489   0.194   3.477 -0.1517  0.0946 -0.0712
 3571SOL    HW111291   5.549   0.133   3.433 -1.4921 -0.4005 -1.2829
 3571SOL    HW211292   5.442   0.237   3.406 -0.6009  1.1468  0.8341
 3572SOL     OW11293   7.361   0.054   4.404 -0.1181 -0.3660 -0.4911
 3572SOL    HW111294   7.341   0.078   4.495  0.0258  1.4794 -0.9093
 3572SOL    HW211295   7.276   0.033   4.366 -0.5031  1.1276 -0.5221
 3573SOL     OW11296   9.965   5.000   1.272 -0.8052 -0.3308  0.1874
 3573SOL    HW111297   9.983   5.069   1.208 -2.5327 -0.1745 -0.1805
 3573SOL    HW211298   9.897   5.037   1.329 -0.4624 -1.0789  1.1201
 3574SOL     OW11299   5.239   4.153   1.145 -0.2711 -0.4502  0.1094
 3574SOL    HW111300   5.179   4.136   1.218  0.9297 -0.2420  1.1707
 3574SOL    HW211301   5.287   4.231   1.171 -0.0182 -0.2021 -1.0457
 3575SOL     OW11302   1.274   2.397   6.951 -0.3287 -0.1189 -0.3482
 3575SOL    HW111303   1.300   2.417   7.041 -2.0624  0.7724 -0.0184
 3575SOL    HW211304   1.256   2.482   6.912 -1.0433 -0.5988 -1.0843
 3576SOL     OW11305   2.323   4.696   4.022 -0.1152 -0.8588 -0.6667
 3576SOL    HW111306   2.373   4.777   4.013 -0.8984 -0.5558 -2.8402
 3576SOL    HW211307   2.370   4.632   3.968  0.3153 -1.8119  0.7709
 3577SOL     OW11308   1.235   2.455   5.595  0.2127  0.3449 -0.2251
 3577SOL    HW111309   1.213   2.401   5.671 -2.0407  2.0364  0.4156
 3577SOL    HW211310   1.289   2.526   5.632 -0.9210  1.1920 -0.1319
 3578SOL     OW11311   5.040   8.840   5.511 -0.1562 -0.0314 -0.2137
 3578SOL    HW111312   5.097   8.764   5.520  0.6230  0.6322  0.6617
 3578SOL    HW211313   4.955   8.811   5.543 -0.3882 -1.0862 -1.7053
 3579SOL     OW11314   2.758   0.776   4.586 -0.4061  0.2388 -0.2319
 3579SOL    HW111315   2.809   0.711   4.634 -0.2190 -0.8480 -1.8453
 3579SOL    HW211316   2.779   0.859   4.629 -0.8052 -0.7449  1.9927
 3580SOL     OW11317   6.416   6.268   2.052  0.7312  0.3976 -0.2310
 3580SOL    HW111318   6.455   6.180   2.049  0.4898  0.3193 -1.5242
 3580SOL    HW211319   6.441   6.308   1.969  1.6525  1.9299  0.7334
 3581SOL     OW11320   0.198   4.451   7.701  1.5183 -0.5726  0.5953
 3581SOL    HW111321   0.227   4.365   7.732 -0.0716 -1.1424  0.5831
 3581SOL    HW211322   0.228   4.512   7.768 -0.7154 -1.6238  2.6847
 3582SOL     OW11323   2.191   7.614   5.652 -0.3357  0.1744  0.1356
 3582SOL    HW111324   2.284   7.597   5.644 -0.6245 -1.6659  0.3954
 3582SOL    HW211325   2.185   7.683   5.719  0.8041 -0.0032  0.4339
 3583SOL     OW11326   7.950   4.248   5.643 -0.2127 -0.1095  0.0706
 3583SOL    HW111327   8.026   4.238   5.586  0.4184  2.6525  0.3134
 3583SOL    HW211328   7.975   4.206   5.725  1.4614  1.5406  0.4518
 3584SOL     OW11329   6.733   1.826   7.304  0.0663 -0.5012  0.6366
 3584SOL    HW111330   6.827   1.827   7.320  0.2736 -0.5009 -0.5076
 3584SOL    HW211331   6.701   1.908   7.343  1.1663  1.5098 -2.3403
 3585SOL     OW11332   2.182   8.234   5.227  0.1436 -0.8493  0.5174
 3585SOL    HW111333   2.186   8.203   5.317  0.4106  0.5095  0.9998
 3585SOL    HW211334   2.127   8.170   5.181  1.7932 -2.7722  1.1022
 3586SOL     OW11335   5.373   3.988   6.268  0.0954  0.0375 -0.2236
 3586SOL    HW111336   5.388   3.989   6.174  1.5582 -0.3015 -0.0182
 3586SOL    HW211337   5.350   4.078   6.290  3.3822  1.0525 -0.4145
 3587SOL     OW11338   8.242   5.590   6.464 -0.0398  0.0276  0.5879
 3587SOL    HW111339   8.309   5.609   6.399 -3.2042  1.6316 -2.5675
 3587SOL    HW211340   8.165   5.565   6.413 -2.2334 -0.6379  3.8756
 3588SOL     OW11341   6.130   8.382   2.889  0.0912  1.0506 -0.4291
 3588SOL    HW111342   6.044   8.340   2.891  0.5074  0.2055  1.2250
 3588SOL    HW211343   6.182   8.325   2.833  0.5789 -0.6197  1.5970
 3589SOL     OW11344   1.889   2.404   4.824  0.4267 -0.2366 -0.6152
 3589SOL    HW111345   1.874   2.491   4.859 -0.4725 -1.1216  1.3541
 3589SOL    HW211346   1.806   2.358   4.836  1.3948 -1.9143  0.1254
 3590SOL     OW11347   7.373   1.840   2.926 -0.1642  0.2257 -0.5558
 3590SOL    HW111348   7.418   1.907   2.875  1.6579 -1.2839 -1.0515
 3590SOL    HW211349   7.280   1.853   2.907  0.2769  1.4781 -2.0223
 3591SOL     OW11350   0.753   8.105   6.213 -0.0450  0.2256 -0.3581
 3591SOL    HW111351   0.830   8.064   6.252 -0.1753 -0.5217 -0.8440
 3591SOL    HW211352   0.721   8.166   6.279  0.5781  0.0572  0.1085
 3592SOL     OW11353   3.222   2.755   9.321 -0.1326  0.1423 -0.2633
 3592SOL    HW111354   3.271   2.683   9.282  0.6042 -0.4260  1.6193
 3592SOL    HW211355   3.280   2.831   9.312 -0.4539  0.2717 -1.2848
 3593SOL     OW11356   8.594   1.925   2.555  0.1950 -0.0200 -0.0689
 3593SOL    HW111357   8.534   1.986   2.513  2.1204  0.3954 -2.4638
 3593SOL    HW211358   8.655   1.980   2.603 -0.2013 -0.3348  0.8275
 3594SOL     OW11359   1.418   9.574   5.510  0.4663 -0.4181  0.2122
 3594SOL    HW111360   1.400   9.641   5.576  1.8771 -0.0572  0.2568
 3594SOL    HW211361   1.353   9.505   5.528 -0.7548  0.7325  0.4102
 3595SOL     OW11362   4.465   0.603   6.897  0.3242  0.0183  0.0171
 3595SOL    HW111363   4.411   0.680   6.876  0.4640  0.2826  0.6127
 3595SOL    HW211364   4.555   0.636   6.891  0.3743  0.0507  0.8084
 3596SOL     OW11365   4.075   8.046   6.409 -0.4580  0.3155  0.1743
 3596SOL    HW111366   4.105   7.955   6.414  1.6243  0.9830  1.6655
 3596SOL    HW211367   3.982   8.040   6.389 -0.9688 -2.2679  2.6112
 3597SOL     OW11368   9.873   0.342   3.875 -0.2945  0.4738 -0.1815
 3597SOL    HW111369   9.788   0.352   3.832 -0.1862  0.2460 -0.4513
 3597SOL    HW211370   9.856   0.283   3.948 -0.6250  1.4112  0.5193
 3598SOL     OW11371   7.719   4.380   9.646 -0.6929 -0.2301  0.7126
 3598SOL    HW111372   7.737   4.369   9.740 -0.7506 -0.9568  0.6423
 3598SOL    HW211373   7.671   4.301   9.621 -2.4042  0.8367  0.4785
 3599SOL     OW11374   7.924   0.338   7.155 -0.2887 -0.6188  0.1882
 3599SOL    HW111375   7.877   0.295   7.227  1.7728 -1.0637  1.3626
 3599SOL    HW211376   7.962   0.267   7.105 -0.2127 -0.2518 -0.2850
 3600SOL     OW11377   0.846   8.830   0.311  0.1725 -0.1323  0.0737
 3600SOL    HW111378   0.901   8.898   0.272  0.0534  0.7334  1.3545
 3600SOL    HW211379   0.768   8.876   0.341  0.1835 -0.7962  1.1601
 3601SOL     OW11380   3.736   0.902   9.173 -0.6642 -0.1923  0.5124
 3601SOL    HW111381   3.699   0.826   9.129  1.2405 -0.4120 -0.8173
 3601SOL    HW211382   3.757   0.963   9.102 -0.2316  0.7030  1.3815
 3602SOL     OW11383   3.639   9.925   8.248  0.5167 -0.1898 -0.0392
 3602SOL    HW111384   3.604   9.906   8.335 -0.0029 -0.3468 -0.2776
 3602SOL    HW211385   3.656  10.020   8.249  1.5098 -0.3604  0.5809
 3603SOL     OW11386   3.094   8.868   4.765 -0.2404  0.2577 -0.9191
 3603SOL    HW111387   3.062   8.879   4.675 -0.8207 -1.5528 -0.9842
 3603SOL    HW211388   3.036   8.802   4.803 -0.0219  1.0035  0.8121
 3604SOL     OW11389   3.028   0.795   0.318 -0.0640  0.5407 -0.3838
 3604SOL    HW111390   2.950   0.824   0.365 -0.7949 -0.4867 -0.9223
 3604SOL    HW211391   3.096   0.789   0.385 -0.6667  0.6546  0.2467
 3605SOL     OW11392   3.731   8.406   3.505 -0.2757 -0.0589  0.5534
 3605SOL    HW111393   3.787   8.464   3.557  1.7666 -0.6885 -0.8331
 3605SOL    HW211394   3.792   8.350   3.458 -2.1441 -2.0806  0.3826
 3606SOL     OW11395   5.758   2.581   2.307 -0.1243  0.1512  0.3712
 3606SOL    HW111396   5.684   2.642   2.301 -1.4619 -1.4790 -0.2319
 3606SOL    HW211397   5.817   2.610   2.237 -1.6693 -0.3919 -1.2471
 3607SOL     OW11398   3.289   0.043   1.998 -0.1684  0.1053  0.7251
 3607SOL    HW111399   3.272   0.090   1.917  0.2715 -2.2563 -0.8233
 3607SOL    HW211400   3.204   0.034   2.040 -1.2708 -2.5766 -1.7958
 3608SOL     OW11401   1.488   3.411   9.569  0.2022  0.4065  0.0916
 3608SOL    HW111402   1.424   3.482   9.579  0.0130  0.4744 -1.3082
 3608SOL    HW211403   1.443   3.347   9.512  0.3018 -0.9364  1.4543
 3609SOL     OW11404   2.393   2.439   9.554 -0.7184  0.0343 -0.3804
 3609SOL    HW111405   2.454   2.390   9.498 -0.5196 -0.8704  0.5955
 3609SOL    HW211406   2.396   2.528   9.521  1.6859  0.1710  0.0959
 3610SOL     OW11407   4.715   2.872   9.821 -0.4955 -0.4945  0.0420
 3610SOL    HW111408   4.702   2.831   9.907 -3.6863  0.3193  0.0891
 3610SOL    HW211409   4.626   2.879   9.785  0.6687 -0.0650 -2.9995
 3611SOL     OW11410   0.810   8.625   1.970  0.4081  0.0761  0.3878
 3611SOL    HW111411   0.817   8.671   1.886 -0.5679  0.9419  0.7555
 3611SOL    HW211412   0.857   8.543   1.956 -1.2250 -0.6226 -1.5973
 3612SOL     OW11413   9.035   2.084   3.986 -0.1886 -0.1495  0.2050
 3612SOL    HW111414   9.031   2.176   3.959 -0.0677  0.1724  1.2362
 3612SOL    HW211415   9.106   2.047   3.933 -1.1121 -0.0039 -1.1877
 3613SOL     OW11416   1.344   3.108   4.431  0.0121  0.3530 -0.4808
 3613SOL    HW111417   1.426   3.073   4.466 -0.3098  0.3112  0.2408
 3613SOL    HW211418   1.336   3.195   4.471 -1.2325 -0.3819  0.9639
 3614SOL     OW11419   8.391   0.818   0.719 -0.1480 -0.6508 -0.1957
 3614SOL    HW111420   8.449   0.771   0.659 -3.3884 -1.5640 -2.9276
 3614SOL    HW211421   8.334   0.750   0.755 -2.5173  0.6556 -1.2967
 3615SOL     OW11422   3.348   4.662   6.681  0.3275  0.4652 -0.1657
 3615SOL    HW111423   3.270   4.698   6.641 -0.9870 -1.5732  0.4272
 3615SOL    HW211424   3.335   4.676   6.775  1.8356  2.2121 -0.1469
 3616SOL     OW11425   9.056   6.917   6.042  0.3013 -0.2878  0.3533
 3616SOL    HW111426   9.044   7.010   6.062 -1.5792 -0.0042 -1.7619
 3616SOL    HW211427   9.003   6.871   6.108 -1.2840  0.3238 -0.4564
 3617SOL     OW11428   5.968   0.597   5.747  0.5028 -0.7700 -0.6306
 3617SOL    HW111429   5.903   0.667   5.746 -0.7826 -1.9110 -2.3648
 3617SOL    HW211430   6.033   0.624   5.682 -0.4582 -1.5663 -1.9503
 3618SOL     OW11431   1.986   6.972   5.051 -0.4344  0.5207 -0.3292
 3618SOL    HW111432   1.903   6.978   5.098 -0.0479  0.9669  0.3216
 3618SOL    HW211433   2.053   6.987   5.118  0.2084 -0.6313 -0.6917
 3619SOL     OW11434   2.265   5.189   8.855  0.2370  0.3828 -0.6290
 3619SOL    HW111435   2.278   5.264   8.914 -1.0287  0.4738 -0.4250
 3619SOL    HW211436   2.201   5.221   8.791 -2.2326 -1.2051  0.8682
 3620SOL     OW11437   9.230   3.389   5.076 -0.3393  0.6022  0.6803
 3620SOL    HW111438   9.254   3.465   5.129 -0.5217  1.4149 -0.3753
 3620SOL    HW211439   9.192   3.426   4.996  1.9661 -0.5040 -1.0424
 3621SOL     OW11440   5.169   0.089   7.370  0.3839  0.6191  0.3335
 3621SOL    HW111441   5.174   0.147   7.294  0.7927 -0.9401 -0.8776
 3621SOL    HW211442   5.107   0.132   7.428  0.1722  1.9416 -0.8077
 3622SOL     OW11443   3.699   4.281   1.410  0.1409  0.0930 -0.3648
 3622SOL    HW111444   3.712   4.251   1.320 -0.1165 -0.1655 -0.3182
 3622SOL    HW211445   3.632   4.222   1.445  0.2102  0.2192 -0.0172
 3623SOL     OW11446   5.292   4.050   3.062 -0.3072  0.0213 -0.5456
 3623SOL    HW111447   5.258   4.139   3.048  2.4368  1.6535  1.9606
 3623SOL    HW211448   5.237   4.014   3.132  1.1860  1.5790  1.5619
 3624SOL     OW11449   8.740   4.479   6.570 -0.2160 -0.2191  0.3932
 3624SOL    HW111450   8.748   4.574   6.576 -0.3780 -0.3016  2.4282
 3624SOL    HW211451   8.645   4.463   6.566 -0.1663 -0.2651 -1.4663
 3625SOL     OW11452   9.889   9.450   4.830  0.2836 -0.5683  0.2639
 3625SOL    HW111453   9.797   9.428   4.848  0.5129 -0.6322  1.4743
 3625SOL    HW211454   9.938   9.398   4.894  1.0184  1.2197  1.1924
 3626SOL     OW11455   4.038   2.435   3.300  0.7660  0.2052  0.1249
 3626SOL    HW111456   4.023   2.356   3.352 -0.5509  1.2929  1.4801
 3626SOL    HW211457   3.989   2.420   3.219 -0.8934  0.2899  1.0746
 3627SOL     OW11458   6.015   7.203   8.852 -0.0680  0.3674 -0.4981
 3627SOL    HW111459   6.091   7.217   8.796 -0.7663 -0.1161 -1.5993
 3627SOL    HW211460   6.016   7.276   8.913 -0.7815  2.4361 -2.8190
 3628SOL     OW11461   6.342   7.424   4.149 -0.0761  1.1820  0.7447
 3628SOL    HW111462   6.292   7.388   4.075  0.9517 -0.4040  0.7832
 3628SOL    HW211463   6.377   7.507   4.116  1.1457  0.0589 -0.8960
 3629SOL     OW11464   8.258   7.932   1.580  0.5312  0.0355 -0.3274
 3629SOL    HW111465   8.259   7.990   1.656 -0.7213 -0.6231  0.2376
 3629SOL    HW211466   8.292   7.849   1.613  1.0795  0.0685 -0.7965
 3630SOL     OW11467   0.712   2.322   0.317 -0.2395 -0.0625  0.0622
 3630SOL    HW111468   0.766   2.251   0.283  0.2961  0.9219 -1.2248
 3630SOL    HW211469   0.708   2.386   0.246 -0.3684  1.3914  1.3051
 3631SOL     OW11470   4.956   6.564   8.442 -0.4666 -0.5511 -0.0620
 3631SOL    HW111471   4.911   6.594   8.521  1.0138  1.8873 -0.0525
 3631SOL    HW211472   5.002   6.485   8.470 -0.5928 -0.1654  1.3248
 3632SOL     OW11473   4.305   8.833   6.309  0.0121  0.2071  0.0987
 3632SOL    HW111474   4.266   8.917   6.331 -0.8214 -0.3216  0.7322
 3632SOL    HW211475   4.284   8.820   6.216 -1.6891 -0.2245  0.5116
 3633SOL     OW11476   9.439   2.363   1.095  0.1383 -0.1340  0.1555
 3633SOL    HW111477   9.445   2.324   1.182  1.4218  1.7016  0.9617
 3633SOL    HW211478   9.527   2.356   1.059 -0.1898 -0.1593 -0.6744
 3634SOL     OW11479   2.055   8.814   3.357 -0.2513  0.1587 -0.0653
 3634SOL    HW111480   2.085   8.846   3.442 -0.6833 -1.3492  0.7077
 3634SOL    HW211481   1.996   8.741   3.379  1.4751 -1.8540 -1.6802
 3635SOL     OW11482   8.651   6.657   1.612 -0.1205 -0.1375 -0.1235
 3635SOL    HW111483   8.619   6.624   1.697 -1.8682 -0.3517 -0.8239
 3635SOL    HW211484   8.735   6.697   1.633 -0.3903 -0.3967  1.6814
 3636SOL     OW11485   0.363   1.286   5.709 -0.1424 -0.1916  0.3547
 3636SOL    HW111486   0.381   1.374   5.676 -0.4069 -0.8756 -1.7298
 3636SOL    HW211487   0.276   1.292   5.749 -0.1602  0.4983  0.2133
 3637SOL     OW11488   9.045   8.933   4.391  0.1174 -0.1867  0.5189
 3637SOL    HW111489   9.086   8.856   4.430 -1.2676 -0.7452  0.9579
 3637SOL    HW211490   9.115   8.976   4.343  0.9263 -1.7258  0.2485
 3638SOL     OW11491   1.261   4.922   1.841 -0.2439  0.2667  0.1192
 3638SOL    HW111492   1.251   4.869   1.761  0.3374  0.6014 -0.1829
 3638SOL    HW211493   1.269   5.012   1.809 -4.3752  1.0734  0.7306
 3639SOL     OW11494   0.275   6.200   6.498 -0.1480 -0.3957 -0.3077
 3639SOL    HW111495   0.351   6.181   6.444 -0.6685  0.0758 -1.2345
 3639SOL    HW211496   0.216   6.250   6.440 -2.0485 -2.4513 -0.3147
 3640SOL     OW11497   8.013   9.123   0.099  0.3143 -0.0707  0.2808
 3640SOL    HW111498   7.971   9.049   0.144 -0.8086  0.7499  0.6331
 3640SOL    HW211499   7.971   9.200   0.136  0.1445  0.6823 -1.3947
 3641SOL     OW11500   7.359   8.546   4.016 -0.1914  0.4699  0.1705
 3641SOL    HW111501   7.432   8.514   4.069  1.0224  3.1856  0.3414
 3641SOL    HW211502   7.293   8.573   4.080 -0.5622 -0.2658  0.0998
 3642SOL     OW11503   5.524   4.118   9.668  0.2600  0.0618 -0.2197
 3642SOL    HW111504   5.505   4.157   9.583  0.3399 -2.6639 -1.6154
 3642SOL    HW211505   5.439   4.094   9.704  0.3175 -2.8595 -1.7296
 3643SOL     OW11506   7.683   9.077   6.053  0.1332  0.3149  0.3604
 3643SOL    HW111507   7.766   9.068   6.007  0.1097  0.5299  0.2717
 3643SOL    HW211508   7.684   9.008   6.119 -0.1950 -0.5302 -0.5027
 3644SOL     OW11509   8.031   6.964   8.870  0.2680  0.6515 -0.5254
 3644SOL    HW111510   8.127   6.971   8.866  0.1452  2.4011 -1.9339
 3644SOL    HW211511   8.011   6.881   8.826  1.1645 -0.3360  0.8525
 3645SOL     OW11512   1.228   5.706   9.612  0.7911  0.4791  0.6148
 3645SOL    HW111513   1.145   5.660   9.625  0.2109  1.2152 -0.3446
 3645SOL    HW211514   1.265   5.667   9.532  2.3104 -1.1525  2.0426
 3646SOL     OW11515   8.703   3.444   7.080  0.0255  0.6448 -0.2280
 3646SOL    HW111516   8.722   3.525   7.033 -1.9331  0.4281 -1.5235
 3646SOL    HW211517   8.614   3.457   7.114  0.4535 -0.1958  1.3301
 3647SOL     OW11518   7.093   4.830   0.867  0.0756  0.5686  0.2859
 3647SOL    HW111519   7.076   4.781   0.947 -0.0728  1.3507  0.7332
 3647SOL    HW211520   7.008   4.835   0.823  0.3887 -1.0478 -0.6320
 3648SOL     OW11521   8.819   4.858   5.384 -0.2649 -0.1642 -0.4705
 3648SOL    HW111522   8.900   4.819   5.416 -0.1001  0.4184 -0.1655
 3648SOL    HW211523   8.768   4.876   5.464 -0.1296  0.6896 -0.5609
 3649SOL     OW11524   3.861   7.085   1.423 -0.0221  0.0088 -0.0424
 3649SOL    HW111525   3.848   7.120   1.334 -1.6421  1.8889  0.8576
 3649SOL    HW211526   3.773   7.083   1.460  0.4872 -1.8112  1.2030
 3650SOL     OW11527   7.342   3.102   1.377  0.4520 -0.1852  0.5236
 3650SOL    HW111528   7.349   3.012   1.346  0.9422 -0.4171  1.2709
 3650SOL    HW211529   7.287   3.146   1.312 -1.2563 -1.4280  1.0554
 3651SOL     OW11530   9.337   4.717   6.263  0.1916  0.1744 -0.2010
 3651SOL    HW111531   9.275   4.775   6.306  1.8596  2.4478 -0.6927
 3651SOL    HW211532   9.320   4.631   6.301 -1.4224  1.2335  1.6185
 3652SOL     OW11533   1.379   6.196   5.857 -0.0482  0.6104  0.1935
 3652SOL    HW111534   1.355   6.227   5.770  0.5754  0.2786 -0.0987
 3652SOL    HW211535   1.387   6.276   5.909  2.1045  1.0504 -0.6969
 3653SOL     OW11536   3.893   5.463   2.006 -0.1773  0.5067  0.2382
 3653SOL    HW111537   3.843   5.422   2.077 -0.8594  1.2512  0.2075
 3653SOL    HW211538   3.917   5.391   1.949 -2.0655  0.2057 -0.2598
 3654SOL     OW11539   8.453   6.306   7.186 -0.2808  0.1868  0.1019
 3654SOL    HW111540   8.447   6.353   7.103  1.3129 -1.3144 -0.9538
 3654SOL    HW211541   8.494   6.368   7.246  0.3887  0.6587 -0.8160
 3655SOL     OW11542   1.611   2.579   7.610  0.8398 -0.2970 -0.2485
 3655SOL    HW111543   1.684   2.613   7.559  0.5080 -2.8055 -2.6711
 3655SOL    HW211544   1.651   2.515   7.670  0.8991  0.3651  0.4271
 3656SOL     OW11545   0.791   0.619   6.255  0.2156  0.4698 -0.5409
 3656SOL    HW111546   0.696   0.619   6.268  0.1765  0.0728 -0.8141
 3656SOL    HW211547   0.825   0.572   6.331  0.3827  2.5423  0.7651
 3657SOL     OW11548   2.927   0.865   6.518  0.1112 -0.4740  0.5652
 3657SOL    HW111549   2.857   0.851   6.453 -0.4243 -2.1887  1.4436
 3657SOL    HW211550   2.996   0.804   6.492  0.5447 -0.0590  0.7312
 3658SOL     OW11551   8.170   3.610   9.323 -0.4549 -0.1676 -0.3060
 3658SOL    HW111552   8.127   3.538   9.369 -0.8651  0.2937  0.0348
 3658SOL    HW211553   8.259   3.612   9.358 -0.8918  0.4692  0.8040
 3659SOL     OW11554   4.643   0.659   4.055  0.1457  0.1543 -0.5168
 3659SOL    HW111555   4.648   0.748   4.089 -0.7606 -0.7112  2.1583
 3659SOL    HW211556   4.622   0.669   3.962 -1.5354  2.7174  0.0499
 3660SOL     OW11557   3.291   5.712   7.346 -0.2220  0.5407  0.2790
 3660SOL    HW111558   3.314   5.620   7.363 -1.4406  0.4080  1.4092
 3660SOL    HW211559   3.364   5.747   7.296 -0.3154 -1.4250 -1.3809
 3661SOL     OW11560   4.556   0.664   0.339 -0.1871 -0.5892  0.3167
 3661SOL    HW111561   4.505   0.656   0.259 -0.1077  0.9828  0.0620
 3661SOL    HW211562   4.497   0.709   0.400  0.5091  0.3059  0.3549
 3662SOL     OW11563   8.534   2.288   2.849  0.5054  0.6082 -0.1017
 3662SOL    HW111564   8.579   2.243   2.920 -0.5708  0.1186  0.2972
 3662SOL    HW211565   8.497   2.366   2.889 -0.5097  0.0898  0.0152
 3663SOL     OW11566   5.222   5.441   1.819 -0.4847  0.1201 -0.0801
 3663SOL    HW111567   5.298   5.497   1.836 -0.1154 -0.2514 -0.5021
 3663SOL    HW211568   5.175   5.438   1.903  0.1695  0.0353  0.2904
 3664SOL     OW11569   6.597   0.096   3.755  0.5275 -0.3403  0.3678
 3664SOL    HW111570   6.617   0.132   3.842 -0.2945  1.3551 -0.0921
 3664SOL    HW211571   6.502   0.108   3.746  0.3175 -2.1432 -0.0727
 3665SOL     OW11572   1.585   1.744   5.117  0.0042  0.4509  0.2273
 3665SOL    HW111573   1.678   1.722   5.121  0.1889  1.0955 -0.3266
 3665SOL    HW211574   1.582   1.827   5.070 -1.0904 -1.0376 -2.5220
 3666SOL     OW11575   5.519   7.747   9.687 -0.3695  0.1703  0.0447
 3666SOL    HW111576   5.511   7.840   9.707  0.0656  0.0752  0.6803
 3666SOL    HW211577   5.455   7.705   9.744  0.5132 -0.0561  0.8746
 3667SOL     OW11578   2.988   0.319   8.085  0.2065 -0.0747 -0.1607
 3667SOL    HW111579   2.993   0.371   8.006  0.4915  0.9460  0.5124
 3667SOL    HW211580   3.044   0.365   8.148  1.4555 -1.8367  0.0982
 3668SOL     OW11581   1.788   4.918   1.727  0.1886 -0.2560 -0.4293
 3668SOL    HW111582   1.735   4.879   1.658  1.2411 -0.3285 -1.2224
 3668SOL    HW211583   1.869   4.868   1.727  0.6845  0.5192  0.0368
 3669SOL     OW11584   3.395   0.336   7.321 -0.2914 -0.1229  0.3699
 3669SOL    HW111585   3.420   0.405   7.383 -1.9943 -0.5022  1.5520
 3669SOL    HW211586   3.422   0.370   7.236 -1.1867  2.0946  0.8866
 3670SOL     OW11587   3.264   0.871   2.723  0.2909  0.2415  0.7203
 3670SOL    HW111588   3.176   0.901   2.745  0.4804  0.4776  1.1763
 3670SOL    HW211589   3.279   0.796   2.781 -0.8311 -1.8741 -1.5741
 3671SOL     OW11590   9.350   3.973   8.288  0.6257  0.5274 -0.2411
 3671SOL    HW111591   9.291   3.989   8.215 -0.8025 -2.2337  0.1751
 3671SOL    HW211592   9.302   4.004   8.365 -0.0878 -1.0548  0.0097
 3672SOL     OW11593   1.388   1.644   6.547 -0.0839 -0.3785 -0.9691
 3672SOL    HW111594   1.418   1.561   6.585 -0.9152  0.3651  1.4760
 3672SOL    HW211595   1.295   1.630   6.528  0.3794 -0.8318 -3.1481
 3673SOL     OW11596   8.694   9.248   0.146  0.1472  0.5274  0.1784
 3673SOL    HW111597   8.690   9.153   0.156  0.6813  0.4033 -0.6904
 3673SOL    HW211598   8.603   9.277   0.154  0.1773  0.1841  2.4856
 3674SOL     OW11599   6.276   3.037   5.955 -0.1080 -0.0194 -0.0535
 3674SOL    HW111600   6.288   3.020   6.048  1.2630  0.3947 -0.1404
 3674SOL    HW211601   6.354   3.086   5.929 -0.8082  0.4952 -1.2654
 3675SOL     OW11602   3.590   0.931   4.147  0.2009  0.2278  0.3746
 3675SOL    HW111603   3.513   0.971   4.106 -1.5307 -0.1986  3.0164
 3675SOL    HW211604   3.663   0.989   4.121 -0.4541 -0.4931 -3.9291
 3676SOL     OW11605   0.160   8.426   7.600 -0.0523  0.0763 -0.2099
 3676SOL    HW111606   0.088   8.408   7.539 -1.2511 -0.9643  1.3801
 3676SOL    HW211607   0.124   8.492   7.660  0.3481 -0.3452  0.5141
 3677SOL     OW11608   5.763   6.769   7.978  0.7386 -0.4578 -0.1801
 3677SOL    HW111609   5.698   6.698   7.973  1.3116 -1.1635  1.6623
 3677SOL    HW211610   5.728   6.829   8.044  0.4094  0.8776 -1.5145
 3678SOL     OW11611   6.477   3.879   7.904 -0.6409 -0.4800 -0.2300
 3678SOL    HW111612   6.459   3.968   7.934  1.5575  0.3087 -1.0428
 3678SOL    HW211613   6.501   3.832   7.984  0.6126  0.3422 -0.0995
 3679SOL     OW11614   9.648   3.021   2.436  0.1437 -0.4044 -0.6781
 3679SOL    HW111615   9.622   2.936   2.401 -3.2025  0.0810  0.2244
 3679SOL    HW211616   9.626   3.016   2.529  1.6013  0.8813 -0.2268
 3680SOL     OW11617   8.239   3.959   3.178 -0.3517 -0.2414  0.1146
 3680SOL    HW111618   8.296   4.001   3.113  1.0775 -1.0097  0.8242
 3680SOL    HW211619   8.193   4.032   3.221  2.4750  0.7628  1.7075
 3681SOL     OW11620   4.560   7.321   7.597 -0.0638  0.5814  0.1377
 3681SOL    HW111621   4.638   7.266   7.596  0.1197  0.8034  1.2270
 3681SOL    HW211622   4.491   7.265   7.560  0.3773  0.0289  0.1376
 3682SOL     OW11623   5.362   5.113   5.061  0.2562  0.5428  0.2662
 3682SOL    HW111624   5.449   5.103   5.023  0.0601  0.5149 -0.1886
 3682SOL    HW211625   5.360   5.053   5.135  0.5084  0.2989  0.0745
 3683SOL     OW11626   6.205   0.201   5.149 -0.2230  0.1512  0.6820
 3683SOL    HW111627   6.250   0.216   5.232  2.3188 -1.3615 -0.3133
 3683SOL    HW211628   6.165   0.114   5.158  0.1877 -0.0822  0.2882
 3684SOL     OW11629   3.532   8.561   6.721 -0.3542  0.5234 -0.7132
 3684SOL    HW111630   3.627   8.571   6.711  0.3264 -1.8175  1.9666
 3684SOL    HW211631   3.516   8.469   6.700 -2.3155  1.1992 -2.4543
 3685SOL     OW11632   1.401   0.392   4.730  0.0676 -0.2428 -0.4426
 3685SOL    HW111633   1.377   0.446   4.654  0.4962 -0.9818 -1.1181
 3685SOL    HW211634   1.415   0.455   4.801 -0.4849  0.4504 -0.9369
 3686SOL     OW11635   0.487   1.109   6.597  0.0107  0.4996 -0.0852
 3686SOL    HW111636   0.551   1.109   6.525  0.5388  1.7622  0.3605
 3686SOL    HW211637   0.452   1.198   6.598 -2.2217 -0.3154 -0.6848
 3687SOL     OW11638   6.979   9.586   6.246 -0.1268 -0.4250  0.8647
 3687SOL    HW111639   6.940   9.646   6.309  1.5054 -0.5758  2.0636
 3687SOL    HW211640   6.984   9.502   6.292 -1.4979 -1.2903 -0.4610
 3688SOL     OW11641   3.011   9.288   8.596 -0.0536  0.1078  0.1521
 3688SOL    HW111642   2.972   9.205   8.570 -0.8840  0.3547  0.5717
 3688SOL    HW211643   3.079   9.264   8.659  0.4952 -0.3275 -0.5936
 3689SOL     OW11644   5.757   4.389   8.117 -0.8336  0.5772  0.0240
 3689SOL    HW111645   5.715   4.319   8.166 -0.9046  1.2801  0.9878
 3689SOL    HW211646   5.775   4.350   8.031 -0.2244 -0.8312  0.7584
 3690SOL     OW11647   6.654   4.071   3.499  0.6347 -0.4209 -0.0359
 3690SOL    HW111648   6.574   4.022   3.488  0.8887 -0.8570  0.0462
 3690SOL    HW211649   6.703   4.057   3.418 -0.6523  2.2953 -1.4362
 3691SOL     OW11650   9.180   7.970   9.637  0.5261 -0.1083 -0.0125
 3691SOL    HW111651   9.098   7.938   9.599  0.7223 -1.6261  0.7604
 3691SOL    HW211652   9.153   8.040   9.697 -0.4618 -1.9260  1.7484
 3692SOL     OW11653   6.342   9.012   3.756 -0.3206 -0.3549 -0.1229
 3692SOL    HW111654   6.264   9.008   3.811  0.2194 -0.4017  0.6703
 3692SOL    HW211655   6.349   8.924   3.719  0.3383 -0.9250  1.2527
 3693SOL     OW11656   7.381   1.126   7.304  0.6918  0.3529 -0.0242
 3693SOL    HW111657   7.307   1.074   7.338  0.4961  0.6267 -0.0289
 3693SOL    HW211658   7.401   1.186   7.375 -1.1589  2.4612 -1.1598
 3694SOL     OW11659   0.332   1.346   7.830  0.0375  0.0912 -0.2131
 3694SOL    HW111660   0.304   1.393   7.909 -0.5648 -0.4612 -0.0807
 3694SOL    HW211661   0.271   1.375   7.762  1.4734  1.7053 -0.8794
 3695SOL     OW11662   7.191   2.032   8.437  0.7389 -0.5371  0.1392
 3695SOL    HW111663   7.257   2.013   8.504  1.9312 -1.0097 -1.1275
 3695SOL    HW211664   7.225   1.992   8.357 -0.8842 -0.4128 -0.6608
 3696SOL     OW11665   4.526   7.478   3.110  0.0348  0.5993  0.3032
 3696SOL    HW111666   4.521   7.393   3.067  0.5141  0.3677  0.6925
 3696SOL    HW211667   4.479   7.465   3.192 -0.4283  0.8878  0.0808
 3697SOL     OW11668   4.839   5.411   5.194  0.1805  0.1146 -0.1951
 3697SOL    HW111669   4.778   5.482   5.175  1.4201  0.8284 -1.7959
 3697SOL    HW211670   4.907   5.420   5.128  0.6584 -2.2754 -0.1214
 3698SOL     OW11671   4.366   8.961   5.836  0.5921  0.2479  0.1312
 3698SOL    HW111672   4.343   9.028   5.771  0.5468  0.3802  0.2807
 3698SOL    HW211673   4.458   8.942   5.818  0.8210  0.9059  0.5696
 3699SOL     OW11674   6.017   5.163   1.907  0.0269 -0.3158 -0.1456
 3699SOL    HW111675   6.075   5.229   1.944  0.3207 -1.2648  1.1953
 3699SOL    HW211676   5.933   5.208   1.894  0.6421  0.6833 -0.7074
 3700SOL     OW11677   8.600   4.177   2.141  0.2820 -0.3151  0.3165
 3700SOL    HW111678   8.617   4.250   2.081 -0.7785  0.6141  1.1147
 3700SOL    HW211679   8.544   4.118   2.091  0.4490 -0.1792 -0.0386
 3701SOL     OW11680   7.022   0.164   8.461 -0.2411  0.7308  0.4389
 3701SOL    HW111681   7.036   0.073   8.488 -1.9355 -0.3920 -2.0602
 3701SOL    HW211682   7.088   0.181   8.395 -1.4788  0.3680 -0.9492
 3702SOL     OW11683   7.538   7.520   3.500 -0.2316  0.0485  0.0491
 3702SOL    HW111684   7.454   7.553   3.468  0.8374  0.4283 -2.6361
 3702SOL    HW211685   7.530   7.425   3.494 -1.9857 -0.2943  4.2598
 3703SOL     OW11686   5.209   7.909   6.588  0.2467  0.3234  0.6560
 3703SOL    HW111687   5.237   7.832   6.638  0.0328 -0.8517 -0.9547
 3703SOL    HW211688   5.126   7.882   6.548  0.3600  1.2560 -0.2260
 3704SOL     OW11689   1.900   7.430   1.615 -0.1163  0.2720 -0.7467
 3704SOL    HW111690   1.950   7.481   1.552  0.2958 -0.0569 -0.6908
 3704SOL    HW211691   1.809   7.440   1.587 -0.0545  1.1139 -0.6756
 3705SOL     OW11692   2.654   2.585   5.720 -0.2945  0.4404  0.3156
 3705SOL    HW111693   2.567   2.593   5.759 -0.5159  0.3065 -0.1394
 3705SOL    HW211694   2.638   2.546   5.634  0.2910 -0.3629  0.5572
 3706SOL     OW11695   2.764   7.923   1.941 -0.2947  0.3182 -0.1271
 3706SOL    HW111696   2.744   7.910   2.034  0.0856  0.2474 -0.0514
 3706SOL    HW211697   2.836   7.986   1.941 -1.0877  1.2433 -0.4291
 3707SOL     OW11698   3.125   0.776   3.414  0.3117  0.1954 -0.2130
 3707SOL    HW111699   3.050   0.783   3.355 -0.0765  2.7693  0.4804
 3707SOL    HW211700   3.085   0.762   3.500  0.5414  2.0804  0.2370
 3708SOL     OW11701   2.425   1.050   1.804  0.0134  0.1604  0.3039
 3708SOL    HW111702   2.337   1.024   1.778  0.2865 -1.7613  1.0869
 3708SOL    HW211703   2.455   1.107   1.733 -1.4015 -0.1460 -0.5883
 3709SOL     OW11704   4.889   0.932   6.880 -0.0061 -0.7937 -0.3661
 3709SOL    HW111705   4.972   0.971   6.852 -1.0251  0.0015 -2.4741
 3709SOL    HW211706   4.864   0.982   6.958  0.7815 -0.0775 -0.5552
 3710SOL     OW11707   2.792   6.476   6.804  0.5521 -0.4824 -0.2059
 3710SOL    HW111708   2.839   6.506   6.882 -0.9252 -0.3502  0.6716
 3710SOL    HW211709   2.740   6.402   6.835  0.7613 -1.1154 -1.3268
 3711SOL     OW11710   6.644   5.166   7.507  0.2490 -0.0343  0.1490
 3711SOL    HW111711   6.694   5.212   7.574  1.6494 -1.5448  0.2041
 3711SOL    HW211712   6.677   5.202   7.424 -0.1152  0.4603  0.2085
 3712SOL     OW11713   5.915   6.053   8.205 -0.4893  0.0535 -0.6333
 3712SOL    HW111714   5.880   5.964   8.218 -0.7649  0.1779 -0.5107
 3712SOL    HW211715   5.837   6.108   8.195 -0.3084  0.2091 -1.1850
 3713SOL     OW11716   0.181   6.197   3.403  0.2877 -0.2689  0.0328
 3713SOL    HW111717   0.272   6.166   3.403  0.7493  0.9765 -1.1990
 3713SOL    HW211718   0.153   6.187   3.312 -0.9015 -0.8539  0.4483
 3714SOL     OW11719   2.770   7.262   0.784  0.0149  0.0266 -0.1372
 3714SOL    HW111720   2.742   7.209   0.709 -2.1449 -0.4954  0.9458
 3714SOL    HW211721   2.864   7.276   0.771 -0.0317 -1.2485 -2.1736
 3715SOL     OW11722   8.059   4.209   7.327  0.4367 -0.0233 -0.4728
 3715SOL    HW111723   8.043   4.122   7.363  0.5731 -0.4050 -1.2973
 3715SOL    HW211724   8.055   4.196   7.232  0.9397  0.7802 -0.6107
 3716SOL     OW11725   5.374   4.795   6.847  0.1893  0.3898 -0.4445
 3716SOL    HW111726   5.366   4.735   6.921 -0.3159  1.1189  0.1001
 3716SOL    HW211727   5.468   4.794   6.825  0.8163  2.0076  1.7841
 3717SOL     OW11728   1.273   8.788   7.063  0.4000  0.5464 -0.0072
 3717SOL    HW111729   1.289   8.865   7.117  0.2937  1.4128 -1.1769
 3717SOL    HW211730   1.283   8.819   6.973 -2.6542 -0.0351 -0.6564
 3718SOL     OW11731   0.358   4.985   0.518 -0.1448  0.1642  0.2726
 3718SOL    HW111732   0.433   5.045   0.520  1.3167 -1.2648 -3.2642
 3718SOL    HW211733   0.292   5.031   0.467  0.1433 -0.3044 -0.5510
 3719SOL     OW11734   4.508   7.155   8.587  0.9170 -0.4684 -0.3578
 3719SOL    HW111735   4.507   7.132   8.680 -0.7420 -1.3561 -0.5706
 3719SOL    HW211736   4.426   7.121   8.553  1.0999  0.6247 -1.9814
 3720SOL     OW11737   5.034   0.227   9.632  0.0655  0.2680  0.0933
 3720SOL    HW111738   5.039   0.287   9.558  0.7340 -0.0594 -0.1387
 3720SOL    HW211739   5.048   0.281   9.709  2.1280  0.2150 -0.2044
 3721SOL     OW11740   2.141   5.340   7.494  0.0146  0.0227  0.2458
 3721SOL    HW111741   2.180   5.281   7.430  0.7649  1.4967 -0.7145
 3721SOL    HW211742   2.108   5.282   7.563  0.8086 -1.4884 -0.5873
 3722SOL     OW11743   4.207   0.682   5.042  0.2015 -0.7424  0.2466
 3722SOL    HW111744   4.261   0.720   4.973  0.9335  0.9525  1.6617
 3722SOL    HW211745   4.120   0.718   5.027  0.3170 -0.5240  0.0920
 3723SOL     OW11746   3.128   8.582   8.947 -0.8395  0.4725 -0.0107
 3723SOL    HW111747   3.104   8.572   8.855  0.7118 -1.4216 -0.2848
 3723SOL    HW211748   3.110   8.497   8.986  1.6863  0.1250  0.5943
 3724SOL     OW11749   8.125   4.014   1.330  0.0120  0.6938  0.6405
 3724SOL    HW111750   8.049   3.960   1.351  0.4756  0.4224  1.6857
 3724SOL    HW211751   8.186   3.953   1.287 -0.6225  1.0719 -0.8547
 3725SOL     OW11752   2.268   1.781   1.090 -0.4189 -0.0686 -0.0474
 3725SOL    HW111753   2.280   1.781   0.995 -0.7504  0.1330 -0.0926
 3725SOL    HW211754   2.356   1.790   1.126 -0.0508 -2.1569 -0.2921
 3726SOL     OW11755   8.347   4.551   4.073 -0.1072 -0.0361 -0.5885
 3726SOL    HW111756   8.308   4.473   4.035  0.6133 -0.7642  0.1166
 3726SOL    HW211757   8.280   4.587   4.131 -0.8233  0.4843 -1.7058
 3727SOL     OW11758   9.149   3.189   2.130  0.2957 -0.0342  0.1997
 3727SOL    HW111759   9.185   3.132   2.061 -1.0663  0.6329 -1.1022
 3727SOL    HW211760   9.057   3.163   2.136 -0.1136  1.3889  0.2465
 3728SOL     OW11761   8.035   2.423   4.945 -0.0244 -0.1082  0.0803
 3728SOL    HW111762   8.099   2.463   5.004  1.8084  1.7605 -2.8929
 3728SOL    HW211763   7.953   2.466   4.966  0.0088 -1.0953  2.6350
 3729SOL     OW11764   7.261   4.702   5.802 -0.1842  0.2739 -0.5345
 3729SOL    HW111765   7.240   4.751   5.881 -0.0812 -0.2340 -0.1920
 3729SOL    HW211766   7.199   4.629   5.801  0.5121 -0.3244 -0.3589
 3730SOL     OW11767   1.690   4.705   1.530  0.0241 -0.1197 -0.3963
 3730SOL    HW111768   1.695   4.630   1.590  1.2156 -0.9650 -1.4905
 3730SOL    HW211769   1.670   4.666   1.445 -1.2817  1.0214 -0.6447
 3731SOL     OW11770   2.806   9.707   9.002  0.0020 -0.1716 -0.4568
 3731SOL    HW111771   2.816   9.641   9.071  1.3401  0.0682 -0.3967
 3731SOL    HW211772   2.847   9.786   9.038 -1.7882  0.7865 -0.4377
 3732SOL     OW11773   0.134   4.428   9.685 -0.2155  0.3097 -0.3239
 3732SOL    HW111774   0.175   4.361   9.740 -0.2604  0.6648  0.1439
 3732SOL    HW211775   0.208   4.480   9.652 -0.3454  2.2759  2.2133
 3733SOL     OW11776   7.478   9.927   3.939 -0.2156 -0.0607 -0.3800
 3733SOL    HW111777   7.525   9.952   4.019 -0.8704  1.2279 -0.3839
 3733SOL    HW211778   7.396   9.889   3.970  0.5438 -1.8481 -0.3940
 3734SOL     OW11779   0.377   4.342   2.035  0.2724  0.1698  0.4847
 3734SOL    HW111780   0.411   4.276   1.975 -2.9945 -0.6940 -0.6738
 3734SOL    HW211781   0.343   4.291   2.109  0.2510  0.8022  0.9182
 3735SOL     OW11782   5.535   2.032   4.536  0.4081 -0.4454  0.6357
 3735SOL    HW111783   5.543   1.943   4.501 -2.3209 -1.2900  1.8876
 3735SOL    HW211784   5.578   2.028   4.621  2.8463  0.3200 -0.4664
 3736SOL     OW11785   4.747   5.839   2.084 -0.2047 -0.3948  0.1208
 3736SOL    HW111786   4.814   5.859   2.019  0.6343 -0.0787  1.0643
 3736SOL    HW211787   4.675   5.802   2.033  0.8124 -1.0796 -0.8719
 3737SOL     OW11788   5.158   1.791   9.200  0.0275 -0.6531  0.2844
 3737SOL    HW111789   5.072   1.756   9.176  0.8339 -2.6534  0.1306
 3737SOL    HW211790   5.221   1.727   9.166  1.5529  0.2448  1.2781
 3738SOL     OW11791   1.192   7.626   2.140  0.3835  0.3310  0.2398
 3738SOL    HW111792   1.202   7.598   2.049 -1.8509 -0.3778  0.1643
 3738SOL    HW211793   1.146   7.710   2.134 -0.9543 -0.3458  0.7166
 3739SOL     OW11794   3.409   1.507   4.615 -0.2909  0.0614 -0.0702
 3739SOL    HW111795   3.502   1.515   4.634 -0.1625 -0.9376 -0.2186
 3739SOL    HW211796   3.405   1.482   4.523 -0.6843 -0.3890  0.0653
 3740SOL     OW11797   6.205   8.610   5.188 -0.6258 -0.6892 -0.0175
 3740SOL    HW111798   6.152   8.638   5.262 -0.6856  0.8198 -0.5790
 3740SOL    HW211799   6.163   8.531   5.156 -2.5104  0.3989 -0.3855
 3741SOL     OW11800   2.025   2.618   4.225  0.0919 -0.5661 -0.1516
 3741SOL    HW111801   2.094   2.625   4.159 -1.4580 -0.9015 -1.8968
 3741SOL    HW211802   2.072   2.612   4.308  2.1477 -0.8220 -1.2614
 3742SOL     OW11803   1.590   8.031   1.491 -0.0554 -0.1130  0.2849
 3742SOL    HW111804   1.668   8.073   1.454  0.6752 -1.7600 -0.1258
 3742SOL    HW211805   1.516   8.075   1.448  0.7299 -1.4120 -2.6540
 3743SOL     OW11806   2.388   4.951   4.189 -0.0981  0.0989  0.6839
 3743SOL    HW111807   2.330   5.023   4.168  0.4017  0.3550  0.1417
 3743SOL    HW211808   2.386   4.945   4.285 -1.2863 -0.1384  0.6573
 3744SOL     OW11809   2.026   9.388   4.312 -0.0760 -0.3660  0.4508
 3744SOL    HW111810   2.086   9.417   4.243  1.3022 -1.5424  1.0833
 3744SOL    HW211811   2.077   9.396   4.393 -1.5158  0.5880  1.3033
 3745SOL     OW11812   4.005   9.342   3.568  0.4736 -0.1811  0.1761
 3745SOL    HW111813   3.965   9.271   3.518 -0.4876 -0.3769  1.2023
 3745SOL    HW211814   4.008   9.415   3.507 -3.2040  0.4344  0.5382
 3746SOL     OW11815   9.353   5.551   9.084  0.3622  0.1201  0.1402
 3746SOL    HW111816   9.347   5.488   9.011 -1.1336  2.1641 -1.6484
 3746SOL    HW211817   9.408   5.507   9.149 -0.2829 -2.8612 -1.1316
 3747SOL     OW11818   1.474   7.229   0.315  0.6065  0.4732 -0.0206
 3747SOL    HW111819   1.446   7.153   0.365  1.1531 -0.5250 -1.1717
 3747SOL    HW211820   1.442   7.212   0.226  0.6889  1.6210 -0.2912
 3748SOL     OW11821   2.807   9.905   1.148  0.1659  0.3139 -0.2940
 3748SOL    HW111822   2.898   9.925   1.125  0.1888 -0.4407 -0.9127
 3748SOL    HW211823   2.768   9.874   1.066 -0.4710  0.0144  0.1149
 3749SOL     OW11824   2.566   3.627   8.110 -0.1122 -0.1222  0.4267
 3749SOL    HW111825   2.492   3.566   8.102 -0.5334  0.1114  2.1165
 3749SOL    HW211826   2.639   3.580   8.070 -1.4437  0.2977 -2.8017
 3750SOL     OW11827   3.274   4.615   2.407  0.0665 -0.4947  0.2083
 3750SOL    HW111828   3.241   4.567   2.484  1.6207 -2.2790 -0.1779
 3750SOL    HW211829   3.249   4.706   2.424  0.0878 -0.8704  2.6873
 3751SOL     OW11830   0.181   9.680   0.377 -0.5616 -0.2723 -0.6403
 3751SOL    HW111831   0.227   9.626   0.313  3.6702  2.8043 -0.6420
 3751SOL    HW211832   0.159   9.760   0.329  0.8048  1.2324  1.0973
 3752SOL     OW11833   0.114   3.494  10.002 -0.0918  0.1781  0.0547
 3752SOL    HW111834   0.103   3.585   9.974 -1.3406  0.3278  0.9498
 3752SOL    HW211835   0.166   3.453   9.933 -1.3265  1.0418 -1.4386
 3753SOL     OW11836   2.998   2.482   2.737 -0.7883  0.3265 -0.5569
 3753SOL    HW111837   3.015   2.574   2.719 -0.3814  0.2277 -0.6905
 3753SOL    HW211838   2.904   2.471   2.721 -0.4184  0.1823 -2.9034
 3754SOL     OW11839   1.619   8.525   8.756  0.1627  0.0503 -0.2502
 3754SOL    HW111840   1.547   8.478   8.714  0.1727  0.3376 -0.5911
 3754SOL    HW211841   1.647   8.590   8.691  1.1844 -0.5031 -0.3846
 3755SOL     OW11842   0.373   9.465   5.223  0.4852  0.6676 -0.5119
 3755SOL    HW111843   0.362   9.496   5.313  3.2298  0.3346  0.0384
 3755SOL    HW211844   0.321   9.384   5.219  0.5427  0.5358  0.8792
 3756SOL     OW11845   2.335   7.375   0.355  0.2962  0.0151  0.3567
 3756SOL    HW111846   2.291   7.325   0.287 -2.4252  2.0877  0.4416
 3756SOL    HW211847   2.265   7.423   0.399  2.4216  1.8525  1.9761
 3757SOL     OW11848   9.994   1.083   7.617  0.3139 -0.4295 -0.6742
 3757SOL    HW111849   9.945   1.162   7.595 -0.9501 -1.1859 -0.6660
 3757SOL    HW211850   9.995   1.032   7.536  2.2438  0.1257 -1.0595
 3758SOL     OW11851   5.611   7.229   7.490  0.0102  0.0084 -0.2965
 3758SOL    HW111852   5.652   7.189   7.413  0.4139 -0.0800 -0.0341
 3758SOL    HW211853   5.550   7.163   7.522 -0.4487  0.1937 -0.7688
 3759SOL     OW11854   4.466   5.681   6.659 -0.3363 -0.3978 -0.3309
 3759SOL    HW111855   4.444   5.771   6.680  1.9528 -0.0140  0.7079
 3759SOL    HW211856   4.411   5.628   6.717 -1.6360  0.2804 -0.8961
 3760SOL     OW11857   9.496   2.678   3.469 -0.8828  0.5069  0.2581
 3760SOL    HW111858   9.425   2.619   3.441 -1.1360  1.2264 -0.6387
 3760SOL    HW211859   9.547   2.693   3.390 -1.4585  2.3658  0.1982
 3761SOL     OW11860   7.980   8.901   4.589  0.5145  0.7974  0.2909
 3761SOL    HW111861   8.028   8.842   4.530  0.4787  0.8175  0.2422
 3761SOL    HW211862   8.004   8.870   4.676 -0.5271 -0.1257  0.2671
 3762SOL     OW11863   5.909   5.752   7.477 -0.1991 -0.0097  0.3389
 3762SOL    HW111864   5.815   5.734   7.483  0.1561 -2.1373  0.6651
 3762SOL    HW211865   5.939   5.697   7.405  1.1461 -1.3106  1.8172
 3763SOL     OW11866   5.336   8.253   5.559  0.7720 -0.6841 -0.1368
 3763SOL    HW111867   5.271   8.201   5.608  1.9696 -1.8928  0.2451
 3763SOL    HW211868   5.338   8.337   5.605 -2.2885  0.3571 -1.6604
 3764SOL     OW11869   6.545   9.519   7.948  0.2517 -0.1387 -0.1578
 3764SOL    HW111870   6.570   9.438   7.905  0.7167  0.2749 -0.6782
 3764SOL    HW211871   6.511   9.492   8.034  0.2453 -0.8865 -0.3945
 3765SOL     OW11872   9.038   3.442   8.054  0.2509  0.0856  0.1277
 3765SOL    HW111873   9.120   3.470   8.014 -1.1117 -0.6786 -3.5236
 3765SOL    HW211874   8.981   3.518   8.048 -0.7336 -0.7530 -1.7951
 3766SOL     OW11875   1.923   9.550   1.593  0.1412  0.5534  0.1273
 3766SOL    HW111876   1.950   9.502   1.514  0.3854  0.5531  0.2094
 3766SOL    HW211877   1.875   9.626   1.560 -0.4956  0.1069  0.0009
 3767SOL     OW11878   6.925   2.103   8.355 -0.6677  0.4632 -0.0411
 3767SOL    HW111879   6.878   2.085   8.436  0.1424  1.2511  0.6178
 3767SOL    HW211880   7.013   2.068   8.370 -0.4978  0.6590 -0.5634
 3768SOL     OW11881   2.066   4.459   4.871 -0.2542 -0.2397  0.4709
 3768SOL    HW111882   2.088   4.433   4.961 -0.9177 -1.6858  0.2520
 3768SOL    HW211883   2.096   4.385   4.818  0.0770  0.5802 -0.4994
 3769SOL     OW11884   1.041   4.153   6.693 -0.5570 -0.3741  0.0102
 3769SOL    HW111885   1.089   4.110   6.764 -0.7403  1.3426  1.2322
 3769SOL    HW211886   0.949   4.127   6.708 -0.6647  0.3867  0.7312
 3770SOL     OW11887   5.795   7.903   3.472 -0.5189  0.3482  1.1076
 3770SOL    HW111888   5.873   7.868   3.429 -1.0094 -1.4502  1.6339
 3770SOL    HW211889   5.827   7.980   3.520  0.7088  0.2845  0.4289
 3771SOL     OW11890   3.867   3.963   4.136 -0.3612  0.4150 -0.2327
 3771SOL    HW111891   3.887   3.873   4.164 -1.2814  0.8574  2.1299
 3771SOL    HW211892   3.952   4.007   4.132 -0.1386  0.4997  2.9076
 3772SOL     OW11893   9.761   7.689   2.055  0.4141 -0.1293 -0.1811
 3772SOL    HW111894   9.804   7.771   2.079  1.4517 -1.2430  2.1111
 3772SOL    HW211895   9.807   7.660   1.976  0.4149  1.1871 -0.6917
 3773SOL     OW11896   3.463   2.864   0.896 -0.0438  0.2131  0.2949
 3773SOL    HW111897   3.385   2.825   0.935  0.2454  0.8342  1.5738
 3773SOL    HW211898   3.513   2.896   0.971  1.5786 -0.4022 -0.4746
 3774SOL     OW11899   0.227   1.341   4.155  0.4711 -0.1001  0.4923
 3774SOL    HW111900   0.139   1.377   4.145  0.4123 -0.4843 -0.4697
 3774SOL    HW211901   0.265   1.346   4.067  1.5731  0.4634  0.9809
 3775SOL     OW11902   8.728   0.320   0.810  0.6314  0.7062  0.0961
 3775SOL    HW111903   8.638   0.308   0.840  1.1610  1.0406  1.9172
 3775SOL    HW211904   8.720   0.375   0.732 -0.8477 -0.8009 -0.8968
 3776SOL     OW11905   0.549   0.413   9.403 -0.2984  0.0412  0.1127
 3776SOL    HW111906   0.481   0.368   9.353  1.6405 -1.6980 -1.1604
 3776SOL    HW211907   0.602   0.457   9.337  0.0407  1.0386  1.0259
 3777SOL     OW11908   3.577   3.885   7.713 -0.0548 -0.0876  0.6581
 3777SOL    HW111909   3.624   3.900   7.795  0.7851 -2.3653  0.6656
 3777SOL    HW211910   3.645   3.890   7.646 -0.0879 -1.5406  0.4817
 3778SOL     OW11911   3.297   8.626   7.827 -0.2740 -1.1130 -0.3698
 3778SOL    HW111912   3.309   8.549   7.771 -1.4945 -0.5982 -1.4061
 3778SOL    HW211913   3.354   8.693   7.789  0.1082 -1.2303 -0.0114
 3779SOL     OW11914   0.402   8.595   5.336 -0.3921  0.0470 -0.2525
 3779SOL    HW111915   0.365   8.546   5.409  0.0305 -0.7576 -0.5721
 3779SOL    HW211916   0.494   8.571   5.334 -0.2589  0.5604 -0.6575
 3780SOL     OW11917   6.496   6.608   9.670 -0.1856  0.5735  0.1972
 3780SOL    HW111918   6.445   6.646   9.598 -0.6212  0.9907  0.7125
 3780SOL    HW211919   6.440   6.541   9.707 -0.1750  0.7173  0.4765
 3781SOL     OW11920   6.479   4.937   5.576  0.3311  0.2298 -0.2183
 3781SOL    HW111921   6.476   4.852   5.534 -1.5638 -0.1914  0.6297
 3781SOL    HW211922   6.448   4.920   5.665  2.2754  1.4173  0.7465
 3782SOL     OW11923   6.999   7.322   4.441 -0.0798 -0.8296  0.6194
 3782SOL    HW111924   6.974   7.254   4.379  1.9973 -1.6388  0.6029
 3782SOL    HW211925   6.934   7.315   4.511 -1.0327 -1.5172 -0.3101
 3783SOL     OW11926   9.461   2.509   1.500  0.0837 -0.6930 -0.2260
 3783SOL    HW111927   9.469   2.481   1.591 -0.0654 -0.0295 -0.0039
 3783SOL    HW211928   9.466   2.605   1.503 -1.4244 -0.5580 -0.7400
 3784SOL     OW11929   4.413   7.153   7.392  0.0786 -0.0494 -0.2051
 3784SOL    HW111930   4.332   7.105   7.381  0.3421 -0.5900  0.1808
 3784SOL    HW211931   4.475   7.089   7.427  0.6067  0.4113 -0.2766
 3785SOL     OW11932   5.871   9.142   4.727 -0.0075 -0.3379 -0.2919
 3785SOL    HW111933   5.814   9.216   4.747  0.0053 -0.2838 -0.4489
 3785SOL    HW211934   5.958   9.181   4.714 -0.2108 -0.2344 -1.4635
 3786SOL     OW11935   5.285   5.862   3.547 -0.0665  0.3082 -0.2124
 3786SOL    HW111936   5.362   5.864   3.490 -0.5754  1.2219 -0.8946
 3786SOL    HW211937   5.231   5.791   3.513 -0.7725  1.3953 -1.4537
 3787SOL     OW11938   7.939   5.040   4.973 -0.2765 -0.2165 -0.0637
 3787SOL    HW111939   7.866   5.090   4.935 -0.1655 -0.7383 -0.9833
 3787SOL    HW211940   7.910   4.949   4.969 -1.0884 -0.2026  2.9188
 3788SOL     OW11941   5.260   9.087   7.735  0.2835  0.2831  0.1633
 3788SOL    HW111942   5.178   9.041   7.721  0.9650 -0.5038 -1.5452
 3788SOL    HW211943   5.258   9.113   7.827 -1.0022 -1.4562  0.6771
 3789SOL     OW11944   8.472   8.067   0.465  0.1074 -0.0258  0.0660
 3789SOL    HW111945   8.559   8.102   0.484  0.1645 -0.5397  0.7909
 3789SOL    HW211946   8.445   8.113   0.385  0.8114  0.5366  0.1361
 3790SOL     OW11947   6.825   9.574   7.839  0.6151 -0.7008 -0.0261
 3790SOL    HW111948   6.859   9.485   7.829 -0.2038 -1.1457  0.9969
 3790SOL    HW211949   6.738   9.563   7.876  1.0732  0.5717  1.5634
 3791SOL     OW11950   6.715   6.151   4.602 -0.0906 -0.1123 -0.4042
 3791SOL    HW111951   6.711   6.081   4.538  0.0793 -0.5940  0.1030
 3791SOL    HW211952   6.738   6.107   4.684 -3.0333  0.0430  0.6372
 3792SOL     OW11953   6.031   3.302   5.284 -0.2109 -0.3233 -0.1668
 3792SOL    HW111954   5.962   3.250   5.241 -0.3998 -0.6696  0.5302
 3792SOL    HW211955   6.097   3.237   5.309 -1.3175 -0.5700  2.4224
 3793SOL     OW11956   0.601   6.820   0.920 -0.0641  0.3481  0.2248
 3793SOL    HW111957   0.607   6.817   1.016 -0.1796  0.6820  0.2413
 3793SOL    HW211958   0.657   6.893   0.895 -1.9008  1.8231  0.2035
 3794SOL     OW11959   2.064   5.917   0.110  0.0251 -0.0231  0.6701
 3794SOL    HW111960   2.129   5.851   0.134  2.4338  1.4703 -1.2056
 3794SOL    HW211961   2.098   5.999   0.146  0.0541  1.0405 -1.5680
 3795SOL     OW11962   1.886   7.841   8.718  0.2897 -0.0935  0.7578
 3795SOL    HW111963   1.920   7.752   8.712  2.5223  0.7854 -0.5088
 3795SOL    HW211964   1.914   7.884   8.638 -2.3728  1.2752  0.4350
 3796SOL     OW11965   1.119   2.006   3.940 -0.1723  0.6848 -0.1658
 3796SOL    HW111966   1.081   1.973   3.859  0.9353  1.2122 -0.9280
 3796SOL    HW211967   1.169   1.933   3.975 -0.9881  0.3279  0.2695
 3797SOL     OW11968   1.811   6.853   6.624 -0.2843 -0.0993 -0.2865
 3797SOL    HW111969   1.894   6.822   6.660 -0.5235 -0.9863 -0.4580
 3797SOL    HW211970   1.764   6.773   6.601 -2.0741  0.2831  1.7280
 3798SOL     OW11971   6.452   1.200   7.757 -0.0083  0.3284  0.0070
 3798SOL    HW111972   6.485   1.227   7.843 -1.1966 -1.0670  0.9645
 3798SOL    HW211973   6.528   1.201   7.700  0.8101  1.3066  1.0749
 3799SOL     OW11974   3.367   4.923   9.394  0.1955  0.4182 -0.5084
 3799SOL    HW111975   3.463   4.931   9.391  0.1576  0.6267 -2.0316
 3799SOL    HW211976   3.351   4.828   9.395  0.4328  0.3233 -2.1233
 3800SOL     OW11977   6.415   7.142   4.693 -0.3394  0.5689  0.1696
 3800SOL    HW111978   6.450   7.127   4.781  0.8427  1.2448 -0.1574
 3800SOL    HW211979   6.345   7.077   4.684 -0.0818  0.0854  1.3796
 3801SOL     OW11980   9.713   0.859   1.248 -0.3031 -0.0630  0.7597
 3801SOL    HW111981   9.742   0.824   1.164  1.7610 -2.3378  2.2768
 3801SOL    HW211982   9.627   0.818   1.263 -1.5888  1.8292 -0.9817
 3802SOL     OW11983   7.513   2.504   5.459  0.1542 -0.4024  0.2444
 3802SOL    HW111984   7.432   2.477   5.416  0.4327  1.2158 -1.3968
 3802SOL    HW211985   7.574   2.432   5.442 -0.6167 -1.1718  0.6305
 3803SOL     OW11986   6.173   1.044   5.347 -0.0891  0.2544 -0.1234
 3803SOL    HW111987   6.161   1.098   5.425 -1.5704 -0.6371  0.3185
 3803SOL    HW211988   6.113   1.080   5.282 -0.0973 -0.0328 -0.2797
 3804SOL     OW11989   4.304   2.543   2.379 -0.4372  0.3933 -1.1787
 3804SOL    HW111990   4.371   2.595   2.336  0.9437 -1.4935 -1.4302
 3804SOL    HW211991   4.337   2.453   2.377 -2.8045 -0.5767 -0.9726
 3805SOL     OW11992   8.704   5.216   3.053 -0.4738 -0.1464  0.7711
 3805SOL    HW111993   8.707   5.139   2.996  0.5709 -2.2905  3.5267
 3805SOL    HW211994   8.795   5.229   3.079 -0.3329  3.1346 -0.8326
 3806SOL     OW11995   5.007   7.690   6.571  0.2096  0.0040 -0.4959
 3806SOL    HW111996   5.079   7.627   6.576  0.2148  0.0628  0.1702
 3806SOL    HW211997   4.933   7.639   6.539  0.5515 -0.0471 -1.2337
 3807SOL     OW11998   8.545   2.809   3.616 -0.4168 -0.3993 -0.4483
 3807SOL    HW111999   8.545   2.869   3.691  0.6753 -3.3592  2.1881
 3807SOL    HW212000   8.454   2.808   3.587 -0.4707  2.4290 -0.6483
 3808SOL     OW12001   9.702   8.977   1.125 -0.1304  0.8556 -0.0297
 3808SOL    HW112002   9.772   9.038   1.148 -0.1482  0.9319 -0.1720
 3808SOL    HW212003   9.706   8.971   1.029  0.7268 -0.3914  0.0698
 3809SOL     OW12004   3.683   1.170   8.688  0.2083  0.4924 -0.2780
 3809SOL    HW112005   3.600   1.124   8.676  0.3087  0.4051 -0.6792
 3809SOL    HW212006   3.661   1.262   8.673  0.4083  0.3456 -1.6644
 3810SOL     OW12007   6.601   7.257   5.533 -0.1327  0.3084 -0.0055
 3810SOL    HW112008   6.515   7.262   5.573  0.3850  1.9556  0.9844
 3810SOL    HW212009   6.650   7.195   5.587 -0.5841 -0.4025 -0.3965
 3811SOL     OW12010   2.621   6.202   6.976  0.0885  0.3724 -0.0137
 3811SOL    HW112011   2.702   6.197   7.027  2.2121 -0.7871 -3.2310
 3811SOL    HW212012   2.597   6.111   6.959 -0.7744  0.7225 -0.7544
 3812SOL     OW12013   6.433   7.126   3.688 -0.0792  0.6550  0.4966
 3812SOL    HW112014   6.436   7.075   3.769  1.3631  0.1479  0.1597
 3812SOL    HW212015   6.347   7.107   3.651 -0.8436  1.0408  1.9732
 3813SOL     OW12016   3.225   4.828   3.976  0.0437  0.1996 -0.0490
 3813SOL    HW112017   3.185   4.786   3.899  3.5384 -0.4504 -1.7040
 3813SOL    HW212018   3.272   4.757   4.020 -1.3997  0.6868  2.5168
 3814SOL     OW12019   9.541   1.255   9.119 -0.1306  0.3015  0.3292
 3814SOL    HW112020   9.572   1.190   9.056 -0.1468  0.9677 -0.3841
 3814SOL    HW212021   9.557   1.216   9.204  1.0185 -0.1183 -0.0588
 3815SOL     OW12022   2.398   2.705   9.449  0.1435 -0.3513 -0.3019
 3815SOL    HW112023   2.320   2.684   9.398 -0.8200 -2.6687  1.9092
 3815SOL    HW212024   2.369   2.770   9.513  0.0236 -1.0554  0.3812
 3816SOL     OW12025   6.350   5.671   9.099  0.1306 -0.4918 -0.0863
 3816SOL    HW112026   6.436   5.656   9.138 -0.7193  0.1742  2.1795
 3816SOL    HW212027   6.344   5.767   9.091 -0.6873 -0.4879  0.4981
 3817SOL     OW12028   9.961   3.496   2.415  0.0232  0.3942  0.5106
 3817SOL    HW112029   9.897   3.519   2.347  0.4470  1.1063  0.3494
 3817SOL    HW212030   9.950   3.562   2.482  1.7553  1.5551 -0.2910
 3818SOL     OW12031   8.882   2.419   4.251 -0.0912  0.2106  0.0398
 3818SOL    HW112032   8.922   2.347   4.300  2.5491  2.0887  0.8613
 3818SOL    HW212033   8.942   2.435   4.179  0.0881  2.3616  0.6060
 3819SOL     OW12034   2.388   9.339   0.245 -0.6967 -0.8774  0.0882
 3819SOL    HW112035   2.319   9.399   0.219 -0.4650 -0.7035 -0.1345
 3819SOL    HW212036   2.403   9.284   0.168  0.0252 -0.3280 -0.1746
 3820SOL     OW12037   5.990   1.416   1.061 -0.0671 -0.0551  0.3801
 3820SOL    HW112038   5.911   1.386   1.016  0.4278 -0.1056 -0.4864
 3820SOL    HW212039   5.978   1.511   1.071  0.8496  0.4126 -2.1127
 3821SOL     OW12040   6.761   8.939   2.576 -0.2011 -0.1220  0.2641
 3821SOL    HW112041   6.752   8.892   2.659 -1.1475 -0.0352  0.2228
 3821SOL    HW212042   6.797   8.875   2.515 -1.6828 -0.8959  0.1512
 3822SOL     OW12043   6.387   5.006   6.847  0.1472  0.1926  0.7831
 3822SOL    HW112044   6.428   4.936   6.797 -1.3402  0.2179 -0.5307
 3822SOL    HW212045   6.326   4.961   6.906 -0.1299  0.3287  0.6004
 3823SOL     OW12046   4.731   9.717   1.098  0.0482  0.1831 -0.2847
 3823SOL    HW112047   4.722   9.648   1.164  0.6044 -0.1921 -0.5960
 3823SOL    HW212048   4.644   9.758   1.095 -0.4531 -0.8505 -0.4746
 3824SOL     OW12049   2.820   1.695   3.886  0.2328 -0.4258 -0.2945
 3824SOL    HW112050   2.744   1.710   3.830  0.3083  0.2130 -0.2371
 3824SOL    HW212051   2.827   1.600   3.893  0.1928 -0.5212 -1.3376
 3825SOL     OW12052   3.168   8.658   0.783 -0.3141 -0.0039  0.3097
 3825SOL    HW112053   3.230   8.657   0.710  1.3876  0.7817  1.6555
 3825SOL    HW212054   3.135   8.747   0.786 -0.4949 -0.0736  0.3992
 3826SOL     OW12055   2.365   1.964   8.565  0.0205  0.1340  1.0909
 3826SOL    HW112056   2.368   1.885   8.511 -1.2054  0.7708  0.0456
 3826SOL    HW212057   2.455   1.997   8.563  0.6355 -1.3992  1.8389
 3827SOL     OW12058   1.858   8.085   7.168  0.7072  0.3755 -0.1851
 3827SOL    HW112059   1.903   8.007   7.136  1.7127  0.6531  0.5295
 3827SOL    HW212060   1.905   8.158   7.127  1.0015  0.6746  0.6835
 3828SOL     OW12061   7.229   0.399   6.049  0.5507 -0.2271 -0.5388
 3828SOL    HW112062   7.198   0.420   5.960  0.4052 -0.3849 -0.5267
 3828SOL    HW212063   7.240   0.484   6.091 -1.6044 -0.1804  0.0534
 3829SOL     OW12064   7.753   1.060   2.309 -0.0128 -0.2629  0.3204
 3829SOL    HW112065   7.705   0.994   2.358  1.7553 -2.2058 -0.4174
 3829SOL    HW212066   7.702   1.073   2.229 -0.7948 -0.1069  0.8361
 3830SOL     OW12067   1.593   1.412   8.823  0.3377  0.2494 -0.1741
 3830SOL    HW112068   1.509   1.455   8.805  0.9783  1.6662  0.0634
 3830SOL    HW212069   1.569   1.326   8.857 -1.0609  1.0761  1.0477
 3831SOL     OW12070   9.429   0.408   0.892  0.7472  0.2783  0.2120
 3831SOL    HW112071   9.358   0.362   0.936  0.7424  1.4784  1.5324
 3831SOL    HW212072   9.509   0.372   0.930  0.8333 -0.4709 -0.6569
 3832SOL     OW12073   2.456   7.117   4.347 -0.3117  0.4345  0.1322
 3832SOL    HW112074   2.534   7.101   4.399 -0.5624 -0.1666  0.3350
 3832SOL    HW212075   2.387   7.066   4.391 -0.4922 -0.2296 -0.8846
 3833SOL     OW12076   4.501   9.463   2.126 -0.4042 -0.3968  0.9654
 3833SOL    HW112077   4.498   9.405   2.050 -0.0691  0.8677 -0.0433
 3833SOL    HW212078   4.463   9.411   2.197 -0.4674 -1.7041  0.0110
 3834SOL     OW12079   6.850   0.848   7.291  0.3599  0.2173 -0.0556
 3834SOL    HW112080   6.928   0.801   7.321  1.3837  0.2528 -2.4508
 3834SOL    HW212081   6.834   0.814   7.203 -1.8811  0.7941  0.0663
 3835SOL     OW12082   3.977   4.613   3.999 -0.4515  0.1783 -0.3016
 3835SOL    HW112083   3.981   4.579   3.910  3.4061 -2.2746  0.5879
 3835SOL    HW212084   4.013   4.701   3.993 -3.1354  1.3075 -1.4763
 3836SOL     OW12085   4.468   7.823   5.214 -0.4288 -0.6754  0.2888
 3836SOL    HW112086   4.376   7.832   5.241 -0.6672 -1.1437 -0.3332
 3836SOL    HW212087   4.468   7.842   5.120 -0.4672 -3.6992 -0.4407
 3837SOL     OW12088   8.402   3.880   0.930 -0.2255 -0.5534  0.5633
 3837SOL    HW112089   8.358   3.955   0.890 -0.0740 -1.0005 -0.4769
 3837SOL    HW212090   8.341   3.808   0.917 -0.0622 -0.7570  0.9280
 3838SOL     OW12091   8.004   8.691   3.593 -0.6796 -0.1164  0.7394
 3838SOL    HW112092   7.938   8.697   3.662 -1.8911 -1.0791 -0.2945
 3838SOL    HW212093   8.018   8.598   3.580 -0.2063  0.0581 -0.0823
 3839SOL     OW12094   5.573   8.502   9.675  0.1853 -0.2958 -0.0509
 3839SOL    HW112095   5.646   8.528   9.732  0.1194  2.1266 -0.9632
 3839SOL    HW212096   5.610   8.502   9.587 -0.3481 -1.5043 -0.2932
 3840SOL     OW12097   0.537   0.565   7.520  0.3784  0.0396  0.4224
 3840SOL    HW112098   0.452   0.589   7.482  0.6198  1.2498  0.6141
 3840SOL    HW212099   0.579   0.649   7.538  0.2694 -0.4525  3.3872
 3841SOL     OW12100   1.326   0.349   5.588  0.0380 -0.4047  0.0436
 3841SOL    HW112101   1.330   0.407   5.665 -0.0196 -0.3928  0.0374
 3841SOL    HW212102   1.417   0.329   5.569  0.1518  0.8230 -0.8129
 3842SOL     OW12103   1.737   8.633   6.181  0.3951  0.6105  0.1091
 3842SOL    HW112104   1.742   8.543   6.150  2.0578  0.9249 -0.6989
 3842SOL    HW212105   1.705   8.683   6.105  2.4442  1.0787 -0.5412
 3843SOL     OW12106   7.816   8.644   6.406 -0.1038  0.2081  0.3422
 3843SOL    HW112107   7.790   8.610   6.491  1.8696  1.1017  1.3760
 3843SOL    HW212108   7.829   8.567   6.351 -0.0563 -0.4534  1.2724
 3844SOL     OW12109   7.525   8.654   4.401 -0.5507  0.7670 -0.5312
 3844SOL    HW112110   7.456   8.704   4.358 -0.5461  0.0650 -1.3653
 3844SOL    HW212111   7.485   8.625   4.484 -1.6497 -0.5337 -1.4694
 3845SOL     OW12112   5.187   7.759   7.272 -0.2047  0.0921 -0.1151
 3845SOL    HW112113   5.197   7.664   7.281 -1.6795 -0.1430 -0.6294
 3845SOL    HW212114   5.109   7.780   7.322 -0.5270  0.8628 -0.9074
 3846SOL     OW12115   1.160   9.050   7.454 -0.7002 -0.2097 -0.2304
 3846SOL    HW112116   1.073   9.078   7.424 -1.0318 -0.8523  0.0917
 3846SOL    HW212117   1.210   9.130   7.461 -1.8198  0.4107  1.3097
 3847SOL     OW12118   1.303   2.147   6.089  0.6534  0.3551  0.0455
 3847SOL    HW112119   1.375   2.155   6.027  0.3219  0.7619 -0.2967
 3847SOL    HW212120   1.300   2.054   6.110 -0.2108 -0.0807 -1.7670
 3848SOL     OW12121   5.400   8.633   2.341  0.0693  0.2248 -0.0809
 3848SOL    HW112122   5.407   8.613   2.247 -0.2828  1.7723 -0.4539
 3848SOL    HW212123   5.341   8.566   2.375  0.5031 -0.5904 -0.8778
 3849SOL     OW12124   1.894   2.468   0.021  0.1178 -0.3658  0.1425
 3849SOL    HW112125   1.912   2.500   0.110  1.4538  0.7165 -0.4870
 3849SOL    HW212126   1.951   2.521  -0.035 -0.2637 -1.4513 -1.3038
 3850SOL     OW12127   7.073   4.311   1.779 -0.3687 -0.2122 -0.0305
 3850SOL    HW112128   7.150   4.332   1.832  0.1641  0.6857 -1.1233
 3850SOL    HW212129   7.051   4.393   1.735 -3.6328  0.3429  2.2737
 3851SOL     OW12130   7.098   5.968   4.284 -0.0725  0.0451  0.2257
 3851SOL    HW112131   7.132   5.968   4.373 -0.2191 -0.6915  0.2902
 3851SOL    HW212132   7.131   6.049   4.245 -1.6398  1.4256  1.5699
 3852SOL     OW12133   6.808   7.547   2.426 -0.5200  0.2566 -0.3691
 3852SOL    HW112134   6.757   7.477   2.387 -1.2812  1.0445 -0.8302
 3852SOL    HW212135   6.759   7.570   2.505  0.1071 -0.1940  0.1630
 3853SOL     OW12136   5.709   2.021   8.971  0.5941 -0.0718  0.0315
 3853SOL    HW112137   5.724   1.926   8.974  0.3198 -0.1003  0.9892
 3853SOL    HW212138   5.797   2.059   8.971  0.7045 -0.3216  0.2662
 3854SOL     OW12139   5.592   5.904   5.926 -0.4715  0.5182 -0.6783
 3854SOL    HW112140   5.635   5.854   5.856  0.7962 -3.3874  2.5269
 3854SOL    HW212141   5.511   5.856   5.944  0.3058  0.0094  1.8847
 3855SOL     OW12142   6.556   7.192   6.944  0.0057 -0.0712 -0.5001
 3855SOL    HW112143   6.527   7.166   6.857  0.3602 -0.6840 -0.4418
 3855SOL    HW212144   6.588   7.111   6.984 -2.4012 -0.3258  1.1249
 3856SOL     OW12145   3.880   2.826   9.010  0.3241  0.1350 -0.5202
 3856SOL    HW112146   3.967   2.864   9.023 -0.1272  1.2803 -0.7365
 3856SOL    HW212147   3.896   2.737   8.979  1.4275  0.7620 -1.8334
 3857SOL     OW12148   2.808   2.782   9.187  0.5108 -0.1266 -0.1026
 3857SOL    HW112149   2.733   2.728   9.215  0.3464  0.8104  1.4217
 3857SOL    HW212150   2.804   2.781   9.092 -0.3516 -1.5904 -0.0892
 3858SOL     OW12151   4.281   4.193   9.180  0.1302  0.7809 -0.1520
 3858SOL    HW112152   4.304   4.225   9.093 -0.4959  1.2683 -0.1484
 3858SOL    HW212153   4.320   4.256   9.240  2.9589 -1.0488  0.0642
 3859SOL     OW12154   2.053   2.497   6.972  0.0295 -0.0825  0.3115
 3859SOL    HW112155   2.106   2.508   7.051 -0.6290 -2.7665  1.1995
 3859SOL    HW212156   1.969   2.464   7.002 -0.5516 -0.3491 -1.4543
 3860SOL     OW12157   0.708   9.897   8.896  0.0180  0.1714 -0.1136
 3860SOL    HW112158   0.791   9.853   8.912 -0.8655 -1.7263 -0.4845
 3860SOL    HW212159   0.722   9.947   8.816  0.6219 -0.5987 -0.4934
 3861SOL     OW12160   5.528   2.218   3.575 -0.3234  0.4235  0.3773
 3861SOL    HW112161   5.499   2.188   3.661 -0.3316  0.1683  0.2841
 3861SOL    HW212162   5.623   2.224   3.584 -0.1865 -0.8892 -0.0007
 3862SOL     OW12163   3.413   4.084   0.124 -0.0048 -0.5340 -0.2884
 3862SOL    HW112164   3.359   4.056   0.049  1.8746  0.1629 -2.0014
 3862SOL    HW212165   3.448   4.003   0.160  0.8509 -0.8004 -1.6218
 3863SOL     OW12166   4.490   7.429   1.366 -0.1781  0.0069 -0.1849
 3863SOL    HW112167   4.446   7.345   1.354  0.3353 -0.0717 -1.6444
 3863SOL    HW212168   4.537   7.419   1.448 -0.9306 -0.7644  0.1769
 3864SOL     OW12169   9.268   7.689   6.298 -0.0595 -0.2407  0.0483
 3864SOL    HW112170   9.193   7.630   6.301 -0.3165 -0.0111 -1.3557
 3864SOL    HW212171   9.234   7.771   6.264  0.5964  0.2640  0.5701
 3865SOL     OW12172   8.273   2.079   1.267 -0.4775  0.2742 -0.2944
 3865SOL    HW112173   8.230   2.034   1.339 -0.6369 -0.5250 -0.8702
 3865SOL    HW212174   8.338   2.016   1.235 -0.2301  0.7154 -0.6791
 3866SOL     OW12175   4.404   5.384   4.994 -0.0672 -0.5063  0.4437
 3866SOL    HW112176   4.405   5.351   5.084  0.1195  0.5316  0.8432
 3866SOL    HW212177   4.496   5.406   4.975  0.1220 -2.0144 -0.5154
 3867SOL     OW12178   6.250   0.094   2.151 -0.6173 -0.1071  0.6960
 3867SOL    HW112179   6.312   0.154   2.111  0.6364 -1.2161  0.9021
 3867SOL    HW212180   6.215   0.142   2.226 -4.5403  2.8175 -2.5819
 3868SOL     OW12181   6.255   4.309   9.124  0.0139  0.1996 -0.3558
 3868SOL    HW112182   6.301   4.383   9.085  0.6882  1.0166  1.8247
 3868SOL    HW212183   6.163   4.333   9.119  0.2399  1.3625  0.5580
 3869SOL     OW12184   2.074   3.953   8.526 -0.1829 -0.0463 -0.5429
 3869SOL    HW112185   2.089   3.873   8.475 -2.8618 -0.7342 -0.4266
 3869SOL    HW212186   2.034   4.014   8.464 -0.4707  0.2838 -0.0376
 3870SOL     OW12187   4.126   2.082   6.619 -0.0066 -0.2331  0.2891
 3870SOL    HW112188   4.142   2.157   6.561  0.5266 -0.2033  0.4648
 3870SOL    HW212189   4.213   2.058   6.651 -0.2987 -0.2546  1.0764
 3871SOL     OW12190   8.162   0.042   5.869  0.6960 -0.8912 -0.1085
 3871SOL    HW112191   8.203  -0.041   5.844 -0.6704 -1.2550 -1.3159
 3871SOL    HW212192   8.082   0.045   5.817 -1.0002 -0.3783  2.3739
 3872SOL     OW12193   0.894   5.899   3.407  0.2598 -0.2192 -0.2320
 3872SOL    HW112194   0.948   5.898   3.328  1.2497  0.7543  0.3973
 3872SOL    HW212195   0.804   5.889   3.375  0.1375  4.0945 -1.9864
 3873SOL     OW12196   3.683   2.829   7.035 -0.3934  0.0764  0.8512
 3873SOL    HW112197   3.755   2.883   7.069  0.7697 -0.2676 -0.9251
 3873SOL    HW212198   3.617   2.892   7.007  1.0529  0.7205 -1.4401
 3874SOL     OW12199   9.228   3.574   0.403 -0.2088  0.4677  0.5619
 3874SOL    HW112200   9.169   3.564   0.478 -0.7048 -1.1880  0.0027
 3874SOL    HW212201   9.213   3.496   0.350 -0.5867  2.0483 -1.7982
 3875SOL     OW12202   4.450   3.748   7.265 -0.0544  0.1239 -0.0824
 3875SOL    HW112203   4.520   3.813   7.269  0.5184 -0.4657 -0.3805
 3875SOL    HW212204   4.479   3.685   7.198 -1.3146  0.3884 -0.9060
 3876SOL     OW12205   2.967   6.704   7.010 -0.3626 -0.1384 -0.5907
 3876SOL    HW112206   2.879   6.738   7.023  0.2382  0.8620  1.3321
 3876SOL    HW212207   3.014   6.776   6.966 -0.0479  0.0565  0.0553
 3877SOL     OW12208   2.651   4.092   7.682 -0.2819  0.6432  0.2339
 3877SOL    HW112209   2.599   4.055   7.753 -0.2758  0.9455  0.3972
 3877SOL    HW212210   2.617   4.051   7.603  1.7816 -2.1576  0.6323
 3878SOL     OW12211   3.035   1.508   6.285 -0.7074 -0.2702  0.2475
 3878SOL    HW112212   2.984   1.454   6.224  2.4998 -2.3823 -0.8195
 3878SOL    HW212213   3.081   1.570   6.229  1.3490 -1.4422  0.5186
 3879SOL     OW12214   7.330   9.555   5.315 -0.1236 -0.3113 -0.2507
 3879SOL    HW112215   7.370   9.586   5.396  1.1844 -0.4732 -0.8145
 3879SOL    HW212216   7.395   9.496   5.277 -1.1657 -1.0868 -0.8926
 3880SOL     OW12217   0.377   6.147   5.525 -0.0145 -0.1162  0.2704
 3880SOL    HW112218   0.288   6.114   5.535  0.3093 -1.1326 -0.0165
 3880SOL    HW212219   0.368   6.223   5.467 -0.7456  0.1238  0.6802
 3881SOL     OW12220   6.002   9.426   3.343  0.2541  0.7383 -0.1593
 3881SOL    HW112221   6.017   9.447   3.434  1.0035  1.6157 -0.4763
 3881SOL    HW212222   5.925   9.369   3.344  1.3528 -0.8158  1.1768
 3882SOL     OW12223   7.171   5.416   2.334 -0.0578 -0.0756 -0.0964
 3882SOL    HW112224   7.233   5.449   2.269 -0.4878  0.0873 -0.4267
 3882SOL    HW212225   7.085   5.446   2.303 -0.2513  0.1445  0.6351
 3883SOL     OW12226   0.136   9.134   5.877 -0.0699  0.2021  1.0415
 3883SOL    HW112227   0.054   9.175   5.850  0.1950  0.5922  0.8088
 3883SOL    HW212228   0.114   9.042   5.889 -0.0821 -0.1298 -1.1414
 3884SOL     OW12229   9.010   1.904   1.032  0.0871  0.0926  0.5266
 3884SOL    HW112230   8.953   1.864   0.966  0.2922  0.4563  0.1265
 3884SOL    HW212231   9.074   1.836   1.052  0.0192 -0.0222  0.3594
 3885SOL     OW12232   4.830   0.417   3.795  0.2598 -0.1066 -0.6099
 3885SOL    HW112233   4.879   0.430   3.877 -0.1901  0.4135 -0.4182
 3885SOL    HW212234   4.898   0.399   3.730  0.5433 -1.7053  0.0935
 3886SOL     OW12235   7.328   7.031   6.368 -0.3772 -0.7322 -0.0753
 3886SOL    HW112236   7.271   7.102   6.338  0.1164 -0.4784 -0.4168
 3886SOL    HW212237   7.294   6.953   6.323  0.8950 -0.2136 -2.0530
 3887SOL     OW12238   0.174   0.564   3.143  0.2303  0.4937  0.0691
 3887SOL    HW112239   0.216   0.639   3.185  1.2349  0.2348 -0.4462
 3887SOL    HW212240   0.086   0.561   3.181  0.0290  2.1653 -0.2133
 3888SOL     OW12241   6.721   6.383   6.100 -0.0541  0.1812  0.5861
 3888SOL    HW112242   6.725   6.293   6.068  2.1206  0.5080 -0.2026
 3888SOL    HW212243   6.812   6.413   6.099 -0.9450  3.2354 -1.6464
 3889SOL     OW12244   8.660   9.839   2.673 -0.1747 -0.4512 -0.1634
 3889SOL    HW112245   8.592   9.791   2.719 -1.0474 -0.4024 -1.3308
 3889SOL    HW212246   8.663   9.924   2.717 -2.6926  0.5043 -1.5777
 3890SOL     OW12247   6.235   2.295   3.930 -0.3473  0.0685  0.4564
 3890SOL    HW112248   6.220   2.201   3.933  0.8574 -0.1804 -0.5186
 3890SOL    HW212249   6.328   2.304   3.906 -0.3960  1.4966  0.7021
 3891SOL     OW12250   2.113   2.426   0.727 -0.0725  0.0769 -0.1201
 3891SOL    HW112251   2.143   2.489   0.661  0.7545 -0.8438 -0.6596
 3891SOL    HW212252   2.155   2.454   0.808 -0.2204  0.5933 -0.2221
 3892SOL     OW12253   0.586   3.916   1.759  0.1576  0.4905  0.0857
 3892SOL    HW112254   0.674   3.908   1.724 -0.2491 -0.5881 -0.7728
 3892SOL    HW212255   0.588   3.870   1.842  0.3416  0.2217 -0.0676
 3893SOL     OW12256   5.535   5.749   9.628 -0.5194  0.2723 -0.1354
 3893SOL    HW112257   5.628   5.726   9.620 -0.2721  0.4410  1.9223
 3893SOL    HW212258   5.498   5.727   9.542  1.4302  0.3131 -1.0404
 3894SOL     OW12259   3.589   3.447   5.079 -0.4322  0.4014  0.6133
 3894SOL    HW112260   3.515   3.468   5.022  0.8031 -0.5235 -1.4555
 3894SOL    HW212261   3.561   3.369   5.127 -0.5738 -0.4090 -0.7265
 3895SOL     OW12262   6.426   1.881   5.552 -0.2998 -0.3115 -0.2975
 3895SOL    HW112263   6.380   1.964   5.540 -0.5074 -0.4492 -0.4752
 3895SOL    HW212264   6.456   1.858   5.464  1.2513  0.4248  0.0179
 3896SOL     OW12265   4.559   9.156   7.072  0.0393 -0.6407 -0.5598
 3896SOL    HW112266   4.631   9.168   7.010  0.2526  0.2263 -0.1638
 3896SOL    HW212267   4.551   9.061   7.081  1.7141 -0.7564  0.0516
 3897SOL     OW12268   8.345   8.366   4.772 -0.3405  0.2772  0.5534
 3897SOL    HW112269   8.365   8.324   4.688 -1.0371 -0.3075  0.6747
 3897SOL    HW212270   8.375   8.303   4.838  1.7553  1.4211  0.8040
 3898SOL     OW12271   1.312   1.412   4.276 -0.2957 -0.6042  0.3516
 3898SOL    HW112272   1.249   1.477   4.245 -1.8550 -2.7490 -1.3364
 3898SOL    HW212273   1.377   1.405   4.206 -0.0938 -0.8259  0.5549
 3899SOL     OW12274   7.850   2.496   2.464  0.0656 -0.2898  0.2788
 3899SOL    HW112275   7.801   2.572   2.494 -0.7090 -0.1007 -1.3445
 3899SOL    HW212276   7.941   2.525   2.461 -0.0782  0.2106  0.7411
 3900SOL     OW12277   3.506   1.020   5.353  0.0046 -0.7169  0.0945
 3900SOL    HW112278   3.550   0.936   5.368 -0.4037 -1.1120 -0.7902
 3900SOL    HW212279   3.543   1.079   5.418 -0.6749 -1.9279  1.6569
 3901SOL     OW12280   1.225   7.438   5.752  0.1933 -0.3919 -0.1731
 3901SOL    HW112281   1.183   7.357   5.780 -0.9446 -0.1373 -1.0803
 3901SOL    HW212282   1.214   7.439   5.657  0.8594  0.4634 -0.2544
 3902SOL     OW12283   6.094   1.202   4.890  0.5489 -0.3309 -0.2278
 3902SOL    HW112284   6.171   1.181   4.838  0.5869 -0.3846 -0.1503
 3902SOL    HW212285   6.126   1.257   4.961  0.2749  0.9590 -1.0615
 3903SOL     OW12286   0.501   5.747   5.482  0.7986  0.7464  0.2150
 3903SOL    HW112287   0.514   5.825   5.534  2.1746  1.4228 -1.0673
 3903SOL    HW212288   0.558   5.681   5.522  1.4990  1.1265 -0.1427
 3904SOL     OW12289   4.963   9.708   9.657  0.2467  0.1738 -0.1170
 3904SOL    HW112290   4.897   9.639   9.668  0.4496  0.2988  2.4034
 3904SOL    HW212291   4.916   9.779   9.615 -0.6953 -0.4853 -0.2182
 3905SOL     OW12292   0.869   6.543   8.487 -1.2529 -0.9289  0.6433
 3905SOL    HW112293   0.934   6.603   8.524 -0.5583 -0.3516 -1.3666
 3905SOL    HW212294   0.862   6.472   8.551  0.8921 -0.6726  1.2523
 3906SOL     OW12295   2.271   3.236   7.803 -0.3648  0.1185  0.0093
 3906SOL    HW112296   2.272   3.174   7.877  0.4268 -0.1200 -0.1887
 3906SOL    HW212297   2.281   3.180   7.726  0.1161  0.4781 -0.1890
 3907SOL     OW12298   8.293   1.578   5.287  0.3091 -0.2866  0.3655
 3907SOL    HW112299   8.284   1.652   5.227  1.2164  0.5226  1.1816
 3907SOL    HW212300   8.204   1.545   5.299  0.0177  0.0211 -0.7927
 3908SOL     OW12301   1.801   6.435   0.377  0.2331  0.1403  0.0049
 3908SOL    HW112302   1.878   6.470   0.422  0.0766 -1.3157  1.4960
 3908SOL    HW212303   1.799   6.342   0.401 -2.6515  0.3600  0.9815
 3909SOL     OW12304   1.382   9.095   1.812  0.0295  0.1319 -0.2735
 3909SOL    HW112305   1.425   9.116   1.895  1.9326  0.1508 -1.2276
 3909SOL    HW212306   1.329   9.017   1.832  1.6618 -0.7958  0.6201
 3910SOL     OW12307   7.667   0.514   0.717 -0.1612 -0.1764 -0.3926
 3910SOL    HW112308   7.606   0.574   0.759  1.6610  2.4766 -1.2678
 3910SOL    HW212309   7.652   0.430   0.760 -3.8296  0.4970 -0.0586
 3911SOL     OW12310   9.147   2.018   0.560 -0.0394  0.3531 -0.1223
 3911SOL    HW112311   9.231   2.062   0.556  0.4438 -0.5416 -0.0182
 3911SOL    HW212312   9.090   2.080   0.607  0.2010  1.4816 -1.2629
 3912SOL     OW12313   7.124   4.775   5.444  0.0367  0.2622 -0.5112
 3912SOL    HW112314   7.142   4.692   5.399 -1.9892 -0.0613 -0.8365
 3912SOL    HW212315   7.209   4.816   5.455  0.8876 -0.9944 -2.0803
 3913SOL     OW12316   4.509   5.274   3.840 -0.0456  0.4479  0.3237
 3913SOL    HW112317   4.491   5.361   3.804 -0.5265  0.0346 -0.4645
 3913SOL    HW212318   4.532   5.221   3.764 -1.8220 -0.6298  0.4816
 3914SOL     OW12319   2.380   1.781   4.397 -0.1397  0.2924  0.7429
 3914SOL    HW112320   2.387   1.693   4.434  2.7286  0.0680 -0.1443
 3914SOL    HW212321   2.338   1.832   4.467 -1.7474 -1.6703  1.3257
 3915SOL     OW12322   1.191   5.613   3.250  0.4485 -0.2368  0.1356
 3915SOL    HW112323   1.106   5.596   3.291 -0.3481  1.1872 -0.8519
 3915SOL    HW212324   1.193   5.555   3.174 -0.1476  0.4920 -0.4594
 3916SOL     OW12325   2.472   1.888   2.835 -0.1561 -0.0949 -0.1690
 3916SOL    HW112326   2.502   1.978   2.841 -0.4755 -0.0567  1.1986
 3916SOL    HW212327   2.483   1.853   2.923 -1.5132 -0.9031 -0.2895
 3917SOL     OW12328   7.539   2.295   6.657  0.1289 -0.2198 -0.3127
 3917SOL    HW112329   7.611   2.312   6.718  0.1976 -0.9375 -0.1796
 3917SOL    HW212330   7.504   2.381   6.636  0.3015  0.0568  0.5046
 3918SOL     OW12331   4.396   7.469   8.495 -0.1700 -0.0257 -0.2552
 3918SOL    HW112332   4.420   7.411   8.422  1.6182  0.2880  0.0448
 3918SOL    HW212333   4.370   7.551   8.453 -0.0325 -0.1461 -0.5757
 3919SOL     OW12334   4.239   3.178   9.763  0.2833  0.0900  1.2094
 3919SOL    HW112335   4.282   3.123   9.698  0.3488  2.4180 -0.8697
 3919SOL    HW212336   4.308   3.197   9.827  1.8520  1.9075 -0.8535
 3920SOL     OW12337   0.493   3.566   4.968  0.1463  0.6997  0.1420
 3920SOL    HW112338   0.430   3.554   5.039  0.2052  0.7553  0.2054
 3920SOL    HW212339   0.440   3.589   4.892 -0.3350 -3.2197 -0.9210
 3921SOL     OW12340   2.942   6.187   9.157 -0.0088 -0.1100  0.1234
 3921SOL    HW112341   3.020   6.132   9.155  1.7749  2.1004 -3.5689
 3921SOL    HW212342   2.949   6.237   9.238  0.8973 -1.8848  1.1755
 3922SOL     OW12343   6.594   7.732   0.539  0.3918  0.0583 -0.1095
 3922SOL    HW112344   6.676   7.780   0.526 -0.1969  0.7880 -1.2734
 3922SOL    HW212345   6.620   7.652   0.585  1.7007  0.4496 -0.1253
 3923SOL     OW12346   3.203   1.586   5.649  0.6450 -0.1375 -0.6068
 3923SOL    HW112347   3.299   1.583   5.654  0.6606  0.8888  0.0113
 3923SOL    HW212348   3.185   1.661   5.592  0.2116  0.4827  0.3161
 3924SOL     OW12349   7.595   3.476   1.857  0.4270 -0.2114 -0.0445
 3924SOL    HW112350   7.662   3.500   1.921  0.4535 -0.0030 -0.1500
 3924SOL    HW212351   7.590   3.551   1.798  0.4064 -0.4043 -0.2911
 3925SOL     OW12352   3.583   3.334   0.468  0.1259 -0.0613 -0.1637
 3925SOL    HW112353   3.514   3.400   0.470  0.6305  0.4518  0.8853
 3925SOL    HW212354   3.640   3.355   0.542  0.7737 -1.1666 -0.3126
 3926SOL     OW12355   3.847   7.550   4.286  0.0924  0.3771 -0.4793
 3926SOL    HW112356   3.820   7.553   4.378 -1.4590  0.1109 -0.8961
 3926SOL    HW212357   3.804   7.625   4.246 -0.5750 -0.4153 -1.3021
 3927SOL     OW12358   6.171   9.494   7.438  0.3376 -0.3416 -0.2938
 3927SOL    HW112359   6.080   9.523   7.436 -0.2910 -2.2132 -0.9629
 3927SOL    HW212360   6.189   9.478   7.531  0.2133  0.6658 -0.0891
 3928SOL     OW12361   1.967   8.270   1.369  0.1999 -1.0473  0.0072
 3928SOL    HW112362   1.922   8.251   1.287  0.8141  1.2657 -0.9467
 3928SOL    HW212363   1.939   8.359   1.392  0.6482 -1.3497  1.8990
 3929SOL     OW12364   5.556   4.482   7.660  0.6836  0.1106  0.0033
 3929SOL    HW112365   5.543   4.454   7.751  0.0728  2.4520  0.6805
 3929SOL    HW212366   5.627   4.546   7.665 -0.0679  1.0347 -1.0257
 3930SOL     OW12367   4.438   4.146   2.152 -0.1992  0.3881 -0.2066
 3930SOL    HW112368   4.498   4.095   2.207  0.5506  1.1921 -0.2614
 3930SOL    HW212369   4.493   4.180   2.082 -0.9140  0.3792 -0.7820
 3931SOL     OW12370   6.446   5.702   8.300 -0.3782  0.4118  0.6584
 3931SOL    HW112371   6.391   5.682   8.225 -0.0485 -1.9122  0.9519
 3931SOL    HW212372   6.498   5.778   8.272 -2.0366  1.1916 -0.4644
 3932SOL     OW12373   3.460   4.725   4.896 -0.7560 -0.4584  0.0290
 3932SOL    HW112374   3.538   4.683   4.931  1.3426  2.2382 -1.0818
 3932SOL    HW212375   3.428   4.781   4.967 -1.3639 -1.0998  0.2760
 3933SOL     OW12376   4.037   0.608   6.920  0.3788  0.0490  0.1192
 3933SOL    HW112377   4.040   0.519   6.884  0.4252  0.5277 -1.1054
 3933SOL    HW212378   4.065   0.664   6.847  0.1311  1.0875  0.8061
 3934SOL     OW12379   3.099   9.849   2.796 -0.3993  0.0257  0.1078
 3934SOL    HW112380   3.097   9.766   2.749  2.1760 -0.1611  0.1785
 3934SOL    HW212381   3.094   9.825   2.889 -1.4753  0.1012  0.0760
 3935SOL     OW12382   3.842   5.197   3.988  0.4747  0.2915 -0.4015
 3935SOL    HW112383   3.855   5.110   4.026  0.1917  0.7884  0.8638
 3935SOL    HW212384   3.826   5.254   4.063 -1.3743  1.0911 -1.3353
 3936SOL     OW12385   8.001   6.891   6.748  0.2195 -0.5423 -0.3642
 3936SOL    HW112386   8.028   6.935   6.829  2.5942 -0.0063 -1.3749
 3936SOL    HW212387   8.056   6.813   6.743 -1.0478 -1.4552 -0.6920
 3937SOL     OW12388   5.386   5.252   6.669  0.3223  0.2606 -0.3118
 3937SOL    HW112389   5.319   5.303   6.624 -1.2022 -0.9674  0.4443
 3937SOL    HW212390   5.369   5.266   6.762  2.3816  1.4510 -0.0612
 3938SOL     OW12391   3.241   4.175   7.921  0.1982  0.0560 -0.2148
 3938SOL    HW112392   3.251   4.270   7.915  0.3197  0.1700  1.3598
 3938SOL    HW212393   3.189   4.161   8.000 -2.1287 -1.0942 -1.8359
 3939SOL     OW12394   8.156   4.337   6.822 -0.2147 -0.4283 -0.6636
 3939SOL    HW112395   8.190   4.420   6.788 -0.3057 -0.8840 -1.9129
 3939SOL    HW212396   8.063   4.354   6.838 -0.8677 -0.9760 -3.4181
 3940SOL     OW12397   5.300   0.238   6.959 -0.6237  0.4014 -0.5645
 3940SOL    HW112398   5.216   0.259   7.001 -0.5381  2.5201 -1.3456
 3940SOL    HW212399   5.360   0.222   7.032 -1.3893  0.1883  0.0278
 3941SOL     OW12400   7.371   4.375   5.158 -0.5031 -0.4566 -0.5260
 3941SOL    HW112401   7.399   4.337   5.241  1.6283  1.4493 -0.2440
 3941SOL    HW212402   7.277   4.388   5.168 -0.5464 -1.5961  1.0008
 3942SOL     OW12403   5.253   7.657   1.876 -0.4600 -0.3228 -0.5010
 3942SOL    HW112404   5.270   7.746   1.843 -1.7706 -0.0300 -0.4664
 3942SOL    HW212405   5.206   7.671   1.959  0.2408 -1.0557  0.0289
 3943SOL     OW12406   9.988   8.612   4.484  0.5535 -0.1196  0.5811
 3943SOL    HW112407   9.902   8.642   4.454 -0.2895 -1.5684  1.4440
 3943SOL    HW212408  10.040   8.604   4.404  0.4734  2.3779  0.1848
 3944SOL     OW12409   8.063   1.195   4.551 -0.1498  0.2127 -0.4591
 3944SOL    HW112410   8.120   1.195   4.475  0.1632 -0.8670 -0.2554
 3944SOL    HW212411   7.974   1.202   4.515  0.0426  0.5971 -0.8624
 3945SOL     OW12412   5.252   4.722   9.269 -0.6607 -0.0281  0.5762
 3945SOL    HW112413   5.205   4.737   9.350 -0.7968  3.4398 -0.0033
 3945SOL    HW212414   5.344   4.735   9.292 -0.6841  0.7848  0.2262
 3946SOL     OW12415   5.333   0.430   5.195  0.3073 -0.4578 -0.1246
 3946SOL    HW112416   5.341   0.523   5.173  1.8687 -0.7330 -0.9418
 3946SOL    HW212417   5.241   0.410   5.182  0.0322  0.8718 -0.4068
 3947SOL     OW12418   3.720   2.256   9.240 -0.5027  0.0145 -0.0655
 3947SOL    HW112419   3.672   2.191   9.291  0.7923  0.3455  1.6542
 3947SOL    HW212420   3.788   2.288   9.299  0.6774  0.8854 -1.8041
 3948SOL     OW12421   8.778   7.573   1.021 -0.5466  0.4790  0.0146
 3948SOL    HW112422   8.719   7.648   1.035  0.8205  1.5186  0.4572
 3948SOL    HW212423   8.855   7.593   1.074  0.5951 -0.3855 -1.2314
 3949SOL     OW12424   1.617   9.366   4.911  0.1987 -0.1613  0.3872
 3949SOL    HW112425   1.671   9.441   4.937  1.8407 -1.3780  0.6112
 3949SOL    HW212426   1.614   9.371   4.816  0.9362 -0.2374  0.3567
 3950SOL     OW12427   2.762   5.696   5.355  0.0910 -0.9524 -0.1874
 3950SOL    HW112428   2.785   5.604   5.368 -0.4241 -1.1411 -0.5623
 3950SOL    HW212429   2.845   5.740   5.337  0.1940 -1.5977 -1.4108
 3951SOL     OW12430   9.701   7.277   0.085  0.2785 -0.1422  0.1648
 3951SOL    HW112431   9.657   7.248   0.165  3.2399 -2.5627  1.1072
 3951SOL    HW212432   9.656   7.230   0.015 -0.2917 -0.5254  0.7787
 3952SOL     OW12433   7.128   5.638   0.626  0.4662  0.2005  0.1142
 3952SOL    HW112434   7.196   5.691   0.667  1.1094  0.3944 -1.1764
 3952SOL    HW212435   7.175   5.579   0.567 -0.3974 -0.4706  0.0652
 3953SOL     OW12436   5.422   1.174   4.333 -0.0912 -0.0983 -0.7478
 3953SOL    HW112437   5.402   1.259   4.292  0.5764 -0.4884 -1.9498
 3953SOL    HW212438   5.374   1.175   4.416 -0.1312  1.4339 -0.7644
 3954SOL     OW12439   2.819   5.277   8.045  0.0746  0.2824  0.0997
 3954SOL    HW112440   2.875   5.261   8.121 -0.2854 -0.1088  0.2897
 3954SOL    HW212441   2.829   5.370   8.026  2.7466 -0.2065 -1.4219
 3955SOL     OW12442   0.348   6.617   7.068  0.0351  0.5015 -0.0674
 3955SOL    HW112443   0.263   6.642   7.105  0.5363 -1.7609  3.0592
 3955SOL    HW212444   0.396   6.699   7.060 -1.0268  1.4246  2.1843
 3956SOL     OW12445   5.549   5.547   3.142  0.0534  0.8670  0.6517
 3956SOL    HW112446   5.612   5.475   3.140  0.3491  1.1342 -1.2334
 3956SOL    HW212447   5.604   5.626   3.136 -0.3150  1.2425  1.8813
 3957SOL     OW12448   1.958   0.591   2.109  0.7581 -0.4814  0.5583
 3957SOL    HW112449   1.981   0.678   2.141  0.3131 -0.8724  2.0080
 3957SOL    HW212450   1.872   0.602   2.069  1.4027  0.0520 -0.7301
 3958SOL     OW12451   1.768   9.198   7.727  0.3681  0.1291 -0.0523
 3958SOL    HW112452   1.861   9.176   7.738  1.5500  3.9718 -0.9281
 3958SOL    HW212453   1.743   9.155   7.645  1.5389 -0.4497 -0.1285
 3959SOL     OW12454   4.297   8.466   4.213 -0.2962  0.2883 -0.2985
 3959SOL    HW112455   4.251   8.443   4.293 -0.0489  0.8387  0.0099
 3959SOL    HW212456   4.349   8.389   4.191  0.7251  0.6027  0.8607
 3960SOL     OW12457   9.800   9.069   6.044  0.0211 -0.2122  0.0471
 3960SOL    HW112458   9.886   9.028   6.038  0.5087  0.6905  0.5408
 3960SOL    HW212459   9.746   9.022   5.981  0.9867 -0.5216 -0.5751
 3961SOL     OW12460   6.004   5.798   8.650  0.7167 -0.2428  0.0766
 3961SOL    HW112461   5.963   5.733   8.593  0.7839 -0.0327 -0.2145
 3961SOL    HW212462   6.040   5.863   8.590 -0.2502  0.6086  0.3804
 3962SOL     OW12463   8.665   4.773   9.884 -0.6329 -0.2379 -0.7269
 3962SOL    HW112464   8.695   4.713   9.816  2.0122 -0.2576  0.3412
 3962SOL    HW212465   8.731   4.766   9.953 -1.6926  1.8893  0.6001
 3963SOL     OW12466   1.624   7.977   0.153  0.4692 -1.2034 -0.3038
 3963SOL    HW112467   1.573   7.903   0.120 -0.7426  0.2437 -1.7835
 3963SOL    HW212468   1.607   8.048   0.092  1.8684  0.2300  0.8870
 3964SOL     OW12469   9.741   7.943   4.138  0.0630 -0.1955 -0.1436
 3964SOL    HW112470   9.657   7.897   4.143  0.3886 -0.6937  1.4198
 3964SOL    HW212471   9.722   8.024   4.091 -0.8369 -1.2454 -1.6837
 3965SOL     OW12472   6.380   0.382   7.318  0.1946 -0.1609  0.2610
 3965SOL    HW112473   6.464   0.360   7.279  0.4417  0.0543  0.6677
 3965SOL    HW212474   6.385   0.476   7.336 -0.0824 -0.1709  0.4042
 3966SOL     OW12475   1.136   8.482   1.993 -0.2903  0.2508 -0.0369
 3966SOL    HW112476   1.161   8.389   1.995  2.3358  0.8970  1.1882
 3966SOL    HW212477   1.131   8.503   1.899 -3.2084 -1.5910 -0.4120
 3967SOL     OW12478   3.466   9.634   5.003 -0.0200  0.2088 -0.2221
 3967SOL    HW112479   3.489   9.727   5.007 -0.8869  0.5035 -1.5306
 3967SOL    HW212480   3.533   9.591   5.057  1.4080  1.3984 -0.9637
 3968SOL     OW12481   2.887   6.334   7.655 -0.4124 -0.4477 -0.1363
 3968SOL    HW112482   2.934   6.260   7.617  2.2414  1.4003 -0.7061
 3968SOL    HW212483   2.918   6.339   7.745  0.9489  1.0438 -0.6382
 3969SOL     OW12484   7.886   2.445   4.444  0.1865  0.0906  1.1078
 3969SOL    HW112485   7.926   2.475   4.362 -0.7379  1.8492  1.2478
 3969SOL    HW212486   7.945   2.477   4.512 -0.4975  1.1058  1.2348
 3970SOL     OW12487   2.968   5.883   7.172 -0.6518 -0.5606  0.0384
 3970SOL    HW112488   2.962   5.825   7.248  1.0345 -1.1795 -0.2429
 3970SOL    HW212489   3.038   5.944   7.195 -1.0398  0.0950 -0.4918
 3971SOL     OW12490   6.595   5.028   3.459 -0.8245  0.4201 -0.2044
 3971SOL    HW112491   6.621   4.943   3.424 -0.7901  0.9232 -1.4387
 3971SOL    HW212492   6.500   5.020   3.472 -1.2157  0.8483 -2.3589
 3972SOL     OW12493   9.868   6.229   9.751 -0.1986 -0.3275  0.2035
 3972SOL    HW112494   9.847   6.286   9.677  1.2625  0.9233  0.6896
 3972SOL    HW212495   9.789   6.177   9.764 -2.1582  2.4918  0.5684
 3973SOL     OW12496   0.993   1.814   2.499 -0.4561  0.3426 -0.4595
 3973SOL    HW112497   1.018   1.740   2.444  0.0378  0.6154 -0.6074
 3973SOL    HW212498   1.075   1.842   2.540 -0.4818  1.3550 -1.0728
 3974SOL     OW12499   8.102   9.157   4.625 -0.3194  0.2061  0.0305
 3974SOL    HW112500   8.060   9.073   4.610  0.6200  0.0005 -1.7942
 3974SOL    HW212501   8.031   9.216   4.648 -1.2214 -0.7322 -0.2628
 3975SOL     OW12502   4.922   1.013   4.505 -0.1077  0.2691 -0.1042
 3975SOL    HW112503   4.922   1.024   4.410  1.1062 -0.3614 -0.2008
 3975SOL    HW212504   5.013   0.993   4.527  0.4557  3.9038  1.6515
 3976SOL     OW12505   8.667   2.978   1.020  0.1347 -0.0027  0.0730
 3976SOL    HW112506   8.693   2.900   0.970 -1.5874 -0.6061  0.0302
 3976SOL    HW212507   8.683   3.051   0.960  0.7278 -0.4269 -0.3038
 3977SOL     OW12508   6.723   5.613   7.780  0.3688  0.0432  0.1618
 3977SOL    HW112509   6.756   5.702   7.795  0.1178  0.5183 -1.9085
 3977SOL    HW212510   6.636   5.626   7.743 -0.5753 -1.1410  1.8137
 3978SOL     OW12511   3.567   4.701   7.699 -1.2350  0.1594  0.7229
 3978SOL    HW112512   3.655   4.722   7.732 -0.3531 -0.1691 -1.2905
 3978SOL    HW212513   3.556   4.607   7.719 -0.2281 -0.3275 -0.8567
 3979SOL     OW12514   2.910   0.050   2.667  0.0437 -0.3687  1.1317
 3979SOL    HW112515   2.925  -0.004   2.745 -0.1683 -0.2601  1.2485
 3979SOL    HW212516   2.997   0.074   2.637  0.1610 -1.2627  0.7361
 3980SOL     OW12517   6.066   3.354   8.354 -0.1230 -0.1005  0.3422
 3980SOL    HW112518   6.022   3.280   8.311  1.3637 -0.8521  0.0582
 3980SOL    HW212519   5.996   3.417   8.371 -1.2218 -1.0487 -0.5274
 3981SOL     OW12520   3.096   3.481   7.867 -0.3582  0.5092  0.2409
 3981SOL    HW112521   3.133   3.555   7.819  0.9239  0.5430  1.2134
 3981SOL    HW212522   3.120   3.498   7.958 -3.2895  0.7955  1.0593
 3982SOL     OW12523   6.786   2.353   0.171  0.2392  0.5142  0.0833
 3982SOL    HW112524   6.712   2.402   0.136 -0.0481 -0.3809 -0.6102
 3982SOL    HW212525   6.839   2.418   0.217  0.3595  1.6611 -1.5898
 3983SOL     OW12526   5.902   0.786   2.521  0.0516  0.4341 -0.4873
 3983SOL    HW112527   5.929   0.784   2.613 -1.1121  1.3284 -0.0934
 3983SOL    HW212528   5.972   0.740   2.475  0.2862 -0.7315  0.9267
 3984SOL     OW12529   9.475   0.386   2.152 -0.0366  0.1808  0.3164
 3984SOL    HW112530   9.388   0.348   2.149 -1.1383  2.5504  0.1826
 3984SOL    HW212531   9.488   0.410   2.244 -0.9349  2.7727 -0.1788
 3985SOL     OW12532   5.963   4.421   3.975  0.2739  0.1198 -0.0928
 3985SOL    HW112533   5.999   4.356   4.036  0.2911 -0.0923 -0.3298
 3985SOL    HW212534   5.892   4.463   4.025  0.0690 -0.2823 -0.0399
 3986SOL     OW12535   8.798   5.370   6.854  0.4712  0.6461 -0.2533
 3986SOL    HW112536   8.779   5.363   6.760  2.0057 -0.7258 -0.5120
 3986SOL    HW212537   8.880   5.322   6.865  1.1513  2.1011  1.5463
 3987SOL     OW12538   1.957   9.479   2.866 -0.4624 -0.0546 -0.4958
 3987SOL    HW112539   1.928   9.480   2.957 -1.3594 -0.9298 -0.7572
 3987SOL    HW212540   1.889   9.524   2.818  0.4508  1.2268 -0.6389
 3988SOL     OW12541   8.991   4.112   7.746 -0.4848  0.4934 -0.6484
 3988SOL    HW112542   9.074   4.064   7.754  0.1640  1.5684 -0.7889
 3988SOL    HW212543   8.924   4.045   7.760  0.4188 -0.0891  1.2027
 3989SOL     OW12544   6.136   8.256   8.884 -0.0319 -0.6227 -0.1041
 3989SOL    HW112545   6.094   8.197   8.946 -0.4992  1.5917  1.8627
 3989SOL    HW212546   6.090   8.339   8.895  0.8683  0.2631 -2.3978
 3990SOL     OW12547   4.806   8.518   3.632 -0.2357 -0.2313 -0.0226
 3990SOL    HW112548   4.759   8.442   3.666  0.7597 -0.2489  1.4026
 3990SOL    HW212549   4.822   8.573   3.709  0.1310  0.8337 -0.8291
 3991SOL     OW12550   5.038   1.191   8.995 -0.1340 -0.1130 -0.3189
 3991SOL    HW112551   5.087   1.273   8.989  0.4261 -0.5496 -2.0532
 3991SOL    HW212552   5.103   1.126   9.021 -0.2349 -0.3129 -0.5714
 3992SOL     OW12553   6.421   9.091   7.011 -0.5773 -0.2196 -0.4762
 3992SOL    HW112554   6.335   9.092   7.053  0.2093 -0.2497  1.2182
 3992SOL    HW212555   6.411   9.148   6.935 -2.1069 -0.2891 -0.3661
 3993SOL     OW12556   3.394   5.284   7.900  0.2410 -0.7397  0.1836
 3993SOL    HW112557   3.379   5.377   7.914  2.5097 -0.0482 -1.4381
 3993SOL    HW212558   3.309   5.243   7.913 -0.6765  1.4587  1.5528
 3994SOL     OW12559   2.706   7.782   6.531  0.1219 -0.4036 -0.3104
 3994SOL    HW112560   2.654   7.856   6.562  1.0274  1.3986 -2.7282
 3994SOL    HW212561   2.769   7.766   6.600 -0.5401  0.6286  0.5705
 3995SOL     OW12562   1.752   3.694   1.398 -0.2501 -0.3306  0.3745
 3995SOL    HW112563   1.803   3.621   1.430  0.5172  0.1552  0.2812
 3995SOL    HW212564   1.810   3.770   1.405 -0.9915  0.2587  0.3826
 3996SOL     OW12565   2.636   1.949   5.514  0.6472 -0.0130 -0.2021
 3996SOL    HW112566   2.728   1.942   5.539  0.0923 -2.4283  1.4474
 3996SOL    HW212567   2.609   1.860   5.492 -1.6193  0.4010  0.6013
 3997SOL     OW12568   2.061   2.354   1.337 -0.2096  0.5189  0.3035
 3997SOL    HW112569   2.126   2.323   1.274  0.4442  1.2340  0.6074
 3997SOL    HW212570   1.989   2.291   1.330  0.2841  0.0132 -0.4199
 3998SOL     OW12571   1.021   3.491   3.999  0.7051 -0.4443  0.5217
 3998SOL    HW112572   0.948   3.553   4.004  0.7756 -0.1928 -1.0043
 3998SOL    HW212573   0.993   3.416   4.052 -0.2038  0.0904  0.8202
 3999SOL     OW12574   6.330   9.166   0.162  0.3182  0.3081  0.2851
 3999SOL    HW112575   6.327   9.115   0.243  2.2630 -1.2319 -0.5471
 3999SOL    HW212576   6.275   9.117   0.101  0.3956  0.4174  0.1280
 4000SOL     OW12577   0.429   1.753   2.728  0.5879 -0.1813 -0.3205
 4000SOL    HW112578   0.435   1.845   2.700  0.0108  0.0121  0.1420
 4000SOL    HW212579   0.477   1.750   2.811 -0.0621 -0.1086  0.0666
 4001SOL     OW12580   7.566   3.628   0.628 -0.7696 -0.4165  0.5127
 4001SOL    HW112581   7.528   3.583   0.552  1.6002 -0.0156 -1.0395
 4001SOL    HW212582   7.618   3.560   0.672 -2.5219 -0.7709  2.1316
 4002SOL     OW12583   0.165   1.023   0.175  0.0782  0.6723 -0.4070
 4002SOL    HW112584   0.201   1.096   0.124  1.1277  1.9883  2.0116
 4002SOL    HW212585   0.092   1.061   0.223 -2.2931 -1.0649 -2.4126
 4003SOL     OW12586   7.193   3.880   0.322  0.3668  0.3027 -0.1892
 4003SOL    HW112587   7.170   3.873   0.414 -0.9884  0.1499 -0.5064
 4003SOL    HW212588   7.241   3.962   0.315 -0.9373  1.1443  0.4017
 4004SOL     OW12589   0.139   9.164   7.723 -0.4579 -0.3872  0.0478
 4004SOL    HW112590   0.075   9.197   7.660 -0.7938 -2.3944 -0.7279
 4004SOL    HW212591   0.211   9.131   7.669 -0.3830 -1.4112  0.7503
 4005SOL     OW12592   5.161   4.154   3.932 -0.1164 -0.1500  0.0081
 4005SOL    HW112593   5.223   4.206   3.881 -0.7826  1.3813  0.7148
 4005SOL    HW212594   5.206   4.137   4.015 -0.7640  1.3090  0.6800
 4006SOL     OW12595   4.692   6.343   6.732  0.4320 -0.8243 -0.0781
 4006SOL    HW112596   4.727   6.300   6.810 -1.7132 -1.1182  0.7997
 4006SOL    HW212597   4.598   6.352   6.750  0.4197  2.2646 -1.1673
 4007SOL     OW12598   5.898   7.229   1.473  0.4480 -0.6353  0.2029
 4007SOL    HW112599   5.824   7.234   1.533  0.1161 -1.8089 -0.0659
 4007SOL    HW212600   5.866   7.175   1.400  0.2596  2.1049 -1.9077
 4008SOL     OW12601   1.375   0.652   6.861 -0.0496 -0.4717 -0.4855
 4008SOL    HW112602   1.288   0.664   6.824  0.4909  0.5743 -1.5322
 4008SOL    HW212603   1.363   0.655   6.955 -1.0372  0.6444 -0.6249
 4009SOL     OW12604   1.516   8.069   0.620 -0.4949  0.3756  0.0270
 4009SOL    HW112605   1.466   8.090   0.541 -1.2882 -0.0031  0.4094
 4009SOL    HW212606   1.607   8.090   0.598 -0.6025 -0.3895 -1.2331
 4010SOL     OW12607   3.950   6.047   2.205  0.0360  0.1863 -0.2301
 4010SOL    HW112608   4.001   6.069   2.283  0.7532 -1.6124 -0.1467
 4010SOL    HW212609   4.013   6.053   2.133 -0.3633  0.7634 -0.5467
 4011SOL     OW12610   5.829   5.053   0.806  0.2648 -0.2565 -0.4491
 4011SOL    HW112611   5.766   5.040   0.735  0.6827  2.0736 -1.3240
 4011SOL    HW212612   5.856   4.964   0.829 -3.0216 -1.3488 -0.2441
 4012SOL     OW12613   3.382   4.325   2.920  0.8133  0.2637 -0.2559
 4012SOL    HW112614   3.454   4.363   2.871  1.2222  0.1287  0.2321
 4012SOL    HW212615   3.368   4.384   2.994  2.1057 -0.9872  1.0648
 4013SOL     OW12616   0.122   5.073   6.014 -0.0918 -0.4975  0.6431
 4013SOL    HW112617   0.047   5.094   6.069 -0.0549 -0.7732  0.8025
 4013SOL    HW212618   0.168   5.156   6.003  0.6649 -0.6824  2.1723
 4014SOL     OW12619   3.465   0.763   3.121 -0.1636  0.9170  0.1773
 4014SOL    HW112620   3.433   0.769   3.211  0.2872  1.6054  0.2990
 4014SOL    HW212621   3.501   0.850   3.103  1.6826  0.1748  0.0712
 4015SOL     OW12622   4.145   9.093   2.400 -0.3635  0.0742  0.2362
 4015SOL    HW112623   4.078   9.147   2.442 -0.6771  0.3314 -0.5688
 4015SOL    HW212624   4.107   9.005   2.397 -1.2935  0.4795 -1.4630
 4016SOL     OW12625   1.022   1.605   4.899 -0.5219 -0.3611  0.8109
 4016SOL    HW112626   0.986   1.522   4.931 -1.7524  0.0083  0.4425
 4016SOL    HW212627   1.049   1.585   4.809 -0.2413 -0.5221  0.9304
 4017SOL     OW12628   7.739   2.267   8.304 -0.1099  0.4702  0.0802
 4017SOL    HW112629   7.760   2.347   8.254 -1.0250 -0.3255 -1.6648
 4017SOL    HW212630   7.811   2.259   8.366  0.6363  2.0016 -0.5126
 4018SOL     OW12631   8.422   6.874   6.534 -0.0603 -0.0704 -0.6830
 4018SOL    HW112632   8.356   6.825   6.484  0.7971 -0.4456 -1.4564
 4018SOL    HW212633   8.491   6.893   6.472  1.2245 -0.8987  0.4388
 4019SOL     OW12634   5.809   6.463   7.414  0.2265 -0.0966 -0.2983
 4019SOL    HW112635   5.831   6.400   7.482  0.3423  0.3240  0.0605
 4019SOL    HW212636   5.714   6.474   7.420  0.2917  0.2718  0.0933
 4020SOL     OW12637   7.957   7.263   0.286  0.2711  0.5262  0.2197
 4020SOL    HW112638   7.937   7.343   0.335 -1.6493  0.1083  0.2113
 4020SOL    HW212639   7.883   7.253   0.225  1.0930 -0.6029 -0.6452
 4021SOL     OW12640   8.247   3.969   4.697 -0.3328  0.0623 -0.6887
 4021SOL    HW112641   8.286   4.050   4.729  1.0436 -0.9069  0.1917
 4021SOL    HW212642   8.225   3.920   4.776  0.8414 -1.3255 -1.1978
 4022SOL     OW12643   2.024   8.983   3.164  0.2495  0.1580  0.4858
 4022SOL    HW112644   2.012   8.903   3.216  0.7961 -0.0411  0.3141
 4022SOL    HW212645   2.002   8.957   3.074 -0.5669  0.4676  0.5860
 4023SOL     OW12646   5.554   8.814   8.651  0.1717  0.7543  0.3062
 4023SOL    HW112647   5.594   8.785   8.568  0.3910  1.0137  0.3210
 4023SOL    HW212648   5.481   8.753   8.664  0.6837  0.1432  0.3841
 4024SOL     OW12649   4.050   5.009   5.151  0.2299 -0.2918 -0.0212
 4024SOL    HW112650   4.079   4.918   5.157 -0.4357 -0.4933  0.2591
 4024SOL    HW212651   4.111   5.050   5.091  0.9587 -0.7570  0.3873
 4025SOL     OW12652   7.569   3.335   7.234 -0.0264  0.4350  0.1477
 4025SOL    HW112653   7.657   3.369   7.253 -0.9354  1.9213  1.9853
 4025SOL    HW212654   7.519   3.351   7.314 -1.6389 -1.6578 -0.3457
 4026SOL     OW12655   9.050   9.569   9.583  0.1655 -0.3438 -0.4128
 4026SOL    HW112656   9.144   9.553   9.591  0.0322 -0.8843  0.1522
 4026SOL    HW212657   9.038   9.659   9.613  0.7471  0.4042 -2.3099
 4027SOL     OW12658   2.757   4.589   1.443  0.8510  0.1110  0.3567
 4027SOL    HW112659   2.745   4.659   1.378 -0.3162  0.4892  0.9469
 4027SOL    HW212660   2.819   4.626   1.507  0.8704  0.2960  0.2321
 4028SOL     OW12661   6.326   2.621   0.828  0.1213 -0.1029  0.2858
 4028SOL    HW112662   6.299   2.653   0.742  0.6949 -0.1524  0.0815
 4028SOL    HW212663   6.329   2.699   0.883 -0.8876 -0.1623  0.4368
 4029SOL     OW12664   5.604   3.498   8.311  0.0173 -0.1985  0.2106
 4029SOL    HW112665   5.531   3.484   8.250 -0.8816 -0.9567  1.4171
 4029SOL    HW212666   5.622   3.592   8.307 -1.4932  0.1152  0.4040
 4030SOL     OW12667   6.838   9.369   3.369 -0.6743 -0.0810  0.5318
 4030SOL    HW112668   6.769   9.341   3.430 -0.0779 -0.0731  1.2218
 4030SOL    HW212669   6.805   9.343   3.283 -0.4347 -2.3820  1.0690
 4031SOL     OW12670   8.792   1.850   1.279 -0.1327  0.1236 -0.1307
 4031SOL    HW112671   8.786   1.938   1.242  0.5827  0.4965  0.6099
 4031SOL    HW212672   8.709   1.837   1.323  0.3029  1.0449  1.0346
 4032SOL     OW12673   3.193   1.284   8.167  0.4919 -0.3673 -0.2755
 4032SOL    HW112674   3.260   1.240   8.115  0.3319  0.1349 -0.9211
 4032SOL    HW212675   3.239   1.314   8.246  0.7963 -0.9060 -0.2447
 4033SOL     OW12676   3.463   6.383   3.783 -0.0740 -0.0656 -0.0581
 4033SOL    HW112677   3.368   6.383   3.776 -0.0569  0.0809 -0.3028
 4033SOL    HW212678   3.487   6.475   3.796  0.0948  0.0161 -0.8891
 4034SOL     OW12679   4.339   2.022   8.424  0.4062 -0.0151 -0.2407
 4034SOL    HW112680   4.340   2.038   8.329 -1.0714  1.3362 -0.0862
 4034SOL    HW212681   4.395   2.090   8.460  0.7428 -0.3557 -0.1186
 4035SOL     OW12682   4.557   3.669   3.026  0.4877  0.3266  0.0439
 4035SOL    HW112683   4.607   3.641   3.103  1.0071  2.5947  0.6111
 4035SOL    HW212684   4.614   3.733   2.983 -0.5304  0.3933 -1.2493
 4036SOL     OW12685   3.756   6.049   2.826  0.1239  0.3551  0.0266
 4036SOL    HW112686   3.701   6.122   2.854  2.2327  1.6745  0.9387
 4036SOL    HW212687   3.740   5.980   2.890  1.1935  1.5679  1.6610
 4037SOL     OW12688   5.220   2.123   6.449 -0.1313 -0.2973  0.3105
 4037SOL    HW112689   5.148   2.187   6.451  0.1974  0.1041 -0.2465
 4037SOL    HW212690   5.226   2.091   6.539 -0.7079 -0.0010  0.4655
 4038SOL     OW12691   7.430   9.662   3.666 -1.1580  0.4304  0.0155
 4038SOL    HW112692   7.400   9.640   3.754 -1.2572  0.7660  0.0670
 4038SOL    HW212693   7.367   9.620   3.608 -0.2846 -1.0048  0.0665
 4039SOL     OW12694   5.684   0.288   4.417 -0.0134 -0.5855  0.0766
 4039SOL    HW112695   5.655   0.305   4.327  0.1612 -0.3328  0.0663
 4039SOL    HW212696   5.748   0.217   4.408  0.5687 -0.0525 -0.0931
 4040SOL     OW12697   3.974   3.075   7.909  0.1250  0.5620 -0.0896
 4040SOL    HW112698   4.013   3.135   7.845 -1.0330  1.4209 -0.0315
 4040SOL    HW212699   4.048   3.034   7.953  1.1201 -2.1097 -3.7511
 4041SOL     OW12700   0.832   3.550   8.435  0.8136  0.3103 -0.6609
 4041SOL    HW112701   0.912   3.545   8.488 -0.3020 -1.1357  1.0058
 4041SOL    HW212702   0.801   3.640   8.448  0.5608  0.0007  1.2693
 4042SOL     OW12703   9.645   0.362   5.842 -0.0134  0.0319 -0.4736
 4042SOL    HW112704   9.641   0.457   5.857 -0.5851 -0.1995  1.0191
 4042SOL    HW212705   9.562   0.341   5.798 -0.4086  0.0645  0.2480
 4043SOL     OW12706   4.646   5.405   6.123  0.0409  0.0006  0.2309
 4043SOL    HW112707   4.656   5.358   6.040  0.3736  1.5760 -0.6533
 4043SOL    HW212708   4.558   5.382   6.154  0.3031 -1.4108 -0.0207
 4044SOL     OW12709   8.142   4.431   1.126 -0.1206  0.1867  0.7574
 4044SOL    HW112710   8.141   4.433   1.222  2.0983  0.6817  0.8284
 4044SOL    HW212711   8.089   4.505   1.100 -2.4931 -1.1494  1.5191
 4045SOL     OW12712   8.614   7.180   0.954 -0.2009 -0.7378  0.1017
 4045SOL    HW112713   8.589   7.142   0.870 -0.1231  1.5933 -1.0417
 4045SOL    HW212714   8.635   7.104   1.009 -2.7566 -2.4670 -1.1130
 4046SOL     OW12715   6.344   6.827   8.237 -0.3159 -0.0656 -0.0657
 4046SOL    HW112716   6.437   6.833   8.258 -0.0340  2.0648 -1.6313
 4046SOL    HW212717   6.341   6.824   8.141 -1.8707  2.1543 -0.1721
 4047SOL     OW12718   0.343   2.304   3.710  0.2409 -0.1463  0.3570
 4047SOL    HW112719   0.271   2.241   3.704 -1.6016  1.8077  0.6939
 4047SOL    HW212720   0.412   2.266   3.655 -1.1286 -1.9771 -0.2224
 4048SOL     OW12721   8.288   8.633   1.075 -0.2115 -0.0884  0.4632
 4048SOL    HW112722   8.201   8.611   1.109 -0.4840 -4.2919 -2.2274
 4048SOL    HW212723   8.348   8.603   1.143 -0.8151  0.1335  1.1106
 4049SOL     OW12724   0.878   2.928   8.324  0.1597 -0.3448 -0.3008
 4049SOL    HW112725   0.814   2.860   8.347 -3.4283  3.0053  0.6645
 4049SOL    HW212726   0.861   2.947   8.232  0.9702 -0.4753 -0.4927
 4050SOL     OW12727   2.755   3.779   1.259  0.5761  0.7430 -0.2244
 4050SOL    HW112728   2.827   3.735   1.305 -0.7293 -1.0238  0.2468
 4050SOL    HW212729   2.678   3.759   1.312 -0.5949  0.8194 -1.8466
 4051SOL     OW12730   1.604   6.998   2.649  0.3430 -0.1203  0.1107
 4051SOL    HW112731   1.689   6.999   2.605  0.6747 -0.6648  0.7164
 4051SOL    HW212732   1.612   7.064   2.718  0.2656 -0.1584  0.1563
 4052SOL     OW12733   3.181   8.777   8.405 -0.4644 -0.5877 -0.3246
 4052SOL    HW112734   3.156   8.689   8.433  0.8963 -1.3182 -1.2547
 4052SOL    HW212735   3.266   8.793   8.447 -0.4437  0.0629 -0.5900
 4053SOL     OW12736   6.508   7.985   8.676  0.1859 -0.3657 -0.0753
 4053SOL    HW112737   6.503   8.042   8.753  1.6871 -0.0190 -0.2010
 4053SOL    HW212738   6.425   7.938   8.675 -1.2469  2.0494 -0.1498
 4054SOL     OW12739   9.913   9.181   1.147 -0.5295 -0.7417  0.1418
 4054SOL    HW112740   9.907   9.212   1.238 -1.4160  0.0506 -0.1735
 4054SOL    HW212741   9.977   9.239   1.106  0.7773 -1.8404  0.5275
 4055SOL     OW12742   4.774   4.351   2.726  0.1061  0.9097 -0.0955
 4055SOL    HW112743   4.729   4.297   2.662  2.9088  1.4890 -2.8135
 4055SOL    HW212744   4.747   4.440   2.706  3.2635  1.4654 -2.8755
 4056SOL     OW12745   3.148   1.560   7.434  0.2379  0.1753 -0.0210
 4056SOL    HW112746   3.114   1.494   7.374  0.0419 -1.0726  1.3949
 4056SOL    HW212747   3.210   1.512   7.489  3.3101  2.0468 -1.5606
 4057SOL     OW12748   7.256   7.675   6.444  0.0184 -0.1914  0.7137
 4057SOL    HW112749   7.188   7.738   6.469 -0.5543 -0.3986 -0.2538
 4057SOL    HW212750   7.299   7.652   6.526 -1.7616 -0.8447  1.5302
 4058SOL     OW12751   2.061   4.430   1.069  0.0160 -0.0016  0.2475
 4058SOL    HW112752   2.090   4.514   1.106 -1.3847  0.2685  0.7707
 4058SOL    HW212753   2.113   4.364   1.117  1.7574  0.5635 -0.7691
 4059SOL     OW12754   5.658   9.597   3.375 -0.0444 -0.0696 -0.1053
 4059SOL    HW112755   5.669   9.508   3.407 -2.6606 -1.1964 -1.9849
 4059SOL    HW212756   5.606   9.642   3.441 -0.4402 -0.5702 -0.0787
 4060SOL     OW12757   2.420   6.369   6.930 -0.2445 -0.4894  0.1792
 4060SOL    HW112758   2.434   6.432   7.002 -0.9495  0.4364 -0.4736
 4060SOL    HW212759   2.477   6.296   6.952 -0.7681 -0.4262  1.9303
 4061SOL     OW12760   6.865   0.828   0.342 -0.1060 -0.3012 -0.4986
 4061SOL    HW112761   6.941   0.884   0.325  0.6461 -1.6641 -1.8951
 4061SOL    HW212762   6.789   0.882   0.317  0.5829  0.1997 -1.5838
 4062SOL     OW12763   4.349   8.119   4.182  0.2067 -0.0436 -0.2064
 4062SOL    HW112764   4.302   8.037   4.171 -1.1431  0.8481 -1.5887
 4062SOL    HW212765   4.426   8.097   4.234 -0.3752 -2.0674 -0.1483
 4063SOL     OW12766   7.141   2.404   3.825 -0.0689 -1.2743  0.1826
 4063SOL    HW112767   7.064   2.349   3.812 -0.2950 -1.0029  0.3682
 4063SOL    HW212768   7.214   2.343   3.828 -0.1595 -1.4683 -0.9581
 4064SOL     OW12769   3.804   1.944   9.516  0.5314  0.2470 -0.0756
 4064SOL    HW112770   3.789   2.038   9.529 -0.1555  0.1029  0.1902
 4064SOL    HW212771   3.849   1.940   9.431  1.4979  0.8830  0.3767
 4065SOL     OW12772   8.330   6.517   6.547  0.3879  0.5529  0.8581
 4065SOL    HW112773   8.387   6.474   6.484  1.8032 -0.3514  2.6482
 4065SOL    HW212774   8.250   6.464   6.548  0.4469  0.4382  0.0349
 4066SOL     OW12775   5.699   9.584   4.952  0.3128  0.0239  0.1804
 4066SOL    HW112776   5.637   9.657   4.946  1.6281  1.1884  0.1666
 4066SOL    HW212777   5.723   9.580   5.044 -0.9861 -1.5150  0.5008
 4067SOL     OW12778   3.708   2.488   8.272 -0.4390  0.2291  0.2411
 4067SOL    HW112779   3.648   2.534   8.213  1.1098  1.9244 -0.1319
 4067SOL    HW212780   3.734   2.410   8.223  0.5429  1.4186 -1.2738
 4068SOL     OW12781   0.928   3.035   4.559  0.1649 -0.2104 -0.0559
 4068SOL    HW112782   0.902   3.123   4.588 -0.9092 -0.4561 -0.2178
 4068SOL    HW212783   0.855   3.006   4.504  0.3532 -1.3325  0.2618
 4069SOL     OW12784   9.904   5.169   3.268  0.3813  0.0813  0.0470
 4069SOL    HW112785   9.850   5.178   3.189  1.3795 -0.8373 -0.7648
 4069SOL    HW212786   9.944   5.083   3.260  0.1250 -0.2349  1.8226
 4070SOL     OW12787   7.831   8.901   7.539 -0.1728 -0.1657  0.0383
 4070SOL    HW112788   7.884   8.916   7.461 -1.4687  0.0109 -0.8507
 4070SOL    HW212789   7.855   8.971   7.600  1.2388 -0.6209  0.0218
 4071SOL     OW12790   6.570   0.015   4.324  0.4384 -0.1450  0.3619
 4071SOL    HW112791   6.610  -0.058   4.278 -0.2362  0.9881 -2.2050
 4071SOL    HW212792   6.636   0.084   4.323 -0.7363  1.0885 -2.2268
 4072SOL     OW12793   7.686   4.504   4.502  0.1000 -0.6097 -0.0395
 4072SOL    HW112794   7.779   4.527   4.499  0.6330 -2.4953  0.6380
 4072SOL    HW212795   7.676   4.453   4.582 -1.0529 -2.2897 -1.1752
 4073SOL     OW12796   4.758   3.550   7.295 -0.1434 -0.3204  0.6939
 4073SOL    HW112797   4.853   3.539   7.298 -0.3193 -2.4684 -0.0346
 4073SOL    HW212798   4.741   3.601   7.216  0.3685 -0.6914  0.3410
 4074SOL     OW12799   8.966   6.672   3.716 -0.0444  0.3071  0.4912
 4074SOL    HW112800   8.928   6.679   3.804 -1.8075 -1.1681 -0.0795
 4074SOL    HW212801   8.918   6.737   3.665 -0.7984 -0.5329  0.1017
 4075SOL     OW12802   3.823   0.093   4.513 -0.1071 -0.1663  0.3667
 4075SOL    HW112803   3.831   0.000   4.536  1.4331 -0.7897 -2.2581
 4075SOL    HW212804   3.819   0.094   4.418  0.1069  2.4988  0.3101
 4076SOL     OW12805   1.886   5.965   8.905  0.1066  0.2899  0.3371
 4076SOL    HW112806   1.801   5.957   8.862 -0.1760 -3.4140  1.2877
 4076SOL    HW212807   1.949   5.944   8.836  0.1520  1.1124  0.1166
 4077SOL     OW12808   4.442   5.635   4.365  0.1081 -0.0209  0.4105
 4077SOL    HW112809   4.364   5.637   4.308 -0.2677 -0.2701  0.9107
 4077SOL    HW212810   4.512   5.602   4.308  0.1953  1.5473 -0.4363
 4078SOL     OW12811   7.643   8.414   2.957 -0.8715 -0.3883  0.0875
 4078SOL    HW112812   7.688   8.486   3.000 -2.1780  1.6815 -1.7517
 4078SOL    HW212813   7.624   8.351   3.027  1.7213  0.2384  1.4717
 4079SOL     OW12814   6.348   1.916   2.901  0.2125  0.1189 -0.1295
 4079SOL    HW112815   6.436   1.947   2.923  0.1378 -0.3099  0.8312
 4079SOL    HW212816   6.303   1.909   2.986 -0.7369  0.3020 -0.6054
 4080SOL     OW12817   0.359   9.554   9.932 -0.0287 -0.9015  0.2905
 4080SOL    HW112818   0.445   9.544   9.892 -0.5510 -1.6112 -0.6894
 4080SOL    HW212819   0.302   9.493   9.884 -1.1954 -0.0619  0.5532
 4081SOL     OW12820   6.855   7.588   4.081 -0.1111 -0.2596 -0.4821
 4081SOL    HW112821   6.816   7.501   4.090 -1.2571 -0.0330 -2.6701
 4081SOL    HW212822   6.934   7.584   4.135  0.3875 -3.0048 -1.2389
 4082SOL     OW12823   0.941   8.438   9.936  0.1116  0.1529 -0.4282
 4082SOL    HW112824   0.924   8.518   9.986  0.6980 -0.2378  0.4275
 4082SOL    HW212825   0.854   8.405   9.914 -0.1804  0.1771  0.6119
 4083SOL     OW12826   8.381   7.120   6.667  0.8217  0.5233 -0.2580
 4083SOL    HW112827   8.403   7.029   6.647  1.9055  0.6275  0.4077
 4083SOL    HW212828   8.287   7.126   6.650  0.7408 -0.7120 -0.3236
 4084SOL     OW12829   9.914   6.204   5.646  0.5230  0.4525 -0.5825
 4084SOL    HW112830   9.933   6.202   5.740 -1.0756  2.0095 -0.1590
 4084SOL    HW212831   9.827   6.164   5.638  0.9002 -0.2172 -1.5006
 4085SOL     OW12832   3.089   0.987   9.202  0.0239 -0.2597  0.0563
 4085SOL    HW112833   3.068   0.930   9.276  0.8943 -1.4690 -0.5876
 4085SOL    HW212834   3.052   0.942   9.126  1.0460 -0.1722 -0.5148
 4086SOL     OW12835   0.673   2.197   6.114 -0.2909  0.2905 -0.2395
 4086SOL    HW112836   0.686   2.198   6.019 -3.0582  1.5718 -0.7251
 4086SOL    HW212837   0.700   2.284   6.142  0.2965 -0.0041  0.1083
 4087SOL     OW12838   6.245   5.711   1.992  0.2813  0.4243 -0.2251
 4087SOL    HW112839   6.174   5.666   1.946 -0.0761  0.1082  0.6340
 4087SOL    HW212840   6.202   5.784   2.037  1.0253  2.6246 -2.7704
 4088SOL     OW12841   9.878   1.377   0.115 -0.1884 -0.0658 -0.8055
 4088SOL    HW112842   9.893   1.322   0.192 -1.0828  0.8959  0.0939
 4088SOL    HW212843   9.801   1.338   0.072  1.1183 -1.4130 -2.0212
 4089SOL     OW12844   3.059   4.679   8.250 -0.0587 -0.8964 -0.9643
 4089SOL    HW112845   3.050   4.601   8.195  3.9995 -0.1337 -3.0790
 4089SOL    HW212846   3.105   4.742   8.195 -1.2611  2.2972  1.3881
 4090SOL     OW12847   8.792   8.131   0.229 -0.0231  0.5130  0.1725
 4090SOL    HW112848   8.769   8.197   0.294 -1.3550 -0.5535  0.8625
 4090SOL    HW212849   8.821   8.056   0.281 -1.8798 -0.6491 -0.3373
 4091SOL     OW12850   3.576   0.714   6.089  0.5730 -0.3084 -0.2187
 4091SOL    HW112851   3.593   0.804   6.117  2.5875 -0.7480  0.1297
 4091SOL    HW212852   3.624   0.659   6.151 -0.0703 -1.6043 -0.8150
 4092SOL     OW12853   4.419   4.679   6.636  0.1279 -0.7109  0.3348
 4092SOL    HW112854   4.396   4.645   6.549 -1.8555  0.8420  0.1651
 4092SOL    HW212855   4.335   4.690   6.680  1.0020 -0.1635  1.9431
 4093SOL     OW12856   5.982   0.767   3.019 -0.1552 -0.0893  0.6080
 4093SOL    HW112857   5.926   0.821   3.075  0.0170  2.5450 -1.5246
 4093SOL    HW212858   5.990   0.817   2.938  1.5034 -2.5876 -0.9236
 4094SOL     OW12859   3.343   3.263   9.822  0.4065  0.3185 -0.4943
 4094SOL    HW112860   3.249   3.272   9.810  0.0964 -1.3285  0.3611
 4094SOL    HW212861   3.354   3.237   9.913  1.4955 -1.4688 -1.0671
 4095SOL     OW12862   4.853   0.621   1.238 -0.0547  0.2815  0.2635
 4095SOL    HW112863   4.837   0.702   1.190  0.1259  0.3183  0.2663
 4095SOL    HW212864   4.821   0.552   1.180 -0.2876  0.3607  0.2970
 4096SOL     OW12865   4.391   9.944   8.826  0.1315  0.1867  0.1132
 4096SOL    HW112866   4.467   9.996   8.854  1.0347 -1.5952  1.1917
 4096SOL    HW212867   4.410   9.921   8.736 -0.3816  1.8357 -0.4517
 4097SOL     OW12868   4.014   6.884   0.729  0.1330  0.9055 -0.0967
 4097SOL    HW112869   4.106   6.901   0.709 -0.1611  2.2485 -0.4163
 4097SOL    HW212870   3.972   6.874   0.643  0.1929 -1.0676  0.0676
 4098SOL     OW12871   7.610   6.457   7.095 -0.2292 -0.1146 -0.2362
 4098SOL    HW112872   7.637   6.380   7.145 -0.6877 -0.3669 -0.3786
 4098SOL    HW212873   7.681   6.520   7.108 -0.2146 -0.2822  0.5066
 4099SOL     OW12874   7.166   8.573   2.714 -0.5247 -0.4148  0.5045
 4099SOL    HW112875   7.143   8.528   2.633 -0.7566  1.7329 -0.7131
 4099SOL    HW212876   7.245   8.530   2.745 -1.0770 -2.0240 -0.2096
 4100SOL     OW12877   4.986   2.715   4.319 -0.6944  0.4543  0.0369
 4100SOL    HW112878   4.987   2.628   4.280  1.4096  0.6599 -0.5270
 4100SOL    HW212879   4.971   2.699   4.412  1.1070 -0.6890  0.1846
 4101SOL     OW12880   3.724   2.127   1.489  0.2636 -0.2511 -0.0216
 4101SOL    HW112881   3.781   2.057   1.520 -0.3042 -0.5123  0.4664
 4101SOL    HW212882   3.680   2.090   1.413 -0.0797 -0.4563  0.2706
 4102SOL     OW12883   3.607   7.844   0.584 -0.5951 -0.4656  0.0534
 4102SOL    HW112884   3.596   7.860   0.677 -1.3804 -1.8342  0.2155
 4102SOL    HW212885   3.574   7.924   0.542 -1.2547 -0.2783  0.9184
 4103SOL     OW12886   7.259   6.798   0.060 -0.0264 -0.4499 -0.4930
 4103SOL    HW112887   7.265   6.708   0.029 -0.4826 -0.0058 -1.9792
 4103SOL    HW212888   7.340   6.839   0.030 -0.2551 -0.1262 -0.6764
 4104SOL     OW12889   2.134   1.506   7.904  0.0566  0.6183  0.0199
 4104SOL    HW112890   2.211   1.554   7.872  0.4647  0.2263  0.3966
 4104SOL    HW212891   2.165   1.416   7.915  0.2955  0.9474  2.6583
 4105SOL     OW12892   2.578   6.782   0.575  0.0070 -0.0227 -0.3320
 4105SOL    HW112893   2.548   6.691   0.567  0.0342 -0.1559  0.8660
 4105SOL    HW212894   2.524   6.830   0.512  0.0178 -0.8708 -1.0116
 4106SOL     OW12895   3.178   0.594   2.065 -0.2808 -0.2163  0.7715
 4106SOL    HW112896   3.130   0.517   2.094 -0.9184  0.6695  2.2005
 4106SOL    HW212897   3.112   0.664   2.063  0.2576  0.2885 -0.5861
 4107SOL     OW12898   7.021   3.288   4.644  0.0735  0.3012 -0.4131
 4107SOL    HW112899   7.076   3.233   4.587 -2.2231 -2.3621 -0.2296
 4107SOL    HW212900   6.977   3.348   4.584  2.0944  1.6097 -0.6911
 4108SOL     OW12901   4.991   8.230   3.898 -1.0014 -0.4316  0.0911
 4108SOL    HW112902   5.037   8.152   3.866 -0.0694  0.0920  0.1068
 4108SOL    HW212903   5.055   8.273   3.956 -1.8305 -0.1403  0.8065
 4109SOL     OW12904   8.010   5.201   6.606  0.1875 -0.1734 -0.0568
 4109SOL    HW112905   8.060   5.279   6.632 -0.9346  0.5353  0.0306
 4109SOL    HW212906   8.040   5.183   6.517 -1.0101  1.6338 -0.8922
 4110SOL     OW12907   7.971   2.177   5.927 -0.4248  0.6580 -0.1817
 4110SOL    HW112908   7.998   2.237   5.997 -1.4163  0.0434  0.7538
 4110SOL    HW212909   7.913   2.229   5.872  0.7791  1.3070 -0.8987
 4111SOL     OW12910   4.426   8.437   2.313 -0.2516 -0.0718  0.3019
 4111SOL    HW112911   4.420   8.531   2.326 -0.2862 -0.1024  0.5048
 4111SOL    HW212912   4.433   8.401   2.401  0.7689 -0.1863  0.1843
 4112SOL     OW12913   1.624   9.157   6.906  0.4594 -0.4978 -0.1908
 4112SOL    HW112914   1.537   9.126   6.931  0.9754  0.7037  3.8021
 4112SOL    HW212915   1.684   9.090   6.939  1.1841  0.3032  0.1427
 4113SOL     OW12916   0.542   4.730   7.792  0.3772  0.7728 -0.0420
 4113SOL    HW112917   0.596   4.678   7.852 -0.5269  1.0685  1.0628
 4113SOL    HW212918   0.491   4.665   7.744  0.0437  0.5740  0.5626
 4114SOL     OW12919   2.660   9.856   6.785 -0.0257  0.3123  0.1810
 4114SOL    HW112920   2.688   9.948   6.786  1.4091 -0.0884 -0.3649
 4114SOL    HW212921   2.565   9.860   6.799 -0.0635  1.8995 -0.2666
 4115SOL     OW12922   4.036   3.207   1.130 -0.1260  0.3147 -0.0751
 4115SOL    HW112923   4.109   3.181   1.186 -0.2076 -2.9425 -1.2344
 4115SOL    HW212924   4.062   3.291   1.094  2.1350  0.1943  1.0750
 4116SOL     OW12925   4.284   2.018   5.134 -0.0531  0.2118  0.3852
 4116SOL    HW112926   4.375   2.004   5.159  0.1694  1.9153  0.6301
 4116SOL    HW212927   4.274   1.970   5.052  0.3657 -1.9853  1.5185
 4117SOL     OW12928   7.773   5.640   6.473  0.0616 -0.3167 -0.5188
 4117SOL    HW112929   7.781   5.729   6.438 -0.8893  0.1010  0.2791
 4117SOL    HW212930   7.680   5.629   6.491  0.4973 -0.3500  2.2050
 4118SOL     OW12931   1.257   2.275   1.135 -0.1865 -0.2037  0.1288
 4118SOL    HW112932   1.236   2.184   1.113  2.6152 -1.5647  2.3374
 4118SOL    HW212933   1.352   2.281   1.126 -0.3111  2.6785 -0.3316
 4119SOL     OW12934   0.916   1.781   8.443  0.2385  0.0027  0.2081
 4119SOL    HW112935   0.873   1.715   8.498  0.1505 -0.6895 -0.6604
 4119SOL    HW212936   0.938   1.734   8.362 -2.0099  1.5853 -1.4681
 4120SOL     OW12937   6.670   2.517   9.508 -0.4524  0.8480  0.0982
 4120SOL    HW112938   6.681   2.558   9.593  0.8135 -0.3589  0.5621
 4120SOL    HW212939   6.636   2.429   9.527  0.0312  0.4935 -0.5955
 4121SOL     OW12940   8.177   6.497   4.378 -0.3165  0.1896 -0.0804
 4121SOL    HW112941   8.225   6.493   4.296  1.2637 -1.3642  0.8466
 4121SOL    HW212942   8.244   6.502   4.445 -1.5560  0.7016  1.1743
 4122SOL     OW12943   7.361   3.495   0.498  0.2401 -0.0535 -0.2628
 4122SOL    HW112944   7.324   3.421   0.448  0.7082 -1.5443  1.5020
 4122SOL    HW212945   7.307   3.499   0.577  2.8026 -1.2882  1.6579
 4123SOL     OW12946   8.733   7.713   7.598  0.1960 -0.0446  0.6830
 4123SOL    HW112947   8.741   7.781   7.665  0.0977  0.4220  0.2275
 4123SOL    HW212948   8.817   7.714   7.552 -0.5160  1.2021 -0.6579
 4124SOL     OW12949   9.664   1.927   0.653 -0.8351 -0.1926  0.3492
 4124SOL    HW112950   9.732   1.969   0.705 -0.8009 -2.1062  1.9620
 4124SOL    HW212951   9.680   1.833   0.663 -0.7719 -0.7309 -3.2414
 4125SOL     OW12952   8.330   2.162   5.040 -0.1189 -0.1435  0.2475
 4125SOL    HW112953   8.264   2.096   5.019 -1.0875  0.2715  1.7937
 4125SOL    HW212954   8.317   2.180   5.133  0.9215  1.3424  0.1464
 4126SOL     OW12955   4.289   9.808   2.712 -0.4595 -0.1821  0.4165
 4126SOL    HW112956   4.206   9.843   2.681  0.0676  0.6477 -0.0981
 4126SOL    HW212957   4.278   9.801   2.807 -1.0427  0.1110  0.3766
 4127SOL     OW12958   1.483   2.752   9.198  0.2844  0.2308  0.4911
 4127SOL    HW112959   1.515   2.751   9.107  0.5866 -0.7557  0.6087
 4127SOL    HW212960   1.558   2.726   9.251  0.4512  1.9217  1.1601
 4128SOL     OW12961   0.863   6.655   4.523  0.0785 -0.7705  0.1732
 4128SOL    HW112962   0.931   6.711   4.559 -0.0502 -0.2963 -0.3203
 4128SOL    HW212963   0.782   6.685   4.564  0.0614 -0.8473  0.1966
 4129SOL     OW12964   8.466   0.675   1.648  0.4061  0.0468  0.2443
 4129SOL    HW112965   8.497   0.635   1.730  1.5010  0.8257  0.2276
 4129SOL    HW212966   8.413   0.750   1.677  1.4467  0.7921  0.2405
 4130SOL     OW12967   9.642   5.879   2.122 -0.3749  0.2784 -0.2598
 4130SOL    HW112968   9.737   5.870   2.111 -0.4758 -1.0615 -0.2411
 4130SOL    HW212969   9.621   5.828   2.200 -1.0893  0.7599 -0.1207
 4131SOL     OW12970   0.961   2.467   7.059  0.0435 -0.5039 -0.1583
 4131SOL    HW112971   0.913   2.388   7.032  1.7415 -1.4768 -0.4292
 4131SOL    HW212972   0.955   2.525   6.984 -2.3206  0.2122  0.5017
 4132SOL     OW12973   0.502   0.627   6.279  0.0305  0.0594 -0.7307
 4132SOL    HW112974   0.466   0.698   6.226 -0.8743  1.5956  1.7397
 4132SOL    HW212975   0.436   0.558   6.274 -0.3195  0.4119 -1.1136
 4133SOL     OW12976   2.739   4.271   4.493 -0.2214  0.2075 -0.1666
 4133SOL    HW112977   2.655   4.302   4.528 -2.4871 -4.2599 -0.8835
 4133SOL    HW212978   2.767   4.340   4.433 -0.4248  4.3234  3.9319
 4134SOL     OW12979   0.969   2.626   4.693 -0.2074  0.4333 -0.2720
 4134SOL    HW112980   0.882   2.659   4.669 -0.6952 -0.7864 -0.2521
 4134SOL    HW212981   0.958   2.592   4.782  0.1572 -0.1730 -0.4516
 4135SOL     OW12982   7.370   3.822   2.120  0.3002  0.1212 -0.0404
 4135SOL    HW112983   7.326   3.878   2.184 -0.3858  0.5311 -0.8608
 4135SOL    HW212984   7.314   3.825   2.043 -0.1303 -2.2742  0.1185
 4136SOL     OW12985   1.807   3.527   3.628 -0.1879 -0.2468  0.0701
 4136SOL    HW112986   1.756   3.456   3.666  0.3764 -0.0126  1.3521
 4136SOL    HW212987   1.753   3.605   3.641 -0.6614 -0.3885 -1.0271
 4137SOL     OW12988   4.796   9.131   6.846 -0.4095 -0.1508 -0.0095
 4137SOL    HW112989   4.871   9.085   6.885 -1.0494 -0.3367  1.0532
 4137SOL    HW212990   4.768   9.074   6.774 -0.5092 -0.8973  0.5995
 4138SOL     OW12991   5.095   5.406   0.578  0.1949  0.6044  0.0339
 4138SOL    HW112992   5.127   5.471   0.641 -0.5769  0.5636  0.4878
 4138SOL    HW212993   5.127   5.437   0.494 -0.8451  2.0577  0.1272
 4139SOL     OW12994   9.736   1.772   2.436  0.3144  0.1322 -0.2652
 4139SOL    HW112995   9.765   1.685   2.464  0.5971  0.3748  0.2029
 4139SOL    HW212996   9.795   1.794   2.364  0.6826  0.2228  0.0621
 4140SOL     OW12997   9.548   5.294   3.098  0.0537  0.1489 -0.0819
 4140SOL    HW112998   9.567   5.252   3.014 -1.0301 -0.3922 -0.0755
 4140SOL    HW212999   9.628   5.284   3.149  0.5140 -0.0540 -0.8379
 4141SOL     OW13000   1.232   4.629   3.091  0.1412  0.0367  0.1439
 4141SOL    HW113001   1.203   4.634   3.000 -0.5130  1.3288  0.4085
 4141SOL    HW213002   1.179   4.558   3.129  0.2934 -0.3864 -0.4240
 4142SOL     OW13003   1.550   4.355   2.789  0.0742  0.1785  0.5603
 4142SOL    HW113004   1.573   4.402   2.869  0.6746  0.8387  0.0245
 4142SOL    HW213005   1.604   4.397   2.721 -0.2552 -0.5146 -0.1433
 4143SOL     OW13006   4.668   5.033   4.176  0.2939 -0.2474  0.3765
 4143SOL    HW113007   4.670   4.990   4.091 -1.9566  0.5067 -0.1318
 4143SOL    HW213008   4.582   5.010   4.213  0.0184  1.7908  1.1394
 4144SOL     OW13009   8.702   4.463   3.288 -0.1747 -0.2384  0.1313
 4144SOL    HW113010   8.699   4.389   3.349  0.2097 -0.1337  0.2844
 4144SOL    HW213011   8.736   4.426   3.207 -1.0012 -0.4453 -0.1243
 4145SOL     OW13012   1.078   5.861   1.097 -0.3181 -0.0201 -0.0148
 4145SOL    HW113013   1.125   5.797   1.152 -0.8662  0.1806  0.6991
 4145SOL    HW213014   1.061   5.814   1.015  2.3336  0.3296 -0.8586
 4146SOL     OW13015   2.622   0.251   0.736 -0.0736  0.0510 -0.0273
 4146SOL    HW113016   2.552   0.277   0.677 -0.8811  1.9191  1.6145
 4146SOL    HW213017   2.702   0.285   0.696 -0.4248  0.0245 -0.7492
 4147SOL     OW13018   8.065   7.356   5.008  0.0524  0.0743 -0.2014
 4147SOL    HW113019   8.143   7.329   5.056 -0.5383 -1.7507 -0.1711
 4147SOL    HW213020   8.080   7.448   4.985  1.3869  0.2811  1.3732
 4148SOL     OW13021   8.491   1.677   4.720  0.2891  0.0223  0.0852
 4148SOL    HW113022   8.461   1.763   4.749 -0.0613  0.0156 -0.2371
 4148SOL    HW213023   8.584   1.674   4.742 -0.1051 -0.2626  1.8576
 4149SOL     OW13024   5.662   1.054   1.957  0.4957 -0.1832 -0.0954
 4149SOL    HW113025   5.707   1.001   1.891  0.0618 -0.3224 -0.2845
 4149SOL    HW213026   5.666   1.144   1.922  3.8387  0.4881  1.5949
 4150SOL     OW13027   4.010   6.360   6.882 -0.4416  0.4254 -0.7001
 4150SOL    HW113028   4.039   6.315   6.961 -1.1896 -0.2065 -0.7653
 4150SOL    HW213029   4.079   6.343   6.818 -0.8248 -0.8861 -0.7989
 4151SOL     OW13030   2.799   8.332   4.374  0.2075  0.2319  0.5589
 4151SOL    HW113031   2.737   8.270   4.335 -0.6728  0.7005  1.1979
 4151SOL    HW213032   2.882   8.313   4.330 -0.1211 -1.1644  0.4970
 4152SOL     OW13033   1.899   5.091   5.358  0.1124  0.2764 -0.0962
 4152SOL    HW113034   1.966   5.033   5.394  0.5051  0.2679 -0.8125
 4152SOL    HW213035   1.942   5.176   5.353  0.5676 -0.0114 -1.8480
 4153SOL     OW13036   1.550   8.037   4.686  0.1540  0.2325  0.2642
 4153SOL    HW113037   1.511   7.971   4.627 -1.0173  0.9035  0.2450
 4153SOL    HW213038   1.525   8.008   4.774 -0.5739  0.7630  0.2415
 4154SOL     OW13039   4.981   1.760   2.902  0.1174 -0.3516 -0.0694
 4154SOL    HW113040   4.927   1.752   2.823  0.8445  1.9071 -0.8563
 4154SOL    HW213041   5.068   1.780   2.870  0.2633  1.4264  1.2914
 4155SOL     OW13042   3.847   4.262   8.454 -0.0986  0.3586 -0.1209
 4155SOL    HW113043   3.870   4.282   8.363  2.0202 -0.8046  0.1128
 4155SOL    HW213044   3.842   4.167   8.458 -0.5899  0.4117  0.9009
 4156SOL     OW13045   8.867   2.284   5.470 -0.0079  0.0861  0.4834
 4156SOL    HW113046   8.927   2.291   5.396  0.8919 -1.2340  1.0518
 4156SOL    HW213047   8.903   2.344   5.535 -0.3388  0.6350  0.1728
 4157SOL     OW13048   4.789   5.112   2.660 -0.0255  0.0218  0.1699
 4157SOL    HW113049   4.750   5.173   2.723 -2.1843 -0.0056 -1.0569
 4157SOL    HW213050   4.849   5.166   2.609  0.7445  0.3238  1.3574
 4158SOL     OW13051   6.843   0.308   6.149 -0.6671  0.0841 -0.1468
 4158SOL    HW113052   6.785   0.368   6.102 -0.5436  2.1583  2.1105
 4158SOL    HW213053   6.902   0.365   6.198 -0.1142 -1.9031  1.6578
 4159SOL     OW13054   8.941   7.499   6.708 -0.0469 -0.4180 -0.6035
 4159SOL    HW113055   8.967   7.407   6.695  0.0463 -0.4369 -0.3010
 4159SOL    HW213056   9.017   7.550   6.681  0.0125 -0.4425 -0.4832
 4160SOL     OW13057   7.757   6.889   3.089  0.6311  0.2864 -0.1600
 4160SOL    HW113058   7.804   6.900   3.172  1.1985  1.1016 -0.5768
 4160SOL    HW213059   7.721   6.976   3.070 -0.8193 -0.2577  0.0017
 4161SOL     OW13060   1.902   5.183   4.321 -0.3201  0.2587 -0.1719
 4161SOL    HW113061   1.895   5.253   4.256 -0.5310 -0.5792 -1.0650
 4161SOL    HW213062   1.915   5.229   4.404 -2.1942  1.4310 -0.4702
 4162SOL     OW13063   6.289   0.924   4.145 -0.4889 -0.1420  0.2357
 4162SOL    HW113064   6.269   0.950   4.235 -2.5652 -1.9647  0.4027
 4162SOL    HW213065   6.366   0.868   4.153  0.7068  1.4617  0.5309
 4163SOL     OW13066   9.240   0.061   1.799  0.0354 -0.5403  0.4827
 4163SOL    HW113067   9.288   0.129   1.751 -0.6598 -0.8370 -0.6553
 4163SOL    HW213068   9.152   0.063   1.762  0.0725 -2.2377  0.2234
 4164SOL     OW13069   2.310   9.745   8.077  0.3097  0.0762 -0.3222
 4164SOL    HW113070   2.316   9.839   8.093 -0.2753 -0.1490  1.4083
 4164SOL    HW213071   2.227   9.719   8.117  1.1353 -1.4235  0.5175
 4165SOL     OW13072   3.225   0.346   9.405  0.2093  0.2377 -0.3166
 4165SOL    HW113073   3.264   0.341   9.493 -0.2688 -0.5749 -0.1354
 4165SOL    HW213074   3.291   0.307   9.348 -0.7551 -2.3347  0.1610
 4166SOL     OW13075   6.181   3.043   3.922 -0.0220  0.3565  0.2694
 4166SOL    HW113076   6.100   2.998   3.899 -0.4214  0.8905  0.6169
 4166SOL    HW213077   6.203   3.094   3.845  0.4072 -0.3733 -0.1098
 4167SOL     OW13078   6.109   1.065   8.070  0.2596 -0.1513  0.0783
 4167SOL    HW113079   6.085   0.996   8.132 -0.6367  0.1765  0.1167
 4167SOL    HW213080   6.095   1.026   7.984 -1.0361  0.2179  0.0971
 4168SOL     OW13081   6.093   0.037   5.710 -0.3921 -0.1852  0.1938
 4168SOL    HW113082   6.049   0.110   5.754  0.3313  1.0813 -1.1123
 4168SOL    HW213083   6.041   0.022   5.631  0.1294 -0.3151 -0.1238
 4169SOL     OW13084   9.410   3.746   1.403 -0.1821  0.0026 -0.2060
 4169SOL    HW113085   9.436   3.659   1.372 -0.4599  0.0551 -0.5853
 4169SOL    HW213086   9.411   3.738   1.498 -0.8731 -0.6154 -0.2440
 4170SOL     OW13087   7.915   5.631   7.286 -0.1439  0.3305  0.1665
 4170SOL    HW113088   7.893   5.648   7.377  0.0978  0.2771  0.2357
 4170SOL    HW213089   7.955   5.544   7.286  2.5347  1.4722  0.4729
 4171SOL     OW13090   9.783   4.655   1.419  0.1979  0.2156  0.0413
 4171SOL    HW113091   9.865   4.662   1.370 -0.3353  0.7746 -0.8018
 4171SOL    HW213092   9.741   4.575   1.385  0.1417  0.2352  0.0648
 4172SOL     OW13093   5.527   9.459   8.828 -0.0020  0.0790  0.2947
 4172SOL    HW113094   5.540   9.459   8.733 -0.6323  0.0781  0.2036
 4172SOL    HW213095   5.594   9.518   8.861 -0.3755  0.8192 -0.2413
 4173SOL     OW13096   0.366   9.186   8.698  0.4452 -0.6520 -0.4316
 4173SOL    HW113097   0.292   9.244   8.680 -0.2495 -1.1908  0.5884
 4173SOL    HW213098   0.329   9.098   8.690  1.1875 -0.9425 -0.7424
 4174SOL     OW13099   5.933   0.402   2.472 -0.1342  0.3131 -0.2621
 4174SOL    HW113100   5.925   0.398   2.567 -0.5360  0.2192 -0.2987
 4174SOL    HW213101   5.895   0.487   2.448 -2.1049 -0.6119 -0.5417
 4175SOL     OW13102   9.663   8.386   3.854 -0.4917 -0.0060  0.4434
 4175SOL    HW113103   9.573   8.354   3.851 -0.9269  1.1672  0.4600
 4175SOL    HW213104   9.656   8.474   3.890  0.5804  0.3875 -0.2538
 4176SOL     OW13105   1.734   6.401   0.682  0.4418 -0.3429  0.7428
 4176SOL    HW113106   1.721   6.488   0.644 -0.8607  0.0196  1.9049
 4176SOL    HW213107   1.828   6.393   0.694  0.5722  0.9341  0.6595
 4177SOL     OW13108   8.586   1.900   3.255 -0.1516 -0.1254  0.8360
 4177SOL    HW113109   8.570   1.809   3.231 -0.3060 -0.6718  2.8203
 4177SOL    HW213110   8.506   1.927   3.300 -0.5017  1.3367 -0.5890
 4178SOL     OW13111   4.164   1.766   9.913  0.1743 -0.0994 -0.7854
 4178SOL    HW113112   4.237   1.744   9.970 -1.4069 -1.4271  0.8328
 4178SOL    HW213113   4.204   1.788   9.829  2.4057 -0.6133  0.0953
 4179SOL     OW13114   1.263   8.250   9.503  0.3079 -0.3104  0.3407
 4179SOL    HW113115   1.186   8.296   9.468 -0.7382  2.1209  5.0010
 4179SOL    HW213116   1.258   8.162   9.464 -1.2760  1.4326 -4.1100
 4180SOL     OW13117   6.172   7.715   6.503  0.0141 -0.3124 -0.1893
 4180SOL    HW113118   6.192   7.629   6.467  2.1780 -0.2990  0.7587
 4180SOL    HW213119   6.234   7.774   6.460 -1.2432  0.7413 -0.6143
 4181SOL     OW13120   0.690   6.741   8.121 -0.1379  0.6277 -0.0560
 4181SOL    HW113121   0.598   6.753   8.143 -0.2060  1.5728 -0.7387
 4181SOL    HW213122   0.698   6.779   8.033  0.8813  0.4957 -0.0338
 4182SOL     OW13123   9.028   4.374   3.739 -0.8358  0.2113  0.4181
 4182SOL    HW113124   9.115   4.353   3.704 -1.4936 -1.5683 -0.2635
 4182SOL    HW213125   9.040   4.371   3.834  0.1515  1.4311  0.3551
 4183SOL     OW13126   6.812   1.059   8.512 -0.2067  0.2349 -0.5931
 4183SOL    HW113127   6.872   1.071   8.585 -0.7764 -1.7587  0.2792
 4183SOL    HW213128   6.725   1.052   8.552 -0.4131 -1.9868 -1.2700
 4184SOL     OW13129   3.359   4.877   0.869 -0.0442  0.2358  0.1139
 4184SOL    HW113130   3.419   4.819   0.821 -1.0941 -2.3207  1.6675
 4184SOL    HW213131   3.276   4.830   0.870 -1.8200  3.1186 -0.9022
 4185SOL     OW13132   8.404   2.190   2.651 -0.6770 -0.1617  0.1192
 4185SOL    HW113133   8.466   2.227   2.714 -0.4136  1.1811 -0.8832
 4185SOL    HW213134   8.321   2.185   2.699  0.2510 -2.3979  1.6182
 4186SOL     OW13135   8.875   4.400   7.593 -0.1289  0.1380  0.2000
 4186SOL    HW113136   8.783   4.384   7.615 -0.3542  0.5931 -0.3607
 4186SOL    HW213137   8.890   4.348   7.514 -0.6442  1.9674 -1.1765
 4187SOL     OW13138   6.671   4.920   1.713  0.1652  0.0472  0.6422
 4187SOL    HW113139   6.747   4.864   1.701  0.4436  0.8027 -1.5056
 4187SOL    HW213140   6.708   5.005   1.739  0.2694  0.8412 -1.8210
 4188SOL     OW13141   6.389   5.637   9.681 -0.4363  0.1425  0.6814
 4188SOL    HW113142   6.413   5.549   9.711 -1.4896 -0.0522  0.9874
 4188SOL    HW213143   6.302   5.627   9.644 -0.1959  0.8932 -0.1122
 4189SOL     OW13144   4.239   6.254   6.757 -0.0452  0.0217 -0.1498
 4189SOL    HW113145   4.210   6.165   6.779  1.2171 -0.3982 -0.0770
 4189SOL    HW213146   4.277   6.245   6.669  0.3030  0.4368 -0.0424
 4190SOL     OW13147   1.324   9.337   2.739 -0.1967  0.1987 -0.1099
 4190SOL    HW113148   1.229   9.336   2.726 -0.2605 -0.8504  0.3171
 4190SOL    HW213149   1.342   9.424   2.775 -0.9051  0.6337 -0.7758
 4191SOL     OW13150   5.504   2.767   3.081 -0.0656  0.4649  0.1070
 4191SOL    HW113151   5.576   2.783   3.021 -0.1739  0.1908 -0.0997
 4191SOL    HW213152   5.482   2.853   3.116 -0.6500  0.7904 -0.9930
 4192SOL     OW13153   4.521   6.088   7.561  0.0164 -0.4585 -0.3324
 4192SOL    HW113154   4.536   6.183   7.561  0.4613 -0.5247  0.0825
 4192SOL    HW213155   4.571   6.056   7.636  0.4830 -1.1241 -0.9118
 4193SOL     OW13156   3.781   3.946   1.612 -0.6326  0.3267 -0.0190
 4193SOL    HW113157   3.829   3.866   1.637 -3.9188 -1.2179  2.1251
 4193SOL    HW213158   3.818   4.014   1.669 -0.4538 -0.6281  1.0609
 4194SOL     OW13159   0.382   9.503   3.839  0.2169 -0.1615 -0.1657
 4194SOL    HW113160   0.314   9.535   3.780 -1.5573 -3.2520 -0.0096
 4194SOL    HW213161   0.335   9.451   3.904  2.6319 -1.6869  0.5185
 4195SOL     OW13162   1.699   1.987   1.797  0.3263  0.3836  0.2632
 4195SOL    HW113163   1.606   1.977   1.773  0.8863 -1.3435 -1.4745
 4195SOL    HW213164   1.735   2.042   1.728  0.4093  2.1294  1.6203
 4196SOL     OW13165   6.758   8.363   7.152 -0.3957 -0.0436 -1.0534
 4196SOL    HW113166   6.784   8.306   7.224 -1.5278  1.9749  1.0803
 4196SOL    HW213167   6.826   8.350   7.086  2.6791  0.4453  1.7120
 4197SOL     OW13168   7.430   5.162   1.490  0.2051 -0.2990 -0.4977
 4197SOL    HW113169   7.418   5.178   1.584  0.0450  2.1286 -0.8756
 4197SOL    HW213170   7.341   5.160   1.455  0.2951 -0.3605 -0.7215
 4198SOL     OW13171   0.623   7.376   5.866  0.1057  1.1689  0.0416
 4198SOL    HW113172   0.649   7.286   5.882 -1.5283  0.8586  1.1269
 4198SOL    HW213173   0.695   7.413   5.814  0.6110 -0.8560 -0.7862
 4199SOL     OW13174   0.898   1.834   0.271  0.4642 -0.6736 -0.6926
 4199SOL    HW113175   0.829   1.827   0.205  0.2617 -0.3657 -0.5185
 4199SOL    HW213176   0.884   1.919   0.311 -0.1403 -1.3277  0.5468
 4200SOL     OW13177   7.401   7.731   9.453  0.4920 -0.1085  0.1537
 4200SOL    HW113178   7.392   7.752   9.546  1.6054  0.1886  0.2076
 4200SOL    HW213179   7.495   7.719   9.440  0.2980 -0.7045 -0.8195
 4201SOL     OW13180   6.975   6.476   4.296 -0.6029  0.4328  0.3630
 4201SOL    HW113181   7.048   6.519   4.251  0.6678 -1.3418  0.6053
 4201SOL    HW213182   6.974   6.515   4.383  0.6013 -0.0622  0.6168
 4202SOL     OW13183   1.822   3.779   9.110  0.0044 -0.2553  0.3243
 4202SOL    HW113184   1.835   3.743   9.022 -1.6995 -1.3897  0.4990
 4202SOL    HW213185   1.900   3.751   9.159  0.4320 -0.5719 -0.5141
 4203SOL     OW13186   4.158   8.504   2.978 -0.1155 -0.3204 -0.3379
 4203SOL    HW113187   4.245   8.473   2.954 -0.2343 -1.8689  1.0442
 4203SOL    HW213188   4.173   8.591   3.016  0.7415 -0.3008 -0.7073
 4204SOL     OW13189   2.003   6.127   5.155  0.0308  0.1584  0.3076
 4204SOL    HW113190   1.918   6.086   5.170 -0.3646  0.0294 -1.8995
 4204SOL    HW213191   2.029   6.097   5.068  0.4789  3.2222 -0.7576
 4205SOL     OW13192   1.704   3.454   5.522 -0.2201 -0.5856  0.4630
 4205SOL    HW113193   1.706   3.454   5.618  1.3629 -1.3705  0.4483
 4205SOL    HW213194   1.788   3.417   5.496 -0.7295 -0.6109 -1.2405
 4206SOL     OW13195   8.675   4.318   4.667 -0.3086 -0.0974 -0.2727
 4206SOL    HW113196   8.685   4.405   4.628 -0.1657  0.8727  1.7956
 4206SOL    HW213197   8.686   4.333   4.761 -1.3701 -2.1807  0.2332
 4207SOL     OW13198   7.628   7.311   9.139 -0.4459 -0.0172 -0.1224
 4207SOL    HW113199   7.638   7.393   9.186  1.9514 -0.0003 -0.5708
 4207SOL    HW213200   7.675   7.247   9.191  0.0199 -0.5411 -1.1533
 4208SOL     OW13201   5.861   8.957   3.150  0.1487 -0.4815 -0.9174
 4208SOL    HW113202   5.941   8.919   3.186 -0.5991 -0.8248  0.4260
 4208SOL    HW213203   5.829   9.017   3.217  0.0707  0.8056 -2.0677
 4209SOL     OW13204   4.388   4.921   6.062 -0.4945 -0.8156  0.0657
 4209SOL    HW113205   4.309   4.876   6.031 -0.4664 -3.0437  2.7455
 4209SOL    HW213206   4.457   4.892   6.002 -1.4417  0.3147 -1.6648
 4210SOL     OW13207   5.864   3.744   3.822  0.0068 -0.2507 -0.1015
 4210SOL    HW113208   5.960   3.748   3.822  0.0506 -0.5747  1.5474
 4210SOL    HW213209   5.837   3.806   3.754  1.3807 -0.0493 -0.4906
 4211SOL     OW13210   1.918   9.395   9.655 -0.0550  0.0457 -0.1742
 4211SOL    HW113211   2.005   9.406   9.693 -0.3042  1.6194  0.0007
 4211SOL    HW213212   1.882   9.484   9.651 -2.2684 -0.6894  1.2240
 4212SOL     OW13213   1.545   7.779   6.493  0.6074  0.1602  0.0295
 4212SOL    HW113214   1.464   7.771   6.544  0.3365 -1.0428 -0.5474
 4212SOL    HW213215   1.535   7.861   6.445  1.1083  1.6261  2.2865
 4213SOL     OW13216   7.879   9.489   0.708 -0.0377 -0.2981  0.1827
 4213SOL    HW113217   7.895   9.402   0.670  1.5909 -0.9220  2.1500
 4213SOL    HW213218   7.835   9.470   0.791  0.8133  0.7120  0.8809
 4214SOL     OW13219   6.361   5.829   4.377 -0.2282  0.2142 -0.2233
 4214SOL    HW113220   6.414   5.807   4.454 -0.2192  1.2012  0.0728
 4214SOL    HW213221   6.350   5.924   4.383 -0.8063  0.2059 -1.0757
 4215SOL     OW13222   2.583   1.350   0.730  0.0440 -0.0196 -0.4646
 4215SOL    HW113223   2.654   1.375   0.788  0.0954 -0.7428 -0.2031
 4215SOL    HW213224   2.507   1.397   0.763  0.0609 -0.4640  0.2308
 4216SOL     OW13225   8.873   9.982   1.448  0.1804 -0.6392 -0.1415
 4216SOL    HW113226   8.782   9.955   1.459 -0.0194  0.2966  0.6204
 4216SOL    HW213227   8.915   9.907   1.405 -0.4295 -2.0750  1.5976
 4217SOL     OW13228   2.513   2.525   9.797  0.1249 -0.3595 -0.1207
 4217SOL    HW113229   2.603   2.559   9.795  0.6749 -1.6232  1.1922
 4217SOL    HW213230   2.497   2.496   9.707  0.3044  1.5608 -0.8261
 4218SOL     OW13231   1.970   9.945   8.074 -0.3308  0.1638 -0.3989
 4218SOL    HW113232   1.939   9.856   8.061 -1.1666  0.2415  0.9203
 4218SOL    HW213233   1.898  10.001   8.045 -0.2692  0.3928 -0.1185
 4219SOL     OW13234   7.596   3.612   4.045  0.1182 -0.6392 -0.7469
 4219SOL    HW113235   7.550   3.694   4.065 -2.5364 -1.7540 -1.7238
 4219SOL    HW213236   7.588   3.603   3.950  0.4515 -1.9842 -0.6693
 4220SOL     OW13237   2.572   8.737   5.862 -0.5798 -0.1637  0.2293
 4220SOL    HW113238   2.589   8.665   5.924  2.1643  1.1093  1.1299
 4220SOL    HW213239   2.568   8.815   5.917 -0.5810  0.7171 -0.9866
 4221SOL     OW13240   3.870   2.333   1.337 -0.1410  0.3780  0.5717
 4221SOL    HW113241   3.949   2.348   1.390 -1.2495  2.2137  1.8067
 4221SOL    HW213242   3.829   2.257   1.378  1.0804 -0.7624 -0.2473
 4222SOL     OW13243   5.733   9.318   2.852 -0.2999  0.3050 -0.2035
 4222SOL    HW113244   5.643   9.344   2.869 -0.9141 -0.9350 -1.4289
 4222SOL    HW213245   5.766   9.383   2.789 -0.5492  0.3622 -0.2740
 4223SOL     OW13246   4.739   7.968   3.580  0.4342 -0.0759  0.3906
 4223SOL    HW113247   4.656   7.948   3.536  0.8914  0.3309 -0.6716
 4223SOL    HW213248   4.714   8.023   3.654 -0.3358 -0.7237  0.6304
 4224SOL     OW13249   2.955   1.700   9.180  0.1042 -0.1218 -0.0827
 4224SOL    HW113250   3.024   1.660   9.128 -0.5565 -0.0408 -1.0425
 4224SOL    HW213251   2.880   1.642   9.171  0.1060 -0.3372  1.1531
 4225SOL     OW13252   5.068   2.365   2.536 -0.0498 -0.7274  0.3432
 4225SOL    HW113253   5.000   2.431   2.522  0.7229 -0.0387 -0.2741
 4225SOL    HW213254   5.114   2.395   2.615 -0.3059 -1.0644  0.6241
 4226SOL     OW13255   4.558   0.266   9.796 -0.6556 -0.0205 -0.1379
 4226SOL    HW113256   4.603   0.348   9.813 -1.2817  0.6312 -1.4236
 4226SOL    HW213257   4.600   0.202   9.853 -0.0250  1.1500  0.7410
 4227SOL     OW13258   0.488   0.896   7.261  0.8866  0.5638 -0.0282
 4227SOL    HW113259   0.483   0.985   7.297  1.0895  0.2355  0.8379
 4227SOL    HW213260   0.438   0.842   7.323 -0.0552  0.2160 -1.0538
 4228SOL     OW13261   3.346   0.627   5.901  0.3959 -0.3573  0.2059
 4228SOL    HW113262   3.310   0.715   5.892 -1.0579 -0.5623  2.9531
 4228SOL    HW213263   3.416   0.636   5.966  2.5017 -0.7713 -1.8390
 4229SOL     OW13264   2.427   9.013   0.043 -0.1782  0.0250 -0.4881
 4229SOL    HW113265   2.352   8.964   0.008  1.0230 -1.1255 -1.5576
 4229SOL    HW213266   2.501   8.954   0.030  0.7304  0.6097  1.7376
 4230SOL     OW13267   9.952   7.605   0.766 -0.0429  0.3572  0.0003
 4230SOL    HW113268   9.958   7.513   0.744 -0.1186  0.4211 -0.2945
 4230SOL    HW213269   9.960   7.651   0.682 -0.0074  0.6185  0.1421
 4231SOL     OW13270   5.868   1.957   2.934  0.0178  0.7971  0.2263
 4231SOL    HW113271   5.841   1.996   2.851  0.3178 -0.6267 -0.5909
 4231SOL    HW213272   5.946   2.006   2.960 -1.5058  2.9470  1.0438
 4232SOL     OW13273   5.938   4.834   5.178 -0.1047  0.4510 -0.2240
 4232SOL    HW113274   5.948   4.822   5.084  0.3880 -3.2715  0.1506
 4232SOL    HW213275   5.852   4.798   5.198 -0.2059  1.2006  0.7649
 4233SOL     OW13276   8.830   4.758   8.881  0.2062 -0.0973 -0.1918
 4233SOL    HW113277   8.749   4.783   8.835  0.0673  1.4101  0.7968
 4233SOL    HW213278   8.895   4.822   8.851  0.2978  0.4573  1.1434
 4234SOL     OW13279   8.248   5.854   1.823  0.3594 -0.0046  0.3944
 4234SOL    HW113280   8.213   5.888   1.740  0.4227 -0.0921  0.3319
 4234SOL    HW213281   8.212   5.766   1.830  1.8829 -0.7363 -0.4972
 4235SOL     OW13282   7.109   9.020   5.794  0.0650  0.1940 -0.2529
 4235SOL    HW113283   7.049   9.050   5.863  0.2202 -1.8901  0.9140
 4235SOL    HW213284   7.067   9.045   5.712 -1.3836  0.6011  0.5791
 4236SOL     OW13285   6.527   7.354   3.913  0.4012 -0.3372  0.0693
 4236SOL    HW113286   6.514   7.420   3.981 -2.9263 -0.2033 -0.5115
 4236SOL    HW213287   6.473   7.280   3.941  0.2280 -0.9006 -1.6255
 4237SOL     OW13288   8.840   8.086   1.100 -0.3804  0.0587  0.2395
 4237SOL    HW113289   8.902   8.055   1.166 -0.0300  1.2031  0.4709
 4237SOL    HW213290   8.760   8.037   1.118  0.1869 -0.8025  0.4943
 4238SOL     OW13291   5.141   8.497   3.095 -0.4790  0.2254  0.1988
 4238SOL    HW113292   5.183   8.532   3.016 -1.5845 -0.7805 -0.8628
 4238SOL    HW213293   5.157   8.403   3.091 -0.6223  0.1546  1.1396
 4239SOL     OW13294   5.327   7.982   7.677  0.0625 -0.1217  0.0881
 4239SOL    HW113295   5.421   7.967   7.689  0.4531  1.5359 -0.5674
 4239SOL    HW213296   5.315   7.982   7.582  0.0210  2.7367  0.0038
 4240SOL     OW13297   2.634   4.898   9.681  0.1407 -0.4764  0.1563
 4240SOL    HW113298   2.667   4.842   9.611  1.9871 -0.4842  0.9988
 4240SOL    HW213299   2.621   4.983   9.639 -1.9064 -1.2612 -0.9311
 4241SOL     OW13300   0.129   0.683   4.057  0.1584  0.3203  0.2295
 4241SOL    HW113301   0.133   0.588   4.068 -1.5750  0.3673  1.5584
 4241SOL    HW213302   0.050   0.710   4.103  0.1041  2.3155 -0.9143
 4242SOL     OW13303   7.420   5.778   6.546 -0.5345 -0.1145 -0.5167
 4242SOL    HW113304   7.349   5.775   6.482 -0.9998 -0.0506 -0.0112
 4242SOL    HW213305   7.415   5.694   6.591  0.9548 -0.9272 -1.7784
 4243SOL     OW13306   8.502   4.054   1.106  0.3979 -0.2972 -0.0164
 4243SOL    HW113307   8.427   4.111   1.092 -0.0983 -0.9221  0.0859
 4243SOL    HW213308   8.484   3.975   1.055  0.4784 -0.8963  0.8468
 4244SOL     OW13309   0.421   5.581   9.425  0.1587  0.3415 -0.0346
 4244SOL    HW113310   0.482   5.548   9.491 -0.1548  0.3093  0.2426
 4244SOL    HW213311   0.359   5.635   9.474 -0.2074  0.1367 -0.2657
 4245SOL     OW13312   6.023   9.921   2.458 -0.6975  0.8633 -0.1119
 4245SOL    HW113313   6.002   9.885   2.544 -0.2944  0.2545 -0.2604
 4245SOL    HW213314   6.086   9.858   2.420 -1.1452  0.9294 -0.9940
 4246SOL     OW13315   7.091   0.708   1.573 -0.2615  0.1262  0.3631
 4246SOL    HW113316   7.020   0.678   1.629 -0.3691 -0.2620  0.0192
 4246SOL    HW213317   7.072   0.801   1.558  0.5423  0.6073  2.1270
 4247SOL     OW13318   0.713   9.508   6.235  0.4099 -0.6238 -0.2468
 4247SOL    HW113319   0.794   9.466   6.204  0.5762 -1.2207  0.9452
 4247SOL    HW213320   0.691   9.461   6.315 -0.0427  0.8485  0.5114
 4248SOL     OW13321   3.276   3.788   0.767 -0.0895  0.1174 -0.0996
 4248SOL    HW113322   3.194   3.748   0.797  0.4992 -0.0111  1.4255
 4248SOL    HW213323   3.287   3.865   0.823  0.2024  0.8578 -1.1563
 4249SOL     OW13324   6.785   8.029   7.555 -0.2400 -0.5534 -0.6199
 4249SOL    HW113325   6.790   7.966   7.483 -1.8270 -2.1609  0.5738
 4249SOL    HW213326   6.705   8.004   7.602  0.7841  0.3885  1.7296
 4250SOL     OW13327   1.779   0.132   2.832 -0.1494 -0.1488  0.1142
 4250SOL    HW113328   1.864   0.174   2.817  0.9033 -2.3430 -0.3739
 4250SOL    HW213329   1.796   0.064   2.896 -1.0368 -2.0247 -1.5302
 4251SOL     OW13330   0.509   6.051   2.678 -0.2479 -0.4772  0.4342
 4251SOL    HW113331   0.529   5.960   2.702  1.0183  0.0637  1.6110
 4251SOL    HW213332   0.538   6.060   2.588  3.1041 -0.3426  1.3857
 4252SOL     OW13333   6.094   7.544   0.944  0.2776 -0.0544 -0.8419
 4252SOL    HW113334   6.181   7.585   0.944  1.0036 -1.5134  0.2101
 4252SOL    HW213335   6.039   7.605   0.895  1.4420  1.8454  0.0886
 4253SOL     OW13336   6.232   1.022   7.456 -0.5474 -0.2455 -0.0216
 4253SOL    HW113337   6.285   1.059   7.385  1.0471 -0.3665  1.0640
 4253SOL    HW213338   6.266   0.933   7.468 -1.4138 -0.5478  0.3188
 4254SOL     OW13339   1.256   0.360   0.726  0.3198  0.3095  0.0191
 4254SOL    HW113340   1.332   0.418   0.724  3.3089 -3.1772 -3.4045
 4254SOL    HW213341   1.268   0.308   0.806  1.5337 -0.1425 -0.4409
 4255SOL     OW13342   8.661   9.698   7.514 -0.1169 -0.0177  0.2627
 4255SOL    HW113343   8.702   9.685   7.599  0.5234  1.2084  0.1717
 4255SOL    HW213344   8.613   9.617   7.497  0.1098 -0.4478  1.5805
 4256SOL     OW13345   5.183   8.648   2.625 -0.2590  0.4981 -0.5227
 4256SOL    HW113346   5.224   8.585   2.567  0.5454  0.3072  0.2351
 4256SOL    HW213347   5.148   8.715   2.567 -1.5101 -0.8373 -1.3809
 4257SOL     OW13348   7.446   7.783   5.780 -0.4468  0.1836  0.0054
 4257SOL    HW113349   7.489   7.709   5.737 -1.9256 -0.4899 -0.3909
 4257SOL    HW213350   7.484   7.784   5.868  0.3657 -0.3669 -0.3216
 4258SOL     OW13351   1.793   8.769   5.271  0.1339 -0.5939 -0.2151
 4258SOL    HW113352   1.808   8.811   5.355 -0.0003  0.6293 -0.7812
 4258SOL    HW213353   1.706   8.730   5.278 -0.8607  1.4743 -0.5385
 4259SOL     OW13354   2.511   6.621   7.408 -0.2055 -0.2654  0.0464
 4259SOL    HW113355   2.579   6.628   7.474 -1.5139 -0.5215  1.4714
 4259SOL    HW213356   2.496   6.711   7.379  0.1069 -0.1000  0.3935
 4260SOL     OW13357   9.538   0.533   6.607 -0.1000  0.1127  0.7625
 4260SOL    HW113358   9.623   0.507   6.642 -0.4171 -0.9166  0.7931
 4260SOL    HW213359   9.553   0.547   6.514 -0.0077 -0.6282  0.6581
 4261SOL     OW13360   9.585   6.748   5.479  0.4570  0.0907  0.1400
 4261SOL    HW113361   9.498   6.784   5.498  0.5029  1.8214 -2.3533
 4261SOL    HW213362   9.606   6.693   5.554 -2.9529 -0.7059  0.6778
 4262SOL     OW13363   5.931   6.150   5.369  0.3597 -0.2691 -0.1782
 4262SOL    HW113364   5.954   6.206   5.443 -0.6246  0.4134 -0.3740
 4262SOL    HW213365   6.001   6.084   5.367  0.2776 -0.4691  1.5125
 4263SOL     OW13366   0.906   8.739   4.857  0.0060  0.7079  0.0675
 4263SOL    HW113367   0.826   8.788   4.839 -0.3688 -0.3462 -1.3617
 4263SOL    HW213368   0.880   8.647   4.848  1.6799  0.3533 -2.0966
 4264SOL     OW13369   1.597   7.802   2.609  0.2544 -0.5507 -0.4923
 4264SOL    HW113370   1.547   7.851   2.544 -0.0110  0.1087  0.2001
 4264SOL    HW213371   1.575   7.710   2.592 -1.0008 -0.2916 -0.3579
 4265SOL     OW13372   1.337   3.672   0.333 -0.0228 -0.4339 -0.0410
 4265SOL    HW113373   1.370   3.656   0.245 -2.7458 -2.5402 -0.8147
 4265SOL    HW213374   1.415   3.667   0.389  1.4355 -1.8564 -2.0447
 4266SOL     OW13375   0.950   6.949   6.564  0.3771  0.0173  0.2753
 4266SOL    HW113376   0.941   6.981   6.654  0.9703 -1.7019  0.9906
 4266SOL    HW213377   1.033   6.901   6.563  0.2055 -0.3066 -1.0905
 4267SOL     OW13378   0.048   4.548   8.816 -0.0715 -0.3726 -0.2652
 4267SOL    HW113379   0.042   4.566   8.909 -0.3646  0.8144 -0.5056
 4267SOL    HW213380   0.070   4.455   8.811 -0.5340 -0.5610  0.9693
 4268SOL     OW13381   8.359   7.297   4.686 -0.1035 -0.2853 -0.0011
 4268SOL    HW113382   8.330   7.218   4.732 -2.2096  0.0376 -0.6684
 4268SOL    HW213383   8.439   7.271   4.641 -0.4844 -1.8992  0.1959
 4269SOL     OW13384   5.055   7.913   0.604  0.0483  0.3874  0.1435
 4269SOL    HW113385   5.091   7.824   0.606 -1.0763 -0.1197  3.0591
 4269SOL    HW213386   4.965   7.902   0.634  0.4002  2.7028  2.3302
 4270SOL     OW13387   5.142   2.151   0.688  0.0232 -0.3477  0.5892
 4270SOL    HW113388   5.131   2.091   0.762 -1.6940 -1.0368 -0.1748
 4270SOL    HW213389   5.073   2.126   0.626  0.6268  1.0286 -0.7031
 4271SOL     OW13390   4.736   9.289   6.246 -0.6476 -0.4537 -0.3620
 4271SOL    HW113391   4.809   9.318   6.192  0.1856 -0.4582  0.7345
 4271SOL    HW213392   4.763   9.203   6.279 -1.0934 -0.4012  0.1567
 4272SOL     OW13393   6.271   3.678   7.072 -0.1742  0.3030 -0.6118
 4272SOL    HW113394   6.331   3.745   7.106 -2.2759  1.3774  1.2941
 4272SOL    HW213395   6.307   3.595   7.104  0.6128  0.8668 -0.0015
 4273SOL     OW13396   1.515   4.640   5.986  0.1962 -0.0547  0.5047
 4273SOL    HW113397   1.431   4.633   6.031 -0.3620  1.0581 -0.3176
 4273SOL    HW213398   1.517   4.563   5.929 -1.1584  0.8286 -0.8447
 4274SOL     OW13399   6.718   4.695   1.981 -0.0346  0.3195 -0.2386
 4274SOL    HW113400   6.768   4.752   1.922 -0.1782 -0.0730 -0.7427
 4274SOL    HW213401   6.695   4.619   1.928 -0.6256  0.2030  0.1731
 4275SOL     OW13402   6.604   0.413   2.210  0.0182  0.9197 -0.4123
 4275SOL    HW113403   6.623   0.319   2.201 -4.0033 -0.1917  0.8510
 4275SOL    HW213404   6.690   0.452   2.228  1.7930 -2.5567 -0.2879
 4276SOL     OW13405   7.520   7.666   6.293 -0.0185 -0.5347  0.0462
 4276SOL    HW113406   7.456   7.665   6.365  1.5045  0.6355  1.4890
 4276SOL    HW213407   7.541   7.573   6.279 -1.4783 -0.8912  0.0006
 4277SOL     OW13408   2.109   3.202   1.517  0.0409  0.2860 -0.1262
 4277SOL    HW113409   2.081   3.140   1.584  0.2659 -0.3979 -0.6549
 4277SOL    HW213410   2.081   3.287   1.550  0.6070  0.0209  1.0726
 4278SOL     OW13411   1.765   2.571   7.088 -0.4168 -0.1617  0.0645
 4278SOL    HW113412   1.790   2.614   7.170 -0.4026 -0.2206  0.0904
 4278SOL    HW213413   1.734   2.643   7.033 -2.5223 -0.3613  0.8965
 4279SOL     OW13414   3.891   3.350   8.071  0.0702  0.3459 -0.0561
 4279SOL    HW113415   3.924   3.274   8.022 -0.5892  0.9463 -1.5080
 4279SOL    HW213416   3.910   3.330   8.162  1.4779 -0.7794 -0.5603
 4280SOL     OW13417   8.885   2.591   3.667 -0.4193 -0.3110 -0.1117
 4280SOL    HW113418   8.814   2.556   3.722 -0.7617 -0.5568 -0.7022
 4280SOL    HW213419   8.962   2.543   3.694  0.0074  1.3889  2.0235
 4281SOL     OW13420   4.704   3.649   1.255 -0.1332  0.2235 -0.4279
 4281SOL    HW113421   4.656   3.703   1.192  0.7109 -0.3337 -1.5770
 4281SOL    HW213422   4.748   3.712   1.312  1.5452  0.8239 -2.2790
 4282SOL     OW13423   8.060   4.521   2.747 -0.1602  1.1844 -0.2601
 4282SOL    HW113424   8.109   4.442   2.770  0.3414  1.0025 -1.8937
 4282SOL    HW213425   8.055   4.571   2.829 -0.2271 -0.3883  0.7290
 4283SOL     OW13426   7.241   0.324   4.303  0.0198  0.6748  0.2965
 4283SOL    HW113427   7.178   0.343   4.372 -1.1855 -0.5177 -0.4195
 4283SOL    HW213428   7.187   0.300   4.227  1.3132  1.1256 -0.8097
 4284SOL     OW13429   4.303   0.506   3.329 -0.0369  0.3650 -0.7991
 4284SOL    HW113430   4.214   0.524   3.358 -0.3923  0.6767 -2.0582
 4284SOL    HW213431   4.346   0.591   3.329  0.4240  0.1512  0.2774
 4285SOL     OW13432   0.677   7.863   4.865 -0.1906  0.1533  0.5838
 4285SOL    HW113433   0.767   7.839   4.887 -0.1537  0.4390  0.7390
 4285SOL    HW213434   0.670   7.955   4.886  0.5551  1.1264 -2.7517
 4286SOL     OW13435   5.114   3.188   6.498 -0.7149  0.3762  0.1940
 4286SOL    HW113436   5.166   3.129   6.552  0.7209  0.8831 -0.6018
 4286SOL    HW213437   5.025   3.179   6.533 -0.2134 -0.9031  1.2371
 4287SOL     OW13438   4.376   5.652   0.581  0.6250  0.5208 -0.4247
 4287SOL    HW113439   4.328   5.688   0.506 -0.7333 -1.3106 -0.4848
 4287SOL    HW213440   4.406   5.566   0.552  0.8107  0.1396  0.8473
 4288SOL     OW13441   2.244   2.352   8.800 -0.0546 -0.1885  0.3135
 4288SOL    HW113442   2.325   2.380   8.843  0.6662  0.3111 -1.3086
 4288SOL    HW213443   2.223   2.268   8.841 -0.1790  0.8877  2.6048
 4289SOL     OW13444   9.328   3.800   9.204 -0.2419  0.0417  0.4061
 4289SOL    HW113445   9.351   3.773   9.115  0.2760 -0.3200  0.6442
 4289SOL    HW213446   9.285   3.885   9.193  0.5203  0.3698 -0.1325
 4290SOL     OW13447   2.821   2.297   5.579 -0.7021 -0.0413  0.1993
 4290SOL    HW113448   2.751   2.348   5.537 -0.0497  1.0502  0.3870
 4290SOL    HW213449   2.843   2.230   5.514 -2.2713 -0.7617  0.3556
 4291SOL     OW13450   4.679   4.029   4.635 -0.9731  0.1996  0.3216
 4291SOL    HW113451   4.729   3.978   4.572  1.6826  1.7144  1.0460
 4291SOL    HW213452   4.669   3.971   4.711  0.5183  0.1367  0.4952
 4292SOL     OW13453   9.225   0.322   4.130 -0.7241 -0.1652 -0.1187
 4292SOL    HW113454   9.216   0.413   4.156  0.4167 -0.2197  0.5635
 4292SOL    HW213455   9.155   0.307   4.068 -2.5570  0.4433  1.6939
 4293SOL     OW13456   4.710   4.897   5.543  0.1075  0.1756  0.1687
 4293SOL    HW113457   4.770   4.955   5.495  0.2113  0.1586  0.2757
 4293SOL    HW213458   4.687   4.829   5.480 -1.4507  1.3115 -0.5345
 4294SOL     OW13459   5.404   1.305   5.359 -0.1174  0.0342  0.1415
 4294SOL    HW113460   5.423   1.231   5.302  0.5526  0.7700 -0.6245
 4294SOL    HW213461   5.337   1.273   5.419 -1.1159 -0.6417 -1.2959
 4295SOL     OW13462   7.032   9.518   2.452 -0.5651 -0.8466 -0.1542
 4295SOL    HW113463   6.989   9.471   2.523 -0.8775  0.3888  0.4970
 4295SOL    HW213464   7.106   9.561   2.493 -0.5477 -0.3974 -0.6491
 4296SOL     OW13465   6.184   2.881   8.079  0.0921 -0.4359  0.6777
 4296SOL    HW113466   6.089   2.884   8.085 -0.0270  2.0680 -0.8689
 4296SOL    HW213467   6.215   2.932   8.154  0.2365 -1.3442  1.2444
 4297SOL     OW13468   6.518   2.405   7.648 -0.2167  0.5993 -0.0986
 4297SOL    HW113469   6.590   2.456   7.611  0.7186  1.0585  2.2005
 4297SOL    HW213470   6.561   2.332   7.692 -1.2951 -0.0360 -0.0760
 4298SOL     OW13471   7.775   9.105   1.442  0.0174 -0.2874  0.1139
 4298SOL    HW113472   7.694   9.075   1.482 -0.4412  0.6122 -0.1251
 4298SOL    HW213473   7.821   9.151   1.512 -0.6167  0.9644 -0.2658
 4299SOL     OW13474   1.096   3.151   1.767  0.2957  0.3804 -0.5971
 4299SOL    HW113475   1.129   3.183   1.851  0.5029 -0.2442 -0.4368
 4299SOL    HW213476   1.105   3.056   1.772 -1.1633  0.2204 -0.7097
 4300SOL     OW13477   0.954   6.591   7.834 -0.1849  0.1974  0.1331
 4300SOL    HW113478   0.883   6.554   7.782 -0.4976  0.6398  0.2338
 4300SOL    HW213479   1.029   6.536   7.815 -0.5786 -0.3352  0.0936
 4301SOL     OW13480   2.198   1.129   4.284  0.0038 -0.8372 -0.8390
 4301SOL    HW113481   2.228   1.075   4.211 -0.6395 -1.7840 -0.4087
 4301SOL    HW213482   2.214   1.076   4.362 -0.5657 -0.3760 -0.4000
 4302SOL     OW13483   6.295   1.794   6.428  0.2080 -0.2934  0.1467
 4302SOL    HW113484   6.302   1.886   6.452 -1.0268 -0.3918  1.0285
 4302SOL    HW213485   6.361   1.749   6.481  2.1163  0.2465 -1.6357
 4303SOL     OW13486   4.724   7.128   2.580  0.3434  0.6526 -0.3719
 4303SOL    HW113487   4.666   7.075   2.524 -2.1187  1.4530  1.2587
 4303SOL    HW213488   4.783   7.064   2.620  0.6077 -0.2189 -2.0706
 4304SOL     OW13489   4.098   4.673   2.498  0.0267 -0.0011 -0.6193
 4304SOL    HW113490   4.008   4.704   2.512 -0.6025 -1.1948 -1.7913
 4304SOL    HW213491   4.141   4.745   2.450 -0.7019  0.0597 -1.2044
 4305SOL     OW13492   6.121   1.142   0.215 -0.1039 -0.0886  0.3921
 4305SOL    HW113493   6.087   1.224   0.178  0.5918 -0.1966 -0.5408
 4305SOL    HW213494   6.056   1.077   0.190  0.4971 -0.2131 -0.9728
 4306SOL     OW13495   0.937   8.697   0.076  0.2808 -0.4278 -0.0034
 4306SOL    HW113496   1.019   8.717   0.123 -0.6161 -1.5600  2.2011
 4306SOL    HW213497   0.870   8.747   0.124 -0.3113  0.8592 -2.0653
 4307SOL     OW13498   4.602   0.610   2.885 -0.5589  0.8754  0.2409
 4307SOL    HW113499   4.607   0.534   2.944  0.4816  0.5148 -0.2889
 4307SOL    HW213500   4.533   0.587   2.823 -0.1164  0.2662 -0.0333
 4308SOL     OW13501   0.961   2.568   3.623  0.0151 -0.3866  0.4524
 4308SOL    HW113502   1.035   2.603   3.672 -0.2218  0.8693 -0.0473
 4308SOL    HW213503   0.887   2.575   3.683  0.1280 -0.8418  0.6500
 4309SOL     OW13504   0.299   7.795   4.037 -0.0211 -0.4485 -0.6128
 4309SOL    HW113505   0.219   7.834   4.073 -0.3408 -1.2810 -0.3870
 4309SOL    HW213506   0.279   7.781   3.945  0.3365  0.5184 -0.8450
 4310SOL     OW13507   7.906   7.902   8.781 -0.1019  0.2257 -0.5890
 4310SOL    HW113508   7.816   7.925   8.759  0.2582  1.8561 -0.4728
 4310SOL    HW213509   7.900   7.864   8.869 -0.8847 -1.5045 -1.3353
 4311SOL     OW13510   4.058   5.351   2.861 -0.0536 -0.1207  0.6735
 4311SOL    HW113511   4.070   5.445   2.850 -1.0219 -0.0066  0.5404
 4311SOL    HW213512   3.995   5.342   2.933  1.0972 -0.7145  1.6598
 4312SOL     OW13513   1.519   8.982   1.606  0.1024  0.5159  0.1853
 4312SOL    HW113514   1.492   9.021   1.523 -1.3495 -0.5365  0.1378
 4312SOL    HW213515   1.457   9.016   1.670 -0.0590 -0.2899  0.4651
 4313SOL     OW13516   4.276   0.348   0.393 -0.1667  0.4463  0.0703
 4313SOL    HW113517   4.372   0.346   0.387 -0.1656  0.1162  0.1571
 4313SOL    HW213518   4.246   0.349   0.302 -0.0840  0.4040  0.0423
 4314SOL     OW13519   7.516   7.657   0.436  0.5137  0.2329  0.0864
 4314SOL    HW113520   7.512   7.750   0.457  1.6727  0.7930 -1.9521
 4314SOL    HW213521   7.565   7.618   0.508  0.3971  1.2494  0.7379
 4315SOL     OW13522   2.846   9.502   2.795 -0.0187  0.0244  0.3160
 4315SOL    HW113523   2.884   9.427   2.750  0.4778  0.3812  0.1331
 4315SOL    HW213524   2.842   9.571   2.729  2.9327  1.3282  1.3206
 4316SOL     OW13525   9.431   9.926   4.477  0.0435  0.5929  0.1980
 4316SOL    HW113526   9.484   9.850   4.457  0.7779  1.4361 -1.2112
 4316SOL    HW213527   9.391   9.951   4.394  0.0284  1.8919  0.5596
 4317SOL     OW13528   0.222   0.727   4.607 -0.7761 -0.5053  0.3240
 4317SOL    HW113529   0.316   0.725   4.590 -0.7876 -0.8909  0.3168
 4317SOL    HW213530   0.215   0.723   4.703 -0.7361  0.9976  0.4167
 4318SOL     OW13531   6.781   8.601   5.407  0.0969  0.0371  0.7319
 4318SOL    HW113532   6.865   8.560   5.383 -1.4335 -1.9832 -1.7174
 4318SOL    HW213533   6.738   8.537   5.463 -1.2670 -0.6752 -1.0437
 4319SOL     OW13534   0.422   4.585   3.182  0.3950  0.2805 -0.0832
 4319SOL    HW113535   0.514   4.606   3.202  0.4813 -0.1388 -0.0097
 4319SOL    HW213536   0.397   4.646   3.113  0.7469  0.3635 -0.1398
 4320SOL     OW13537   2.356   0.909   1.087 -0.0169 -0.4701 -0.3816
 4320SOL    HW113538   2.403   0.992   1.077  1.1725 -0.9917  0.5581
 4320SOL    HW213539   2.329   0.909   1.179  3.4964 -2.7761  0.8780
 4321SOL     OW13540   7.638   9.472   3.342  0.0920 -0.4052 -0.2408
 4321SOL    HW113541   7.690   9.458   3.422  0.7747  1.2062 -0.3709
 4321SOL    HW213542   7.559   9.516   3.373  0.0641 -0.3523 -0.3893
 4322SOL     OW13543   8.702   8.657   5.289 -0.7943 -0.3717 -0.3341
 4322SOL    HW113544   8.737   8.644   5.201 -0.5752  0.5763 -0.3942
 4322SOL    HW213545   8.683   8.569   5.321 -2.4632 -0.6556 -1.9686
 4323SOL     OW13546   8.341   0.070   3.695  0.2761  0.3013 -0.0294
 4323SOL    HW113547   8.282   0.098   3.765  0.4083 -1.3351  0.7929
 4323SOL    HW213548   8.359   0.149   3.645 -0.3660  1.3821  1.3891
 4324SOL     OW13549   8.549   4.237   9.672  0.2746  0.2413  0.3450
 4324SOL    HW113550   8.536   4.145   9.697  0.8032  0.1214  0.2018
 4324SOL    HW213551   8.516   4.242   9.582 -4.2326  1.2979  1.7900
 4325SOL     OW13552   9.633   5.722   2.797  0.0158 -0.5078 -0.3969
 4325SOL    HW113553   9.642   5.812   2.766 -1.2422  0.2779  1.3246
 4325SOL    HW213554   9.558   5.687   2.748  0.5638 -0.6785 -1.1344
 4326SOL     OW13555   5.935   6.523   2.723  0.3967 -0.4100 -0.1174
 4326SOL    HW113556   5.910   6.539   2.814  2.6283  0.1837  0.4354
 4326SOL    HW213557   5.881   6.583   2.672  0.3742  0.5176  0.9746
 4327SOL     OW13558   5.426   5.065   3.592 -0.2077  0.1737  0.2076
 4327SOL    HW113559   5.445   5.134   3.528  0.0239  0.6365  0.7673
 4327SOL    HW213560   5.343   5.091   3.632 -3.0373 -2.5711 -3.2465
 4328SOL     OW13561   2.696   9.937   9.404 -0.3632 -0.4419 -0.1479
 4328SOL    HW113562   2.683  10.006   9.470 -0.4713  1.3266 -1.9231
 4328SOL    HW213563   2.790   9.917   9.410  0.0999  1.3153 -0.9115
 4329SOL     OW13564   6.641   7.632   2.639  0.1742 -0.1163  0.0391
 4329SOL    HW113565   6.685   7.712   2.669  0.1479  0.0432 -0.3377
 4329SOL    HW213566   6.651   7.570   2.712  0.5372  0.1005  0.1787
 4330SOL     OW13567   7.140   4.543   4.239  0.4556 -0.3299 -0.4152
 4330SOL    HW113568   7.217   4.511   4.284  0.4986  1.2806  0.7292
 4330SOL    HW213569   7.172   4.612   4.181  0.0522 -0.6785 -1.0809
 4331SOL     OW13570   2.749   1.735   1.417  0.1581 -0.2837  0.5225
 4331SOL    HW113571   2.819   1.767   1.473 -0.8882  0.5339  1.4254
 4331SOL    HW213572   2.793   1.684   1.349  1.5176 -0.6657  1.6533
 4332SOL     OW13573   3.838   1.585   1.134 -0.1987 -0.3590  0.5097
 4332SOL    HW113574   3.798   1.561   1.050 -0.3061 -1.3736  0.8370
 4332SOL    HW213575   3.894   1.510   1.155  0.2837  0.1536  1.0595
 4333SOL     OW13576   0.877   8.978   7.751  0.1615 -0.5455 -0.0673
 4333SOL    HW113577   0.887   9.063   7.795 -0.2473 -0.5284  0.0017
 4333SOL    HW213578   0.877   8.999   7.658  2.7221 -0.7561 -0.1831
 4334SOL     OW13579   1.602   9.496   3.918  0.4878  0.5966  0.2076
 4334SOL    HW113580   1.652   9.578   3.922  2.3554 -0.3436 -1.9408
 4334SOL    HW213581   1.512   9.524   3.903  0.7439  2.2839  1.4901
 4335SOL     OW13582   2.352   0.997   8.611  0.0118 -0.3336 -0.3647
 4335SOL    HW113583   2.446   0.983   8.604 -0.0683 -0.4755 -1.3545
 4335SOL    HW213584   2.329   0.962   8.697  0.8699 -0.2296 -0.0838
 4336SOL     OW13585   0.714   3.451   4.050 -0.5428  0.6246 -0.2736
 4336SOL    HW113586   0.743   3.537   4.019  0.3401  0.5006  0.1583
 4336SOL    HW213587   0.769   3.389   4.002 -0.7269  0.3339 -0.1106
 4337SOL     OW13588   1.673   0.922   5.529  0.6081  0.0806  0.7446
 4337SOL    HW113589   1.734   0.948   5.460  1.3626 -1.4491  0.7960
 4337SOL    HW213590   1.591   0.903   5.483  1.0137 -0.6209  0.3051
 4338SOL     OW13591   9.683   7.828   9.609  0.2875  0.3256 -0.1118
 4338SOL    HW113592   9.659   7.744   9.569  2.1564 -0.0122 -0.6175
 4338SOL    HW213593   9.671   7.814   9.703 -0.0881 -0.2707 -0.2427
 4339SOL     OW13594   0.138   5.533   1.860 -0.0588  0.1999  0.9025
 4339SOL    HW113595   0.095   5.472   1.800 -1.5930  1.8601  0.1947
 4339SOL    HW213596   0.200   5.480   1.909 -1.3622 -1.9130  0.3759
 4340SOL     OW13597   8.698   6.996   3.948  0.0077 -0.1598 -0.4289
 4340SOL    HW113598   8.674   7.028   4.035 -0.5522 -1.0923 -0.2252
 4340SOL    HW213599   8.791   7.018   3.939  0.3293 -0.8953  0.8104
 4341SOL     OW13600   5.739   6.722   7.064  0.0250 -0.0978  0.0635
 4341SOL    HW113601   5.746   6.753   6.974 -2.8953  1.2821  0.1994
 4341SOL    HW213602   5.720   6.800   7.115  0.8859 -0.9663  1.8024
 4342SOL     OW13603   3.824   3.914   1.340  0.7780 -0.1714 -0.3632
 4342SOL    HW113604   3.912   3.946   1.322  1.5529 -2.4562 -1.0617
 4342SOL    HW213605   3.805   3.946   1.428  2.7343 -0.4449  0.2210
 4343SOL     OW13606   3.860   0.574   2.687  0.0872 -0.9355  0.2998
 4343SOL    HW113607   3.932   0.511   2.679 -0.1791 -1.1721 -0.3202
 4343SOL    HW213608   3.839   0.598   2.597  2.7280  3.0183  0.4802
 4344SOL     OW13609   0.765   2.002   2.112  0.4779 -0.3003  0.2522
 4344SOL    HW113610   0.775   1.907   2.111  1.4855 -0.2114  0.8729
 4344SOL    HW213611   0.824   2.032   2.181 -0.0177  0.7568  0.2347
 4345SOL     OW13612   2.551   7.416   0.192 -0.4569  0.4592 -0.6625
 4345SOL    HW113613   2.604   7.358   0.247  0.8322  1.4643 -0.8054
 4345SOL    HW213614   2.485   7.452   0.251 -0.6545 -0.3890 -0.3528
 4346SOL     OW13615   2.712   1.802   9.620 -0.2231  0.1690  0.2145
 4346SOL    HW113616   2.767   1.757   9.684 -1.7072  0.4978  1.7942
 4346SOL    HW213617   2.687   1.735   9.558  1.9049  0.0100 -0.5370
 4347SOL     OW13618   6.683   4.211   7.086  0.4041 -0.0199 -0.1758
 4347SOL    HW113619   6.733   4.137   7.120 -1.8161 -1.7300 -0.3993
 4347SOL    HW213620   6.699   4.209   6.991  0.9017  0.2649 -0.1042
 4348SOL     OW13621   7.991   4.394   0.203 -0.1428 -0.5956  0.3140
 4348SOL    HW113622   7.931   4.328   0.237 -0.0722 -1.1084 -0.5103
 4348SOL    HW213623   8.078   4.365   0.232 -0.1231 -0.8233  0.0404
 4349SOL     OW13624   5.062   1.657   4.913  0.3834  0.5009 -0.6513
 4349SOL    HW113625   5.067   1.749   4.940  1.0641  0.5604 -0.9564
 4349SOL    HW213626   4.968   1.638   4.912  0.0118  1.9498 -3.0346
 4350SOL     OW13627   4.997   7.286   1.560 -0.2774  0.4101  0.4920
 4350SOL    HW113628   5.029   7.354   1.501  2.3488  0.3461  1.7265
 4350SOL    HW213629   4.943   7.333   1.624 -1.2400  0.7993 -0.5777
 4351SOL     OW13630   5.486   7.382   3.906 -0.0996 -0.0387  0.0816
 4351SOL    HW113631   5.546   7.336   3.847  2.2749  0.6871  1.7885
 4351SOL    HW213632   5.463   7.317   3.972 -0.1746  0.0406  0.1332
 4352SOL     OW13633   9.165   3.814   3.760 -0.1361 -0.2121  0.1419
 4352SOL    HW113634   9.258   3.817   3.783  0.2033 -0.7875 -1.1176
 4352SOL    HW213635   9.160   3.861   3.677 -1.0147 -0.0131  0.3031
 4353SOL     OW13636   9.594   1.117   3.376  0.0810  0.4765 -0.4586
 4353SOL    HW113637   9.663   1.096   3.439 -0.1969 -0.3198 -0.3962
 4353SOL    HW213638   9.638   1.120   3.292  0.2216  0.0825 -0.4041
 4354SOL     OW13639   6.845   2.367   5.654 -0.3058  0.2495  0.6444
 4354SOL    HW113640   6.912   2.323   5.602 -0.9342 -0.6547  0.5776
 4354SOL    HW213641   6.776   2.388   5.591 -0.0964  1.1730  0.7125
 4355SOL     OW13642   2.453   0.322   1.751  0.1473 -0.0628 -0.3641
 4355SOL    HW113643   2.515   0.277   1.807 -0.0709 -0.5542 -0.5101
 4355SOL    HW213644   2.421   0.254   1.691 -0.5531  0.1683 -0.2698
 4356SOL     OW13645   1.100   4.460   2.543  0.0816  0.0376  0.3277
 4356SOL    HW113646   1.156   4.530   2.511 -0.5167  0.4600  0.2092
 4356SOL    HW213647   1.093   4.399   2.469  1.0716 -0.4577  0.6149
 4357SOL     OW13648   8.163   1.785   1.310  0.4904 -0.0822  0.5691
 4357SOL    HW113649   8.228   1.729   1.352  0.7035 -0.9011 -0.7969
 4357SOL    HW213650   8.105   1.811   1.381  1.5670 -0.3777  1.5893
 4358SOL     OW13651   0.747   1.844   5.566 -0.0690 -0.3616  0.3135
 4358SOL    HW113652   0.744   1.754   5.596  2.1917 -0.6035  0.0039
 4358SOL    HW213653   0.756   1.896   5.647  0.1119 -0.5401  0.4087
 4359SOL     OW13654   9.550   9.568   8.660  0.3492  0.0930  0.2757
 4359SOL    HW113655   9.601   9.513   8.719  0.5766 -0.4205 -0.3877
 4359SOL    HW213656   9.493   9.507   8.612 -2.0482  0.7669  2.0531
 4360SOL     OW13657   9.257   0.071   1.156 -0.3092  0.3255  0.0392
 4360SOL    HW113658   9.162   0.063   1.142 -0.1788 -1.0224 -0.1735
 4360SOL    HW213659   9.267   0.068   1.252 -0.5051  0.8629  0.0802
 4361SOL     OW13660   5.356   0.522   3.892 -0.0628  0.3946 -0.1724
 4361SOL    HW113661   5.286   0.585   3.873 -0.9226 -1.0474 -2.2142
 4361SOL    HW213662   5.310   0.444   3.921  0.4602 -1.1790 -3.2360
 4362SOL     OW13663   7.565   2.223   1.842 -0.3375 -0.4145  0.1576
 4362SOL    HW113664   7.527   2.152   1.894  1.2682 -1.3001  0.1634
 4362SOL    HW213665   7.655   2.230   1.872 -0.2626  1.1998 -0.3236
 4363SOL     OW13666   9.186   5.427   3.229 -0.6344 -0.2172  0.2127
 4363SOL    HW113667   9.275   5.441   3.197  0.2399 -1.6511  1.8831
 4363SOL    HW213668   9.147   5.515   3.229  1.4911  0.7945  1.4326
 4364SOL     OW13669   4.294   7.605   1.311 -0.7713  0.2546 -0.0486
 4364SOL    HW113670   4.237   7.579   1.384 -1.0412  1.2560  0.1131
 4364SOL    HW213671   4.364   7.540   1.311 -1.8666 -0.9685 -0.2054
 4365SOL     OW13672   6.430   4.475   7.108  0.4448  0.0944  0.4071
 4365SOL    HW113673   6.380   4.510   7.182  0.1024 -0.0628  0.2543
 4365SOL    HW213674   6.521   4.477   7.138  0.1338 -2.1770  1.7731
 4366SOL     OW13675   6.506   6.078   7.427 -0.0056  0.7204 -0.4984
 4366SOL    HW113676   6.422   6.064   7.471  0.9363  1.1905  1.5786
 4366SOL    HW213677   6.557   6.000   7.447  0.4772  0.9837 -0.6836
 4367SOL     OW13678   2.934   1.200   0.737  0.3947 -0.0689  0.0487
 4367SOL    HW113679   3.014   1.218   0.687  0.4162 -0.7166 -0.1584
 4367SOL    HW213680   2.920   1.279   0.789  0.8159  0.2990 -0.3896
 4368SOL     OW13681   1.185   5.344   4.833 -0.7948  0.8760  0.0074
 4368SOL    HW113682   1.173   5.439   4.838 -0.4958  0.8881  0.7725
 4368SOL    HW213683   1.202   5.317   4.924 -0.8525  0.0944 -0.2019
 4369SOL     OW13684   6.855   7.837   2.004 -0.0150 -0.1752 -0.4893
 4369SOL    HW113685   6.884   7.889   1.929  0.4020  0.0278 -0.1943
 4369SOL    HW213686   6.803   7.767   1.965 -2.1707  1.4708 -0.7738
 4370SOL     OW13687   8.286   7.808   6.775  0.7347 -0.4818 -0.1471
 4370SOL    HW113688   8.358   7.745   6.778  1.8759  0.7923  0.0071
 4370SOL    HW213689   8.250   7.807   6.864  1.3101 -0.2839  0.0925
 4371SOL     OW13690   6.252   7.525   9.064  0.3982 -0.3171 -0.1833
 4371SOL    HW113691   6.220   7.532   9.154  1.3957  0.8154  0.1141
 4371SOL    HW213692   6.173   7.515   9.011 -0.3808  1.0713  0.6498
 4372SOL     OW13693   8.437   4.601   1.719  0.2585  0.0863  0.5154
 4372SOL    HW113694   8.428   4.616   1.813 -0.9160 -0.7440  0.5711
 4372SOL    HW213695   8.525   4.565   1.708 -0.1029 -1.1914  1.5245
 4373SOL     OW13696   5.328   3.623   1.718  0.0678  0.1049  0.0597
 4373SOL    HW113697   5.362   3.635   1.807 -3.0386  1.2390  1.2285
 4373SOL    HW213698   5.405   3.596   1.667  2.5063  1.7791  2.5279
 4374SOL     OW13699   4.812   7.264   2.068  0.3496 -0.2762 -0.5273
 4374SOL    HW113700   4.768   7.298   2.146  0.2583 -1.6228  0.0413
 4374SOL    HW213701   4.813   7.169   2.081  1.5745 -0.4216 -1.5159
 4375SOL     OW13702   6.259   7.316   8.641  0.3900 -0.8568  0.1301
 4375SOL    HW113703   6.346   7.342   8.669 -0.1553  0.3044  0.8076
 4375SOL    HW213704   6.274   7.268   8.559  1.8591 -2.9532  1.5242
 4376SOL     OW13705   7.708   0.211   0.212  0.0454 -0.4770 -0.4203
 4376SOL    HW113706   7.740   0.295   0.182  3.2349 -1.2337  0.4546
 4376SOL    HW213707   7.765   0.147   0.170  1.1970 -1.8404  2.8681
 4377SOL     OW13708   8.446   3.979   5.130  0.1103  0.7156 -0.2783
 4377SOL    HW113709   8.418   4.070   5.143 -1.2457  0.2785  0.1090
 4377SOL    HW213710   8.392   3.948   5.057  0.2259  0.0942 -0.1032
 4378SOL     OW13711   0.494   5.503   4.101  0.1402 -0.6156 -0.1630
 4378SOL    HW113712   0.559   5.537   4.163  0.5248  2.6516 -2.1092
 4378SOL    HW213713   0.545   5.481   4.023 -0.6844 -1.7900 -0.3999
 4379SOL     OW13714   9.815   5.466   0.938 -0.3964 -0.1453 -0.1027
 4379SOL    HW113715   9.849   5.412   0.867  1.0905  0.5373  0.0400
 4379SOL    HW213716   9.771   5.539   0.895  0.6396  0.3531 -0.3683
 4380SOL     OW13717   1.054   4.449   4.882 -0.1698  0.5073 -0.2357
 4380SOL    HW113718   1.107   4.516   4.924 -0.1959  0.8083 -0.6814
 4380SOL    HW213719   0.964   4.472   4.903 -0.1234 -0.1895  0.8012
 4381SOL     OW13720   9.475   0.965   0.952 -0.3726 -0.2284  0.0386
 4381SOL    HW113721   9.426   0.909   0.892  0.4810 -0.5333 -0.3969
 4381SOL    HW213722   9.416   0.979   1.026 -0.9028 -1.0375 -0.2165
 4382SOL     OW13723   3.071   4.737   3.502 -0.1178  0.6508 -0.6322
 4382SOL    HW113724   3.116   4.759   3.420 -2.2115  1.1287 -1.7025
 4382SOL    HW213725   3.045   4.646   3.491  2.0695 -0.2397  0.7608
 4383SOL     OW13726   2.106   9.749   0.473  0.0945  0.2958  0.7622
 4383SOL    HW113727   2.166   9.697   0.525 -1.0038 -0.1481  1.6334
 4383SOL    HW213728   2.033   9.689   0.454 -0.1445  0.8566 -0.1328
 4384SOL     OW13729   4.321   1.320   4.378 -0.2638 -0.2715 -0.3309
 4384SOL    HW113730   4.302   1.402   4.332  1.4850 -0.4965 -1.5782
 4384SOL    HW213731   4.416   1.313   4.375 -0.2867 -1.6680  1.0082
 4385SOL     OW13732   8.102   9.955   7.878  0.4035  0.0029 -0.2178
 4385SOL    HW113733   8.054   9.912   7.948  1.1156 -1.3714 -0.5324
 4385SOL    HW213734   8.194   9.955   7.907  0.5495  0.4493 -0.6515
 4386SOL     OW13735   3.514   8.008   9.059  0.6811 -0.1203 -0.1727
 4386SOL    HW113736   3.498   8.049   9.143  0.2758 -1.3364  0.3718
 4386SOL    HW213737   3.599   8.040   9.031 -0.7905  3.3721 -1.1992
 4387SOL     OW13738   0.834   9.680   4.550 -0.2457  0.0467  0.1873
 4387SOL    HW113739   0.904   9.668   4.486  1.4466 -0.6245  2.0746
 4387SOL    HW213740   0.766   9.618   4.522  1.4009 -1.8952  0.2663
 4388SOL     OW13741   4.959   5.187   6.453 -0.5627  0.3059 -0.0990
 4388SOL    HW113742   4.930   5.275   6.429 -0.9252 -0.0257 -0.9366
 4388SOL    HW213743   4.965   5.188   6.548  0.0546  1.4215 -0.1348
 4389SOL     OW13744   0.022   2.857   2.910 -0.2072 -0.4956 -0.0743
 4389SOL    HW113745   0.079   2.804   2.855  0.2347 -0.0540 -0.0519
 4389SOL    HW213746  -0.015   2.922   2.851  0.5332  0.1920  0.2065
 4390SOL     OW13747   0.358   6.774   7.724 -0.3019  0.0532 -0.1078
 4390SOL    HW113748   0.267   6.763   7.749 -0.6564  2.0656 -0.3202
 4390SOL    HW213749   0.355   6.808   7.634  0.6806 -0.4149 -0.3344
 4391SOL     OW13750   2.571   1.221   8.129 -0.4266 -0.1043  0.5068
 4391SOL    HW113751   2.568   1.125   8.134  3.0276 -0.3265  0.1517
 4391SOL    HW213752   2.599   1.249   8.216 -2.4018  0.7503  0.9339
 4392SOL     OW13753   2.193   6.126   0.247  0.5093 -0.4936  0.2235
 4392SOL    HW113754   2.271   6.181   0.254  1.0268 -1.2427  0.4426
 4392SOL    HW213755   2.204   6.058   0.314 -0.4663 -0.4523  0.4477
 4393SOL     OW13756   7.718   9.574   5.356  0.2461 -0.5598 -0.1819
 4393SOL    HW113757   7.685   9.605   5.440  1.2734  0.9706 -0.3045
 4393SOL    HW213758   7.770   9.496   5.378 -0.7929 -1.1159  0.3766
 4394SOL     OW13759   3.428   5.616   1.158 -0.7847 -0.7540  0.1497
 4394SOL    HW113760   3.422   5.651   1.069  0.4086 -1.1874 -0.1203
 4394SOL    HW213761   3.361   5.664   1.207 -0.2700  0.7593 -0.5671
 4395SOL     OW13762   4.204   2.110   2.188 -0.4351  0.1298  0.4308
 4395SOL    HW113763   4.141   2.179   2.207 -0.3050 -0.2997  2.7522
 4395SOL    HW213764   4.244   2.136   2.105  0.2608  3.3579  1.6287
 4396SOL     OW13765   0.105   6.680   7.227 -0.3225 -0.2870  0.8291
 4396SOL    HW113766   0.052   6.742   7.178 -1.3623 -0.9275  1.1104
 4396SOL    HW213767   0.052   6.659   7.304  0.7657 -0.2041  1.6246
 4397SOL     OW13768   0.432   1.303   2.639  0.2918  0.2715  0.1804
 4397SOL    HW113769   0.502   1.263   2.588  0.8766 -0.1072  1.2477
 4397SOL    HW213770   0.429   1.394   2.609  1.6122  0.4311  0.4797
 4398SOL     OW13771   3.264   9.708   9.590 -0.2595  0.1688  0.5288
 4398SOL    HW113772   3.312   9.635   9.551  0.6528  1.4887 -0.9749
 4398SOL    HW213773   3.321   9.739   9.660  0.5480  0.9558 -0.4488
 4399SOL     OW13774   6.969   5.473   2.753  0.5350  0.2357  0.3671
 4399SOL    HW113775   7.019   5.551   2.779  0.2428  0.3738  0.5172
 4399SOL    HW213776   6.959   5.423   2.834  0.6892  0.0592  0.2778
 4400SOL     OW13777   2.872   9.931   3.322 -0.0552 -0.1114  0.1660
 4400SOL    HW113778   2.904   9.850   3.281  0.1066 -0.7839  1.5579
 4400SOL    HW213779   2.783   9.941   3.289  0.8365  0.7102 -2.2206
 4401SOL     OW13780   5.115   5.590   2.884 -0.5401  0.2785 -0.6595
 4401SOL    HW113781   5.194   5.538   2.875 -1.1350 -0.6640 -0.5437
 4401SOL    HW213782   5.059   5.563   2.811 -1.2845 -0.0465  0.0124
 4402SOL     OW13783   0.922   1.140   8.849  0.0627 -0.6874 -0.0434
 4402SOL    HW113784   1.017   1.142   8.850  0.1674 -1.8643 -1.9449
 4402SOL    HW213785   0.899   1.061   8.899 -0.0208  0.1911  1.3814
 4403SOL     OW13786   7.278   6.758   7.609  0.1642 -0.1681 -0.1945
 4403SOL    HW113787   7.275   6.722   7.698 -0.7902 -1.2392 -0.6457
 4403SOL    HW213788   7.206   6.821   7.606  0.4596  0.1813 -0.0925
 4404SOL     OW13789   4.143   7.745   0.388 -0.0785  0.2086 -0.2794
 4404SOL    HW113790   4.128   7.796   0.309  0.4320  0.1302 -0.4332
 4404SOL    HW213791   4.070   7.683   0.391  0.2515 -0.2311 -1.0528
 4405SOL     OW13792   6.668   1.507   2.217 -0.1764  0.3669 -0.2460
 4405SOL    HW113793   6.719   1.555   2.282 -0.2164  0.0181  0.0454
 4405SOL    HW213794   6.696   1.415   2.228 -2.0835 -0.1101  1.0937
 4406SOL     OW13795   4.211   8.583   8.819  0.0958  0.0201  0.4023
 4406SOL    HW113796   4.303   8.588   8.792 -0.3199  1.2650 -0.9087
 4406SOL    HW213797   4.200   8.493   8.850  1.2900 -0.7154 -1.1720
 4407SOL     OW13798   1.098   7.513   2.544 -0.5991 -0.5215 -0.1401
 4407SOL    HW113799   1.115   7.434   2.594  0.0466 -0.2344  0.0998
 4407SOL    HW213800   1.064   7.482   2.460 -0.0260 -1.0621 -0.1748
 4408SOL     OW13801   7.088   4.494   5.890  0.4901 -0.5161  0.6219
 4408SOL    HW113802   6.999   4.516   5.917  0.9029  1.0118  0.8183
 4408SOL    HW213803   7.099   4.403   5.918 -1.9445 -1.7245 -1.9122
 4409SOL     OW13804   8.850   8.154   2.032  0.0533 -0.0754  0.0113
 4409SOL    HW113805   8.791   8.211   2.082 -1.2092 -0.6406 -0.7584
 4409SOL    HW213806   8.813   8.154   1.944  0.9566 -0.8286 -0.3840
 4410SOL     OW13807   6.176   2.097   8.148  0.3379 -0.1653  0.2847
 4410SOL    HW113808   6.217   2.012   8.136 -0.0257 -0.2362 -0.4662
 4410SOL    HW213809   6.083   2.078   8.153  0.3223  0.0884  1.1223
 4411SOL     OW13810   6.368   2.404   9.615  0.3862 -0.6952 -0.4441
 4411SOL    HW113811   6.440   2.343   9.600 -0.7780 -1.8998 -1.3340
 4411SOL    HW213812   6.323   2.370   9.693  0.4520 -0.2375 -0.1974
 4412SOL     OW13813   7.613   2.614   1.391  0.5122  0.3782  0.1739
 4412SOL    HW113814   7.671   2.547   1.353 -1.5841 -1.7494  0.4641
 4412SOL    HW213815   7.651   2.632   1.477  1.8387  0.5403 -0.4296
 4413SOL     OW13816   6.258   5.270   7.745  0.5714  0.3621 -0.0808
 4413SOL    HW113817   6.189   5.332   7.724  2.1522  1.7907 -1.3163
 4413SOL    HW213818   6.218   5.184   7.733 -1.1236  1.1473 -0.2249
 4414SOL     OW13819   6.444   3.728   9.762 -0.2783 -0.2559  0.5325
 4414SOL    HW113820   6.540   3.733   9.759 -0.2229 -0.4390  1.6598
 4414SOL    HW213821   6.423   3.730   9.855 -1.5746  3.0211  0.2822
 4415SOL     OW13822   8.707   4.241   7.960  0.0970 -0.3504  0.1049
 4415SOL    HW113823   8.674   4.242   8.050 -2.2703  0.2385 -0.6996
 4415SOL    HW213824   8.802   4.232   7.970 -0.2609 -5.8966  2.5830
 4416SOL     OW13825   0.863   4.332   0.913 -0.5605 -0.0524  0.1809
 4416SOL    HW113826   0.885   4.244   0.943  0.0446  0.0218 -0.0105
 4416SOL    HW213827   0.791   4.320   0.851 -0.1663 -0.4667 -0.2016
 4417SOL     OW13828   5.498   0.997   5.741 -0.5129 -0.5301 -0.2098
 4417SOL    HW113829   5.565   0.971   5.679  0.6087  1.0230  0.2951
 4417SOL    HW213830   5.422   1.018   5.687  0.7314  1.7074 -1.2210
 4418SOL     OW13831   7.244   7.515   4.825 -0.1417 -0.6525  0.3171
 4418SOL    HW113832   7.295   7.585   4.867 -1.7560 -0.3588  1.9477
 4418SOL    HW213833   7.266   7.521   4.733  2.4332 -0.3060  0.8720
 4419SOL     OW13834   9.146   1.152   7.955  0.4698  0.5320  0.0482
 4419SOL    HW113835   9.200   1.072   7.953  1.3659  1.0129  1.9578
 4419SOL    HW213836   9.164   1.195   7.871  1.0138 -0.6101 -0.4516
 4420SOL     OW13837   8.073   0.440   9.117  0.1712  0.3235 -0.3532
 4420SOL    HW113838   8.146   0.437   9.055  1.1759  0.5782  0.7800
 4420SOL    HW213839   8.027   0.522   9.096  1.0729  0.8921 -0.1437
 4421SOL     OW13840   2.854   0.712   8.136 -0.0167 -0.0263 -0.4059
 4421SOL    HW113841   2.789   0.727   8.205  1.3298  0.6793  0.7476
 4421SOL    HW213842   2.910   0.643   8.170  0.6780  0.3421 -0.7763
 4422SOL     OW13843   9.952   2.045   4.393 -0.6703  0.5594 -0.2329
 4422SOL    HW113844   9.938   1.957   4.361  0.5089 -0.2450  1.3000
 4422SOL    HW213845   9.865   2.084   4.398 -1.3053 -0.8430 -0.0872
 4423SOL     OW13846   4.240   7.070   2.683  0.0761 -0.2235  0.0753
 4423SOL    HW113847   4.306   7.031   2.741 -1.0132 -2.3468  0.0138
 4423SOL    HW213848   4.250   7.022   2.601  1.1338  2.2742 -1.3611
 4424SOL     OW13849   2.556   0.034   2.601  0.3881  0.1429  0.9979
 4424SOL    HW113850   2.551  -0.033   2.670  2.2846 -0.7292  0.3561
 4424SOL    HW213851   2.621   0.000   2.539 -0.3735  1.4750 -0.6147
 4425SOL     OW13852   8.567   3.473   6.245  0.3925  0.1802  0.3330
 4425SOL    HW113853   8.476   3.468   6.274 -0.1630 -0.3194 -1.3592
 4425SOL    HW213854   8.613   3.518   6.316 -0.9907 -0.3535  1.6103
 4426SOL     OW13855   1.512   9.069   4.698  0.6867  0.0382  0.3133
 4426SOL    HW113856   1.603   9.090   4.719  1.2123 -1.7242 -0.0709
 4426SOL    HW213857   1.516   8.987   4.650 -1.1504 -0.3175  0.6748
 4427SOL     OW13858   7.457   0.555   9.007  0.2565  1.5846  0.2075
 4427SOL    HW113859   7.549   0.533   8.992 -0.3414 -0.5569 -0.6892
 4427SOL    HW213860   7.412   0.471   9.003 -1.6771  2.5070  1.3022
 4428SOL     OW13861   1.731   0.438   3.713  0.2939  0.1872 -0.5123
 4428SOL    HW113862   1.783   0.448   3.633  0.9631 -0.9592 -0.2452
 4428SOL    HW213863   1.796   0.444   3.783  0.3156 -2.5309 -0.2138
 4429SOL     OW13864   7.194   9.655   1.463  0.4531 -0.1687 -0.2089
 4429SOL    HW113865   7.202   9.678   1.370  0.4575  1.6243  0.2050
 4429SOL    HW213866   7.283   9.664   1.497  0.5520 -1.3225 -0.0994
 4430SOL     OW13867   4.893   9.821   9.225  0.3052 -0.2594  0.3098
 4430SOL    HW113868   4.952   9.780   9.288  1.6215  0.5736 -0.3486
 4430SOL    HW213869   4.950   9.853   9.155 -1.0554 -0.6653 -1.0545
 4431SOL     OW13870   1.035   2.222   7.766 -0.6366  0.5628  0.0131
 4431SOL    HW113871   1.125   2.189   7.756 -0.6421  0.5605 -0.0306
 4431SOL    HW213872   1.008   2.242   7.677 -0.5206  0.9916  0.0717
 4432SOL     OW13873   6.445   1.214   5.463 -0.3197 -0.7015 -0.6266
 4432SOL    HW113874   6.416   1.306   5.462 -0.8703 -0.8750 -1.0399
 4432SOL    HW213875   6.508   1.208   5.391 -1.2008 -0.9273 -1.4002
 4433SOL     OW13876   0.883   9.114   4.910 -0.1921 -0.3526 -0.3905
 4433SOL    HW113877   0.821   9.115   4.983 -0.1526 -0.5853 -0.3524
 4433SOL    HW213878   0.842   9.169   4.844  0.3629  0.9084  0.2814
 4434SOL     OW13879   3.575   6.466   6.553 -0.2974  0.0882  0.7482
 4434SOL    HW113880   3.656   6.459   6.604  0.2400  0.9160  0.0317
 4434SOL    HW213881   3.571   6.384   6.504 -0.1194 -0.1429  1.1155
 4435SOL     OW13882   2.165   1.077   5.392 -0.4144  0.1556 -0.2787
 4435SOL    HW113883   2.149   1.116   5.306  1.0035 -2.1126 -1.6607
 4435SOL    HW213884   2.142   0.985   5.381 -1.1919  0.0056  2.1212
 4436SOL     OW13885   6.878   4.628   5.436 -0.5680  0.2083  0.1501
 4436SOL    HW113886   6.877   4.578   5.355 -0.0710 -0.0310  0.2897
 4436SOL    HW213887   6.940   4.699   5.421 -0.1146 -0.1092  0.4754
 4437SOL     OW13888   5.552   7.638   7.431  0.0892 -0.5447 -0.3527
 4437SOL    HW113889   5.542   7.624   7.525  1.1681 -0.7392 -0.2529
 4437SOL    HW213890   5.509   7.722   7.414 -0.0014 -0.4508  0.3312
 4438SOL     OW13891   4.472   7.245   3.871 -0.5575 -0.2037  0.1387
 4438SOL    HW113892   4.527   7.316   3.837 -1.7431  0.8628  0.3472
 4438SOL    HW213893   4.442   7.199   3.794 -1.7028  1.0267 -0.1852
 4439SOL     OW13894   2.223   6.631   3.228 -0.5503  0.0501  0.6005
 4439SOL    HW113895   2.293   6.697   3.228  0.8974 -1.4095  1.6417
 4439SOL    HW213896   2.186   6.636   3.317 -0.5244 -0.4353  0.6391
 4440SOL     OW13897   4.197   3.792   5.665 -0.1202  0.5151  0.0832
 4440SOL    HW113898   4.258   3.831   5.727  0.1076  1.3415 -0.6431
 4440SOL    HW213899   4.138   3.739   5.719 -0.0416  1.3649  1.0243
 4441SOL     OW13900   6.734   1.236   2.011 -0.1741  0.1145  0.3009
 4441SOL    HW113901   6.811   1.294   2.016  0.7266 -1.0820  0.7165
 4441SOL    HW213902   6.680   1.274   1.942  1.0926  0.6362 -0.4361
 4442SOL     OW13903   1.442   8.628   2.214  0.2528  0.0838 -0.3903
 4442SOL    HW113904   1.469   8.542   2.247 -1.0609 -0.4709 -0.6684
 4442SOL    HW213905   1.492   8.691   2.266  0.8274 -0.8419  0.2047
 4443SOL     OW13906   1.869   4.563   4.505 -0.6665  0.1525  0.0339
 4443SOL    HW113907   1.781   4.592   4.530 -0.4091  0.3316  0.7767
 4443SOL    HW213908   1.928   4.615   4.560 -0.1277 -0.5092  0.0973
 4444SOL     OW13909   2.854   8.434   5.121  0.7472 -0.3214 -0.0069
 4444SOL    HW113910   2.817   8.423   5.034  1.5388  1.9854 -0.7007
 4444SOL    HW213911   2.929   8.374   5.124  2.3032  1.4063 -1.9351
 4445SOL     OW13912   6.145   9.459   6.537 -0.4210 -0.2089 -0.6439
 4445SOL    HW113913   6.235   9.455   6.504  0.3641 -1.4110  1.4815
 4445SOL    HW213914   6.093   9.418   6.468  0.8445 -0.7685 -1.3161
 4446SOL     OW13915   6.522   5.565   3.340  0.0466 -0.2906 -0.6894
 4446SOL    HW113916   6.597   5.598   3.389 -1.4164  2.0043  0.1600
 4446SOL    HW213917   6.465   5.526   3.407  1.6275 -4.8290 -1.6127
 4447SOL     OW13918   1.257   3.540   4.361  0.3167 -0.3356 -0.2561
 4447SOL    HW113919   1.312   3.608   4.402  0.0177  0.0366 -0.4656
 4447SOL    HW213920   1.206   3.587   4.295 -1.9753 -0.1946  1.4832
 4448SOL     OW13921   5.472   3.293   7.034  0.3133  0.0027 -0.0094
 4448SOL    HW113922   5.538   3.257   7.094 -0.7941  0.1863  1.3474
 4448SOL    HW213923   5.466   3.385   7.057 -1.3882 -0.2890  0.8275
 4449SOL     OW13924   7.436   7.892   4.581 -0.1782  0.2963 -0.8118
 4449SOL    HW113925   7.532   7.895   4.578  0.0582 -0.6641  2.0686
 4449SOL    HW213926   7.412   7.964   4.640 -1.1227 -0.0823 -0.7130
 4450SOL     OW13927   4.446   4.740   4.590  0.3239  0.1858  0.4303
 4450SOL    HW113928   4.487   4.819   4.627 -0.3252  1.1788 -0.9141
 4450SOL    HW213929   4.503   4.715   4.518 -0.6155  0.7430 -0.5441
 4451SOL     OW13930   7.756   7.524   5.738 -0.1634  0.1788  0.1597
 4451SOL    HW113931   7.766   7.619   5.748  1.2051  0.1885 -0.9610
 4451SOL    HW213932   7.709   7.514   5.655  1.8681 -0.1305 -1.0084
 4452SOL     OW13933   5.765   7.959   0.374 -0.5460  0.0058 -0.6122
 4452SOL    HW113934   5.730   7.969   0.285 -0.0262  0.7193 -0.7500
 4452SOL    HW213935   5.753   7.866   0.395  2.3672 -0.9689 -2.7315
 4453SOL     OW13936   9.941   7.201   4.271 -0.0495 -0.4882  0.2649
 4453SOL    HW113937   9.975   7.136   4.210 -1.5149 -0.7857 -0.2629
 4453SOL    HW213938   9.937   7.155   4.355  4.3640  0.6068  1.3659
 4454SOL     OW13939   9.175   2.636   2.477 -0.3579 -0.4454  0.0833
 4454SOL    HW113940   9.146   2.559   2.525 -0.4500  1.2975  3.0505
 4454SOL    HW213941   9.188   2.604   2.387 -0.8200 -3.7611  1.0398
 4455SOL     OW13942   8.476   5.363   6.077  0.2789  0.4621 -0.3700
 4455SOL    HW113943   8.432   5.446   6.097 -0.1085  0.1340  0.1675
 4455SOL    HW213944   8.412   5.296   6.102  0.0178  0.0078 -2.1358
 4456SOL     OW13945   8.937   6.034   6.689  0.5048 -0.4748  0.1668
 4456SOL    HW113946   9.026   6.064   6.706 -0.2629  1.0515  1.9075
 4456SOL    HW213947   8.906   6.004   6.775 -0.6777 -0.8713 -0.3846
 4457SOL     OW13948   5.861   8.202   5.825  0.2592  0.2444  0.0230
 4457SOL    HW113949   5.861   8.272   5.760  0.5467  2.1256  1.9473
 4457SOL    HW213950   5.777   8.157   5.812 -1.0928  2.5337  0.3248
 4458SOL     OW13951   4.454   6.505   1.986 -0.0696  0.1577  0.7826
 4458SOL    HW113952   4.522   6.543   2.041 -0.7796 -0.6765  2.3297
 4458SOL    HW213953   4.373   6.547   2.015 -0.6671 -1.4194  1.5176
 4459SOL     OW13954   9.366   7.737   3.637  0.3707  0.0724 -0.2395
 4459SOL    HW113955   9.402   7.650   3.622  0.7464  0.1092  0.3955
 4459SOL    HW213956   9.313   7.755   3.560  0.0399 -0.8420 -0.2337
 4460SOL     OW13957   5.839   2.886   7.729 -0.0962 -0.5527 -0.1709
 4460SOL    HW113958   5.809   2.842   7.808 -2.5452 -1.3837 -1.4601
 4460SOL    HW213959   5.780   2.960   7.719  2.1267  1.4218  0.3591
 4461SOL     OW13960   1.105   3.769   7.910 -0.2757 -0.4602 -0.1926
 4461SOL    HW113961   1.162   3.703   7.949  1.6950  0.6028 -1.1513
 4461SOL    HW213962   1.120   3.848   7.961  0.0365  0.1462 -1.1972
 4462SOL     OW13963   0.135   9.907   0.231  0.3371  0.0482  0.5776
 4462SOL    HW113964   0.216   9.956   0.244  0.3609 -0.1362  1.1597
 4462SOL    HW213965   0.154   9.849   0.158  0.8454 -0.2325  0.9265
 4463SOL     OW13966   5.397   7.383   5.165 -0.3656  0.0052 -0.1753
 4463SOL    HW113967   5.378   7.469   5.202 -1.3574 -0.6793  1.0000
 4463SOL    HW213968   5.490   7.369   5.180 -0.5013  0.2718  0.9661
 4464SOL     OW13969   1.077   4.045   7.937  0.0605  0.3726 -0.6122
 4464SOL    HW113970   1.145   4.036   7.870  0.3947  0.2087 -0.2502
 4464SOL    HW213971   1.024   4.119   7.907  1.2201  1.4249 -0.1915
 4465SOL     OW13972   6.218   9.609   2.902  0.2739  0.1752 -0.1795
 4465SOL    HW113973   6.174   9.562   2.831  0.1377  0.7680 -0.4888
 4465SOL    HW213974   6.255   9.687   2.861  1.8348 -0.4269  0.0332
 4466SOL     OW13975   9.745   1.199   9.346  0.1377 -0.0510 -0.3422
 4466SOL    HW113976   9.786   1.281   9.373 -1.2424  0.2494  0.9479
 4466SOL    HW213977   9.818   1.145   9.313  1.2415  1.1887  0.0134
 4467SOL     OW13978   0.662   6.894   3.122 -0.1407 -0.1151 -0.2366
 4467SOL    HW113979   0.595   6.875   3.057 -1.4997  0.4486  0.9409
 4467SOL    HW213980   0.705   6.973   3.091 -0.0358 -0.4668 -0.9974
 4468SOL     OW13981   9.791   4.926   2.835 -0.5182 -0.4180 -0.2677
 4468SOL    HW113982   9.843   4.973   2.769 -1.1634  0.6923 -0.0195
 4468SOL    HW213983   9.712   4.901   2.789 -0.1682 -1.3013 -0.4014
 4469SOL     OW13984   2.612   0.946   9.199 -0.1083 -0.4361 -0.1085
 4469SOL    HW113985   2.648   0.978   9.281 -0.2296 -2.0119  0.6041
 4469SOL    HW213986   2.518   0.962   9.206  0.2214  2.9746 -1.6453
 4470SOL     OW13987   6.641   6.868   4.756  0.5075 -0.5684 -0.5529
 4470SOL    HW113988   6.616   6.803   4.822 -0.4025 -1.1733 -1.4684
 4470SOL    HW213989   6.663   6.946   4.807  0.2646 -1.1552  0.4865
 4471SOL     OW13990   7.418   3.651   7.797 -0.3831 -0.2230 -0.8120
 4471SOL    HW113991   7.477   3.577   7.809 -0.4073  0.0237  0.9856
 4471SOL    HW213992   7.457   3.722   7.849 -1.7291  0.2381 -0.4015
 4472SOL     OW13993   0.557   1.892   5.866 -0.0736  0.0541 -0.2885
 4472SOL    HW113994   0.614   1.967   5.880  1.6845 -1.4558  1.2550
 4472SOL    HW213995   0.504   1.887   5.946  1.2392 -1.4324  0.5478
 4473SOL     OW13996   2.444   6.645   9.902 -0.0104 -0.0392 -0.3976
 4473SOL    HW113997   2.432   6.557   9.939 -0.8901  0.3199  0.2273
 4473SOL    HW213998   2.378   6.651   9.833  0.4833 -0.0955 -0.8791
 4474SOL     OW13999   8.185   6.503   5.561 -0.3313 -0.0500  0.0847
 4474SOL    HW114000   8.230   6.419   5.561 -1.8682 -0.9130 -0.9817
 4474SOL    HW214001   8.163   6.519   5.470 -3.2091 -0.3074  0.6218
 4475SOL     OW14002   0.596   5.213   8.879 -0.6665 -0.1567 -0.0423
 4475SOL    HW114003   0.594   5.143   8.813 -0.3591 -0.3092  0.1073
 4475SOL    HW214004   0.568   5.170   8.960  0.8895 -0.4689  0.3712
 4476SOL     OW14005   6.483   5.664   3.616 -0.2722 -0.8319 -0.1228
 4476SOL    HW114006   6.431   5.695   3.690 -1.4733  1.3837 -1.7937
 4476SOL    HW214007   6.438   5.584   3.588 -0.4712 -1.0623  0.7942
 4477SOL     OW14008   5.138   7.236   5.703 -0.5342 -0.2059  0.5713
 4477SOL    HW114009   5.195   7.176   5.656 -0.4840  0.7899 -0.7089
 4477SOL    HW214010   5.049   7.208   5.681 -0.5697 -1.2469  1.9023
 4478SOL     OW14011   3.914   9.624   2.286  0.7662  0.4018  0.1865
 4478SOL    HW114012   3.945   9.714   2.287  0.3993  0.5448 -0.6397
 4478SOL    HW214013   3.875   9.610   2.372  1.1384  0.9149  0.4408
 4479SOL     OW14014   2.590   8.825   0.823 -0.1063  0.2590  0.5379
 4479SOL    HW114015   2.507   8.802   0.781  0.5366 -3.4177  0.9116
 4479SOL    HW214016   2.600   8.760   0.892  3.3574  0.1233  0.0741
 4480SOL     OW14017   0.247   6.357   5.111 -0.7037 -0.2365  0.0525
 4480SOL    HW114018   0.218   6.399   5.192 -0.5326 -0.5175  0.2623
 4480SOL    HW214019   0.303   6.286   5.140 -1.1021 -0.6989 -0.2961
 4481SOL     OW14020   1.751   3.956   5.244  0.0452 -0.0195  0.0432
 4481SOL    HW114021   1.745   3.931   5.336 -0.0446 -1.3926 -0.3099
 4481SOL    HW214022   1.819   3.899   5.208  0.4636  0.8812 -0.6257
 4482SOL     OW14023   8.362   6.367   9.276 -0.2351  0.3967  0.1912
 4482SOL    HW114024   8.425   6.298   9.254 -2.0382 -1.5113  0.6513
 4482SOL    HW214025   8.399   6.447   9.237  2.1856 -0.6987  0.0419
 4483SOL     OW14026   1.757   2.590   1.442  0.5175  0.1619 -0.0746
 4483SOL    HW114027   1.670   2.566   1.474 -0.6182 -0.3720 -3.1451
 4483SOL    HW214028   1.766   2.683   1.461 -1.9313  0.8755 -1.9260
 4484SOL     OW14029   3.753   0.158   1.498 -0.2774  0.3990  0.2221
 4484SOL    HW114030   3.726   0.068   1.479 -0.5054  0.7001 -0.9519
 4484SOL    HW214031   3.808   0.150   1.576  0.1214 -0.8270 -0.1548
 4485SOL     OW14032   0.430   6.415   6.895  0.6656  0.1559 -0.4103
 4485SOL    HW114033   0.522   6.391   6.901  1.2087  1.9150 -1.0981
 4485SOL    HW214034   0.418   6.482   6.962 -0.5882 -1.2704  0.8777
 4486SOL     OW14035   8.789   6.632   7.764 -0.3720 -0.7065  0.1042
 4486SOL    HW114036   8.843   6.689   7.710 -0.2818 -0.5726  0.3346
 4486SOL    HW214037   8.715   6.609   7.708 -0.4625 -0.2821  0.0458
 4487SOL     OW14038   3.394   6.305   1.389 -0.5254 -0.2977  0.4489
 4487SOL    HW114039   3.479   6.275   1.357 -0.7919 -0.4878 -0.1026
 4487SOL    HW214040   3.332   6.241   1.354 -0.8544 -0.3737  1.1631
 4488SOL     OW14041   7.763   0.347   5.163  0.5822 -0.0150 -0.2540
 4488SOL    HW114042   7.744   0.254   5.149 -0.9260  0.3224 -0.6475
 4488SOL    HW214043   7.740   0.362   5.255  1.0385 -0.0742 -0.1288
 4489SOL     OW14044   4.011   2.171   5.726  0.2150  0.0599 -0.1075
 4489SOL    HW114045   3.980   2.254   5.761 -0.3559 -0.0687 -0.2990
 4489SOL    HW214046   3.932   2.127   5.695  0.5028 -0.5858  0.0571
 4490SOL     OW14047   8.840   9.629   8.356  0.2011 -0.6096 -0.0117
 4490SOL    HW114048   8.910   9.678   8.399 -0.5783  0.8239 -0.3117
 4490SOL    HW214049   8.760   9.678   8.377 -0.7990 -2.4812  0.7354
 4491SOL     OW14050   5.100   9.846   4.564 -0.2147  0.1099 -0.1569
 4491SOL    HW114051   5.183   9.889   4.547 -0.4075  0.9500  0.9351
 4491SOL    HW214052   5.053   9.906   4.621 -2.0171  0.1487 -1.5898
 4492SOL     OW14053   4.878   8.893   3.332  0.2648  0.0014  0.2928
 4492SOL    HW114054   4.959   8.934   3.303 -0.0077 -0.1480 -0.7337
 4492SOL    HW214055   4.811   8.931   3.276 -0.2965 -0.2964  0.7513
 4493SOL     OW14056   7.541   1.713   4.179 -0.4671 -0.2202  0.3720
 4493SOL    HW114057   7.447   1.731   4.175 -0.8464 -2.1844 -1.5598
 4493SOL    HW214058   7.560   1.670   4.095  1.8142 -1.4594  1.4474
 4494SOL     OW14059   7.346   5.257   3.995  0.1510 -0.2341  0.8640
 4494SOL    HW114060   7.437   5.230   4.002  0.9657  2.2807  1.2798
 4494SOL    HW214061   7.338   5.290   3.905  0.0540  0.7670  1.2291
 4495SOL     OW14062   3.779   6.521   7.551 -0.2523 -0.0395  0.2621
 4495SOL    HW114063   3.850   6.552   7.608  0.4092  1.2912 -1.2391
 4495SOL    HW214064   3.783   6.425   7.559 -0.1275  0.0774  2.3367
 4496SOL     OW14065   9.586   7.177   6.687 -0.0572 -0.2508 -0.8049
 4496SOL    HW114066   9.556   7.233   6.615 -0.0149 -1.3792 -1.7188
 4496SOL    HW214067   9.591   7.089   6.649 -0.0216 -0.8685  0.5788
 4497SOL     OW14068   1.584   5.840   7.928 -0.0479 -0.0220  0.3946
 4497SOL    HW114069   1.496   5.854   7.892  0.2844 -0.9468 -0.8424
 4497SOL    HW214070   1.643   5.879   7.863  0.4515  1.6797  1.7837
 4498SOL     OW14071   9.313   5.290   0.434  0.6983  0.0498 -0.6782
 4498SOL    HW114072   9.408   5.306   0.430  0.5569  1.5342  0.5730
 4498SOL    HW214073   9.282   5.305   0.345  1.7127 -1.0918 -1.2487
 4499SOL     OW14074   6.099   2.252   3.274 -0.0653  0.3875  0.4258
 4499SOL    HW114075   6.089   2.157   3.285 -0.0593  0.4418  0.9140
 4499SOL    HW214076   6.193   2.264   3.260 -0.2123  0.2080 -0.8409
 4500SOL     OW14077   6.454   0.029   7.829 -0.3701 -0.2071  0.1302
 4500SOL    HW114078   6.451   0.038   7.734  0.4351  1.5315  0.2270
 4500SOL    HW214079   6.472  -0.064   7.844  0.3018 -0.3560 -1.4343
 4501SOL     OW14080   8.040   3.714   7.328 -0.7486 -0.3249  0.1884
 4501SOL    HW114081   8.133   3.736   7.340 -0.6714 -1.0613  1.1075
 4501SOL    HW214082   8.026   3.717   7.234  0.7926 -2.3578 -0.1810
 4502SOL     OW14083   5.533   3.469   4.161  0.4001 -0.0668 -0.1625
 4502SOL    HW114084   5.507   3.385   4.124  2.7599 -0.8529 -0.2030
 4502SOL    HW214085   5.607   3.497   4.107  0.4294  1.4448  0.6037
 4503SOL     OW14086   9.849   7.949   5.889  0.5234 -0.3881 -0.5385
 4503SOL    HW114087   9.870   7.942   5.796  0.2374  2.1153 -0.8679
 4503SOL    HW214088   9.802   8.033   5.897 -0.5408 -1.1097  1.6847
 4504SOL     OW14089   2.774   2.790   3.564 -0.6646 -0.2443  0.1924
 4504SOL    HW114090   2.696   2.788   3.620 -0.3658  0.1990  0.6330
 4504SOL    HW214091   2.825   2.715   3.591 -1.0136 -0.6379 -0.2170
 4505SOL     OW14092   4.681   0.791   0.674 -0.0743 -0.5934  0.0157
 4505SOL    HW114093   4.609   0.766   0.731 -1.1860  0.0946 -1.0330
 4505SOL    HW214094   4.707   0.878   0.704  0.8191 -1.1267  0.8414
 4506SOL     OW14095   7.789   8.218   1.637 -0.1721 -0.2598  0.1413
 4506SOL    HW114096   7.752   8.160   1.703  1.9905 -0.9085  0.8733
 4506SOL    HW214097   7.883   8.218   1.655  0.4969 -0.2724 -2.7855
 4507SOL     OW14098   5.423   9.119   2.814  0.4066  0.3594 -0.2052
 4507SOL    HW114099   5.424   9.205   2.771 -2.9380  0.1175 -1.0689
 4507SOL    HW214100   5.442   9.139   2.906  1.0497  1.8189 -0.6161
 4508SOL     OW14101   0.349   2.699   0.781 -0.1008  0.4257  0.2954
 4508SOL    HW114102   0.309   2.723   0.697  0.0231  1.4577  0.5154
 4508SOL    HW214103   0.397   2.619   0.762  0.0362  0.7114 -0.6659
 4509SOL     OW14104   1.153   8.848   4.781 -0.3330 -0.2312 -0.4401
 4509SOL    HW114105   1.070   8.809   4.809 -0.3378 -0.1684 -0.3683
 4509SOL    HW214106   1.132   8.893   4.699 -0.2648 -0.6271 -0.6785
 4510SOL     OW14107   7.665   5.868   8.133  0.0985 -0.4152  0.7096
 4510SOL    HW114108   7.716   5.948   8.149  0.6754 -0.7350  0.4924
 4510SOL    HW214109   7.576   5.891   8.160  0.3679  0.1290  1.1550
 4511SOL     OW14110   9.389   8.621   4.813 -0.0348  0.3471  0.1137
 4511SOL    HW114111   9.479   8.652   4.805  0.9219 -2.0694  0.7579
 4511SOL    HW214112   9.384   8.582   4.900 -1.1584 -1.1744 -0.5895
 4512SOL     OW14113   7.997   4.155   9.722 -0.1138 -0.3963 -0.0712
 4512SOL    HW114114   8.088   4.143   9.695 -0.5404 -3.0211 -0.6678
 4512SOL    HW214115   7.955   4.072   9.700 -2.6865  0.7649  0.1396
 4513SOL     OW14116   2.384   2.123   2.154 -0.1069  0.1932 -0.1918
 4513SOL    HW114117   2.378   2.075   2.236  0.1466  0.1911 -0.1733
 4513SOL    HW214118   2.406   2.213   2.180  1.9740 -0.2308 -0.3437
 4514SOL     OW14119   1.723   4.274   8.352 -0.1426 -0.5777 -0.0678
 4514SOL    HW114120   1.720   4.362   8.388 -0.7405 -0.1325 -1.1631
 4514SOL    HW214121   1.650   4.228   8.394 -1.0864  0.0562 -0.9464
 4515SOL     OW14122   9.944   3.838   5.719 -0.3576  0.1610  0.0039
 4515SOL    HW114123   9.928   3.926   5.753  1.0923  0.6395 -0.4737
 4515SOL    HW214124   9.962   3.851   5.626  0.0680 -0.6160 -0.0279
 4516SOL     OW14125   5.143   4.990   4.588 -0.1073 -0.0596 -0.3739
 4516SOL    HW114126   5.057   5.019   4.618  0.1294 -0.4815  0.7696
 4516SOL    HW214127   5.200   4.999   4.664  1.0152  0.7484 -1.2665
 4517SOL     OW14128   8.192   3.925   9.959  0.1520  0.0356 -0.3175
 4517SOL    HW114129   8.204   3.985   9.886 -1.8492 -0.9251 -1.5133
 4517SOL    HW214130   8.277   3.881   9.969  0.9804  1.4621 -0.8281
 4518SOL     OW14131   0.898   8.848   6.782  0.2669  0.0610  0.5484
 4518SOL    HW114132   0.979   8.895   6.803 -0.6270  0.6972  2.7823
 4518SOL    HW214133   0.892   8.854   6.686  1.4310  2.4621  0.5367
 4519SOL     OW14134   3.071   8.864   1.168 -0.2546  0.3119  0.3056
 4519SOL    HW114135   3.137   8.933   1.175  0.2922 -0.2369  0.7498
 4519SOL    HW214136   3.065   8.829   1.257 -0.4887 -0.2382  0.0767
 4520SOL     OW14137   6.367   7.778   9.182 -0.6713  0.1008 -0.4514
 4520SOL    HW114138   6.385   7.776   9.088 -0.4608 -0.6710 -0.4021
 4520SOL    HW214139   6.326   7.693   9.200 -1.0698  0.4003  0.0851
 4521SOL     OW14140   8.587   8.806   1.738 -0.0084 -0.3923  0.4495
 4521SOL    HW114141   8.572   8.720   1.777  2.2701 -0.5801  1.0715
 4521SOL    HW214142   8.573   8.868   1.810 -2.1710 -0.1451 -0.1285
 4522SOL     OW14143   6.355   8.349   3.291  0.3928 -0.4168 -0.6976
 4522SOL    HW114144   6.441   8.308   3.295  0.4474 -0.2287  0.9224
 4522SOL    HW214145   6.307   8.298   3.226  1.8797 -0.1812 -2.0228
 4523SOL     OW14146   9.147   2.244   3.193  0.2455 -0.1802  0.4331
 4523SOL    HW114147   9.110   2.285   3.271  0.4673 -0.0346  0.4625
 4523SOL    HW214148   9.223   2.298   3.171 -0.5278  0.5124 -0.6034
 4524SOL     OW14149   1.860   7.035   2.585 -0.2503 -0.3531  0.5014
 4524SOL    HW114150   1.920   7.093   2.633  0.6521  0.0201 -0.9921
 4524SOL    HW214151   1.861   7.069   2.495 -2.3552 -0.6519  0.3261
 4525SOL     OW14152   5.577   2.988   2.030  0.3327 -0.1715 -0.3000
 4525SOL    HW114153   5.568   3.083   2.034 -1.6518 -0.2989 -0.6243
 4525SOL    HW214154   5.539   2.957   2.113  2.9137 -0.6409  0.8128
 4526SOL     OW14155   6.276   5.583   6.534 -0.1959  0.3303  0.7575
 4526SOL    HW114156   6.182   5.566   6.532 -0.3800  0.5667  3.2857
 4526SOL    HW214157   6.283   5.675   6.557  0.7770  1.8701 -4.5392
 4527SOL     OW14158   1.787   4.847   2.662 -0.0323  0.8040 -0.0183
 4527SOL    HW114159   1.827   4.916   2.610  0.0419 -0.2585 -1.4418
 4527SOL    HW214160   1.834   4.849   2.745  2.0976  0.5024 -1.1338
 4528SOL     OW14161   5.361   3.629   5.770  0.1219 -0.1512  0.1923
 4528SOL    HW114162   5.404   3.559   5.721  2.6789 -0.1219  2.2304
 4528SOL    HW214163   5.377   3.708   5.719  0.3709 -0.5153 -0.2961
 4529SOL     OW14164   1.858   5.490   5.683 -0.0741 -0.5377 -0.0069
 4529SOL    HW114165   1.811   5.414   5.718 -1.6526  1.4148  2.4495
 4529SOL    HW214166   1.826   5.564   5.735  1.6480  1.7897 -2.0417
 4530SOL     OW14167   9.180   4.476   7.604  0.2572  0.6423  0.9900
 4530SOL    HW114168   9.200   4.524   7.524 -0.7380  1.2359  1.0812
 4530SOL    HW214169   9.086   4.459   7.600  0.0183  1.4233  2.4079
 4531SOL     OW14170   1.203   9.633   8.775  0.2056  0.4067  0.2295
 4531SOL    HW114171   1.127   9.683   8.805  0.3733  0.1188  1.1866
 4531SOL    HW214172   1.196   9.550   8.822 -0.7885 -1.0396 -2.3176
 4532SOL     OW14173   0.228   1.622   4.301 -0.4042  0.0158 -0.7050
 4532SOL    HW114174   0.156   1.585   4.352 -1.1568  2.6134  0.2633
 4532SOL    HW214175   0.194   1.628   4.212 -0.6895 -0.4617 -0.6310
 4533SOL     OW14176   8.526   8.282   5.889 -0.1758 -0.4769 -0.4800
 4533SOL    HW114177   8.588   8.303   5.959 -2.7428  1.2486  1.5160
 4533SOL    HW214178   8.465   8.220   5.929  0.2083 -2.2256 -2.4152
 4534SOL     OW14179   2.852   5.958   0.444  0.4510  0.2086 -0.1940
 4534SOL    HW114180   2.899   6.034   0.479 -1.0377  1.3521 -0.6077
 4534SOL    HW214181   2.902   5.933   0.366  1.2136  0.4578  0.1997
 4535SOL     OW14182   9.599   6.876   4.510  0.2772 -0.1042 -0.1639
 4535SOL    HW114183   9.629   6.967   4.508 -1.8459  0.6498  0.0897
 4535SOL    HW214184   9.525   6.874   4.450 -2.7729 -0.4107  3.2343
 4536SOL     OW14185   2.174   7.276   4.727  0.2020 -0.2192  0.8148
 4536SOL    HW114186   2.109   7.206   4.734 -0.5514  0.1440 -1.5906
 4536SOL    HW214187   2.122   7.355   4.707  1.2509  0.3974  0.4305
 4537SOL     OW14188   6.301   7.829   7.856  0.2368  0.0504 -0.3310
 4537SOL    HW114189   6.233   7.881   7.899  0.1099 -0.2347 -0.1843
 4537SOL    HW214190   6.268   7.740   7.858  0.9217 -0.1934  0.3309
 4538SOL     OW14191   2.932   3.704   7.754 -0.6537  0.1418 -0.2734
 4538SOL    HW114192   3.008   3.688   7.698 -0.5634  0.1450 -0.1520
 4538SOL    HW214193   2.947   3.791   7.791 -1.3378  0.6986 -1.2445
 4539SOL     OW14194   4.832   2.481   8.946  0.0296 -0.4393 -0.0150
 4539SOL    HW114195   4.831   2.443   8.858 -0.3228  1.2316 -0.7799
 4539SOL    HW214196   4.830   2.406   9.005  0.6468 -1.6117 -1.4233
 4540SOL     OW14197   5.953   4.979   7.583 -0.0784 -0.3560 -0.1894
 4540SOL    HW114198   5.906   5.049   7.628 -0.0815 -0.2770 -0.3156
 4540SOL    HW214199   5.993   5.021   7.508  3.1476  0.3891  1.7448
 4541SOL     OW14200   8.935   8.844   5.688 -0.5341 -0.8942 -0.2592
 4541SOL    HW114201   8.892   8.760   5.676 -0.2701 -1.0337 -0.2288
 4541SOL    HW214202   8.915   8.893   5.608 -2.5684 -0.1426  0.6290
 4542SOL     OW14203   0.931   7.315   0.601  0.5085  0.4581  0.0911
 4542SOL    HW114204   0.942   7.365   0.682  2.4404  0.7874 -0.3210
 4542SOL    HW214205   1.001   7.250   0.604  0.0915 -0.0507 -0.9424
 4543SOL     OW14206   3.613   5.487   8.140 -0.0096 -0.2657  1.1309
 4543SOL    HW114207   3.642   5.441   8.219  1.4351 -0.7322  0.3673
 4543SOL    HW214208   3.548   5.429   8.100 -1.8773  0.6255  2.6719
 4544SOL     OW14209   2.493   1.523   0.472  0.1727  0.0476 -0.1689
 4544SOL    HW114210   2.573   1.479   0.501 -0.2366 -0.8597 -0.3754
 4544SOL    HW214211   2.507   1.538   0.378  0.2153  0.1457 -0.1470
 4545SOL     OW14212   4.676   8.420   0.333  0.4630  0.4774 -0.1002
 4545SOL    HW114213   4.716   8.377   0.258 -1.8085 -2.3868  0.1866
 4545SOL    HW214214   4.583   8.396   0.329  0.0939  0.8702  3.1668
 4546SOL     OW14215   3.411   7.706   8.594 -0.6663  0.1125  0.0876
 4546SOL    HW114216   3.506   7.716   8.601 -0.5469  0.0881 -1.3035
 4546SOL    HW214217   3.397   7.611   8.592 -0.5200  0.0979 -1.7789
 4547SOL     OW14218   7.863   8.420   1.067  0.0673  0.4832  0.0355
 4547SOL    HW114219   7.872   8.334   1.106  1.0425 -0.4235 -2.0526
 4547SOL    HW214220   7.769   8.438   1.070 -0.2779 -1.1014 -0.3788
 4548SOL     OW14221   1.582   7.851   5.723  0.1505  0.6585 -0.3515
 4548SOL    HW114222   1.532   7.770   5.729  1.0578  0.1817  1.9574
 4548SOL    HW214223   1.544   7.908   5.790  0.6490  1.4691 -0.7471
 4549SOL     OW14224   0.030   4.663   3.649  0.3657  0.0163 -0.1310
 4549SOL    HW114225   0.097   4.652   3.717 -0.7716 -2.7114  0.7151
 4549SOL    HW214226   0.011   4.573   3.621 -0.1701  0.9702 -3.1556
 4550SOL     OW14227   3.049   5.950   9.408 -0.2400  0.1306  0.3832
 4550SOL    HW114228   3.051   5.933   9.502 -0.5946 -2.6323 -0.0305
 4550SOL    HW214229   2.956   5.947   9.385 -0.0354 -3.4411 -0.5968
 4551SOL     OW14230   2.410   9.965   8.509 -0.9548  0.2413 -0.4262
 4551SOL    HW114231   2.329   9.964   8.458 -0.7207  2.2450 -0.8950
 4551SOL    HW214232   2.478   9.936   8.448 -0.7026  2.4679 -1.2715
 4552SOL     OW14233   7.567   2.881   0.813  0.3517 -0.3340  0.0166
 4552SOL    HW114234   7.569   2.939   0.890 -1.3783 -0.2686  0.0478
 4552SOL    HW214235   7.541   2.796   0.848  0.0342 -0.4213 -0.4278
 4553SOL     OW14236   5.448   4.278   8.592 -0.3449  0.0672 -0.1118
 4553SOL    HW114237   5.391   4.283   8.515  0.5532  0.2774 -0.7792
 4553SOL    HW214238   5.409   4.340   8.654 -1.1778 -0.2313 -0.3231
 4554SOL     OW14239   9.574   9.408   4.013  0.0481 -0.4518 -0.3848
 4554SOL    HW114240   9.656   9.387   3.969  0.8014  0.2176  0.6703
 4554SOL    HW214241   9.514   9.338   3.986  1.2111 -1.4525 -0.4628
 4555SOL     OW14242   2.776   4.579   5.551  0.4170 -0.2870  0.4538
 4555SOL    HW114243   2.740   4.492   5.568 -0.0585  0.1308  1.7078
 4555SOL    HW214244   2.866   4.574   5.582  0.4362 -0.3790  0.3828
 4556SOL     OW14245   6.660   7.925   0.887 -0.2666 -0.1320 -0.3620
 4556SOL    HW114246   6.694   7.844   0.848  0.3483  0.6819 -1.5808
 4556SOL    HW214247   6.713   7.995   0.848 -1.8323  1.0010 -0.5728
 4557SOL     OW14248   5.628   3.745   9.158  0.0541 -0.1557  0.3654
 4557SOL    HW114249   5.586   3.776   9.238  0.2485 -1.0443  0.8291
 4557SOL    HW214250   5.696   3.810   9.140 -0.9263  0.8226  0.0988
 4558SOL     OW14251   8.665   1.521   2.903 -0.0803 -0.1479 -0.3816
 4558SOL    HW114252   8.578   1.486   2.886  0.0750 -0.2362 -1.0104
 4558SOL    HW214253   8.722   1.444   2.912  0.0476 -0.0769 -0.5832
 4559SOL     OW14254   0.320   8.752   9.502 -0.4029  0.1480 -0.0571
 4559SOL    HW114255   0.408   8.790   9.509 -0.7737  1.5616 -2.1037
 4559SOL    HW214256   0.333   8.670   9.453 -0.2561  0.6071 -0.8053
 4560SOL     OW14257   8.911   8.039   3.384 -0.9033 -0.1679  0.6436
 4560SOL    HW114258   8.914   7.961   3.439  0.6210  0.2614  1.2311
 4560SOL    HW214259   8.930   8.111   3.444 -0.8685  0.4925 -0.1486
 4561SOL     OW14260   1.530   4.745   0.915 -0.7010  0.5015  0.1569
 4561SOL    HW114261   1.582   4.685   0.861 -1.6963 -1.3108  1.1008
 4561SOL    HW214262   1.594   4.808   0.949  0.6745 -0.8985  0.2998
 4562SOL     OW14263   3.360   5.868   2.213 -0.1442  0.2382 -0.9000
 4562SOL    HW114264   3.380   5.899   2.301 -1.3978 -1.7776  0.1562
 4562SOL    HW214265   3.378   5.944   2.157 -0.0478  1.8328  1.1519
 4563SOL     OW14266   5.151   0.931   4.599  0.5044 -0.0126  0.2455
 4563SOL    HW114267   5.200   0.854   4.569  0.2999 -0.6406  1.4472
 4563SOL    HW214268   5.143   0.918   4.694 -2.2942 -0.1535  0.0776
 4564SOL     OW14269   7.604   1.960   3.729  0.1068  0.1201 -0.1087
 4564SOL    HW114270   7.639   2.018   3.797  1.4022 -0.9284  0.1633
 4564SOL    HW214271   7.518   1.935   3.761 -0.6187  2.1166 -0.3871
 4565SOL     OW14272   0.579   6.057   2.422  1.1578  0.3485  0.3652
 4565SOL    HW114273   0.671   6.083   2.418  0.9713  1.0437 -2.9859
 4565SOL    HW214274   0.568   5.997   2.348 -1.0792  0.3582  0.6132
 4566SOL     OW14275   8.472   7.976   3.497  0.1803 -0.0854 -0.4256
 4566SOL    HW114276   8.525   7.911   3.449 -0.6392 -0.5280 -0.7434
 4566SOL    HW214277   8.382   7.946   3.487 -0.0217 -0.1673  1.3863
 4567SOL     OW14278   3.579   4.070   9.638 -0.3021 -0.1446 -0.2291
 4567SOL    HW114279   3.633   4.022   9.701  0.5912  0.4455 -0.5273
 4567SOL    HW214280   3.524   4.002   9.599  1.2096 -1.0406 -0.9267
 4568SOL     OW14281   0.719   4.952   0.664  0.6453  0.1622 -0.2874
 4568SOL    HW114282   0.810   4.980   0.678  0.4376  1.2232 -0.9666
 4568SOL    HW214283   0.675   4.976   0.745  0.7780  0.5083 -0.3144
 4569SOL     OW14284   5.499   9.176   3.088  0.0273  0.0795  0.3421
 4569SOL    HW114285   5.540   9.257   3.116 -0.3896 -0.0685  1.4090
 4569SOL    HW214286   5.405   9.194   3.092 -0.0611  0.0935 -1.1067
 4570SOL     OW14287   0.144   0.413   5.233  0.1246 -0.5379  0.2497
 4570SOL    HW114288   0.184   0.398   5.319  2.6210 -0.4766 -0.8162
 4570SOL    HW214289   0.116   0.325   5.205  0.1333 -0.6998  0.7301
 4571SOL     OW14290   6.413   2.475   4.868  0.5026  0.2757  0.2313
 4571SOL    HW114291   6.342   2.535   4.848  1.0712  0.7851 -0.3003
 4571SOL    HW214292   6.430   2.487   4.962 -0.5940 -0.3984  0.5423
 4572SOL     OW14293   7.770   8.932   5.748 -0.1311 -0.1674 -0.3770
 4572SOL    HW114294   7.799   8.843   5.766  3.1481  0.9587  0.8133
 4572SOL    HW214295   7.680   8.936   5.779  0.2278 -2.6025  1.1850
 4573SOL     OW14296   0.363   9.026   9.331  0.2806 -0.0355  0.2689
 4573SOL    HW114297   0.389   8.973   9.256  1.0878  0.7699 -0.0259
 4573SOL    HW214298   0.444   9.042   9.379  0.1365  1.3949  0.0573
 4574SOL     OW14299   9.794   3.004   8.033  0.4543 -0.3396 -0.3755
 4574SOL    HW114300   9.859   2.992   7.964  0.4698 -4.1774  0.1145
 4574SOL    HW214301   9.842   3.046   8.104  0.8990  1.9262 -1.8991
 4575SOL     OW14302   2.726   2.208   6.710 -0.5075 -0.2403  0.5851
 4575SOL    HW114303   2.816   2.225   6.680  0.0073  2.5506  3.1455
 4575SOL    HW214304   2.731   2.123   6.754  2.0266  1.4274  4.0000
 4576SOL     OW14305   2.600   1.322   4.562 -0.1088  0.2575 -0.2750
 4576SOL    HW114306   2.669   1.257   4.556 -0.4975 -0.2538  0.5301
 4576SOL    HW214307   2.545   1.292   4.635 -0.7306  1.0698 -0.3891
 4577SOL     OW14308   3.123   1.631   6.076  0.5382 -1.0526  0.0293
 4577SOL    HW114309   3.079   1.568   6.019 -2.0612  0.0554  0.6711
 4577SOL    HW214310   3.120   1.713   6.026  0.0622 -0.5272  0.9079
 4578SOL     OW14311   9.928   3.116   3.553 -0.4681 -0.1703  0.6823
 4578SOL    HW114312   9.855   3.167   3.588  0.0815  0.6279  0.6971
 4578SOL    HW214313  10.003   3.144   3.605 -0.3877 -2.0176  1.6250
 4579SOL     OW14314   6.568   4.446   6.536 -0.2933 -0.1787  0.6127
 4579SOL    HW114315   6.595   4.426   6.626 -0.6329  0.5223  0.8788
 4579SOL    HW214316   6.651   4.455   6.489  0.0258  2.3580  1.5166
 4580SOL     OW14317   6.660   5.255   3.564 -0.0901 -0.2745 -0.0722
 4580SOL    HW114318   6.643   5.193   3.493  0.5532  1.5871 -1.9609
 4580SOL    HW214319   6.622   5.214   3.641  0.1571 -2.9235 -1.2326
 4581SOL     OW14320   5.142   3.404   5.016 -0.1289 -0.2086  0.8762
 4581SOL    HW114321   5.116   3.330   4.962 -0.1369 -0.0407  0.6451
 4581SOL    HW214322   5.203   3.368   5.081  2.1662  0.0455 -0.9959
 4582SOL     OW14323   3.485   5.722   3.338 -0.2812 -0.2535 -0.0271
 4582SOL    HW114324   3.430   5.735   3.261 -0.1649 -1.8060 -0.4007
 4582SOL    HW214325   3.574   5.740   3.307  0.0244 -2.8209 -0.8554
 4583SOL     OW14326   7.256   3.544   4.792  0.3709 -0.1771 -0.0480
 4583SOL    HW114327   7.296   3.551   4.706  0.5435  0.9533  0.1038
 4583SOL    HW214328   7.178   3.600   4.787 -0.6119 -1.4949 -0.0077
 4584SOL     OW14329   4.074   5.352   4.609  0.2267 -0.7064  0.4484
 4584SOL    HW114330   4.073   5.298   4.688  0.9574  0.1766  1.0775
 4584SOL    HW214331   4.066   5.289   4.537 -2.3403 -1.4161  1.2403
 4585SOL     OW14332   8.830   8.440   1.827 -0.3985 -0.1091  0.1573
 4585SOL    HW114333   8.925   8.447   1.819 -0.0577  0.5903  3.3903
 4585SOL    HW214334   8.795   8.493   1.755  1.7053  1.6141  0.3266
 4586SOL     OW14335   7.667   1.664   2.059 -0.2801 -0.7305 -0.0883
 4586SOL    HW114336   7.576   1.691   2.070 -0.0208  0.8888 -1.6156
 4586SOL    HW214337   7.712   1.700   2.135 -1.0700 -2.7030  1.4243
 4587SOL     OW14338   2.243   1.426   9.271  0.9103 -0.4910  0.2510
 4587SOL    HW114339   2.171   1.363   9.281 -0.0499  0.5245 -0.0072
 4587SOL    HW214340   2.297   1.412   9.349  0.3361 -1.1675  0.5459
 4588SOL     OW14341   4.472   1.774   6.871  0.2219 -0.2890 -0.3962
 4588SOL    HW114342   4.435   1.820   6.796 -0.1919  0.6025  0.3400
 4588SOL    HW214343   4.508   1.694   6.834  3.0330  1.5904 -2.1481
 4589SOL     OW14344   7.947   2.054   9.414  0.3735 -0.5818  0.3691
 4589SOL    HW114345   7.940   2.122   9.346  0.1863 -0.7549  0.2148
 4589SOL    HW214346   8.003   1.987   9.375  1.1048 -0.2125  0.7743
 4590SOL     OW14347   6.449   4.445   5.171  0.6206 -0.3676 -0.1044
 4590SOL    HW114348   6.417   4.361   5.203  0.2731 -0.2798 -0.2238
 4590SOL    HW214349   6.388   4.510   5.206  2.2432  0.1139  2.0673
 4591SOL     OW14350   4.948   9.316   2.897  0.0379  0.2277  0.2927
 4591SOL    HW114351   4.901   9.274   2.969  1.5484  3.3367  3.3809
 4591SOL    HW214352   4.879   9.342   2.835 -1.8695  1.0801  2.6414
 4592SOL     OW14353   7.024   5.086   9.123 -0.0559  0.0656  0.1472
 4592SOL    HW114354   6.977   5.041   9.053  0.0558 -0.9934  0.7357
 4592SOL    HW214355   7.037   5.175   9.090 -1.4400  0.0538 -0.5087
 4593SOL     OW14356   1.247   2.963   8.240 -0.2576  0.0982 -0.6034
 4593SOL    HW114357   1.187   2.992   8.171  0.2016 -0.3674 -1.1983
 4593SOL    HW214358   1.270   2.873   8.217  1.1843  0.4811 -0.7378
 4594SOL     OW14359   1.577   4.802   3.436  0.3709  0.0150 -1.0120
 4594SOL    HW114360   1.550   4.881   3.483  1.7412  0.6958 -1.3391
 4594SOL    HW214361   1.604   4.833   3.350  1.7983 -0.6636 -0.8351
 4595SOL     OW14362   7.467   2.100   5.169 -0.3452 -0.0455  0.2998
 4595SOL    HW114363   7.508   2.149   5.240  0.4573  0.4503 -0.4788
 4595SOL    HW214364   7.395   2.054   5.210  0.8691 -0.7924  1.6983
 4596SOL     OW14365   6.965   0.981   4.592 -0.5542 -0.3908 -0.5044
 4596SOL    HW114366   6.925   0.983   4.678  0.8228 -1.6709  0.2144
 4596SOL    HW214367   7.055   0.952   4.608  0.6026  1.9657 -2.0759
 4597SOL     OW14368   9.002   2.846   2.135  0.1325 -0.0661  0.2908
 4597SOL    HW114369   9.061   2.790   2.085 -1.0002 -0.4569 -0.6423
 4597SOL    HW214370   8.997   2.805   2.221  1.3465  0.0792  0.4442
 4598SOL     OW14371   0.974   7.093   2.581 -0.4388  0.2580  0.3643
 4598SOL    HW114372   0.933   7.006   2.582 -2.9988  1.3731 -0.6890
 4598SOL    HW214373   1.029   7.092   2.503 -0.9769 -0.2062 -0.0176
 4599SOL     OW14374   6.429   2.995   3.736 -0.0417 -0.4567  0.7334
 4599SOL    HW114375   6.505   3.010   3.793 -0.3326  1.7151  0.6520
 4599SOL    HW214376   6.434   2.903   3.713  0.5893 -1.2408  3.5632
 4600SOL     OW14377   8.440   4.630   5.228 -0.0479 -0.0293 -0.5814
 4600SOL    HW114378   8.446   4.597   5.317 -2.1452 -0.6609 -0.6164
 4600SOL    HW214379   8.526   4.666   5.209  0.2570  0.6698  1.9000
 4601SOL     OW14380   5.097   7.124   6.967 -0.6305  0.1314 -0.7982
 4601SOL    HW114381   5.101   7.039   6.923 -1.5689 -0.6582  0.5980
 4601SOL    HW214382   5.013   7.124   7.012 -0.7128  1.8776 -0.8909
 4602SOL     OW14383   8.019   1.710   0.820  0.0969 -0.0794  0.6551
 4602SOL    HW114384   7.971   1.743   0.896 -1.0499  0.0791 -0.1205
 4602SOL    HW214385   7.984   1.621   0.808 -0.1250  0.0973 -0.0092
 4603SOL     OW14386   8.251   5.099   9.898 -0.0069 -0.2532  0.5478
 4603SOL    HW114387   8.325   5.094   9.837  0.5739 -0.3339  1.2458
 4603SOL    HW214388   8.199   5.174   9.867 -0.3843 -1.0294 -0.7563
 4604SOL     OW14389   1.598   3.323   4.170  0.6245  0.1279  0.3167
 4604SOL    HW114390   1.515   3.282   4.143  0.7584  0.6997 -1.0074
 4604SOL    HW214391   1.577   3.416   4.176  0.9218  0.1535  0.9997
 4605SOL     OW14392   4.992   3.258   5.826 -0.6504  0.3129  0.0933
 4605SOL    HW114393   5.085   3.278   5.837 -1.0215  1.2327  1.9013
 4605SOL    HW214394   4.953   3.278   5.911 -2.3581 -0.9470 -0.3381
 4606SOL     OW14395   8.693   7.922   5.810 -0.8327  0.7173  0.5718
 4606SOL    HW114396   8.711   7.881   5.895 -0.9050 -0.2882  0.1180
 4606SOL    HW214397   8.607   7.889   5.785  0.0812 -0.7931 -0.8789
 4607SOL     OW14398   2.974   6.497   4.409 -0.7882 -0.2008 -0.3071
 4607SOL    HW114399   2.991   6.427   4.472 -2.1287  0.3108  0.6794
 4607SOL    HW214400   2.883   6.484   4.382 -1.8070  2.2663  1.4699
 4608SOL     OW14401   4.199   4.491   7.964 -0.1816 -0.1126 -0.4253
 4608SOL    HW114402   4.186   4.398   7.945 -1.4223 -0.3664  1.4367
 4608SOL    HW214403   4.264   4.492   8.035 -1.0720  0.3369  0.4142
 4609SOL     OW14404   8.444   9.410   9.107 -0.2309 -0.0318 -0.8259
 4609SOL    HW114405   8.509   9.427   9.175  0.3780 -1.0896 -1.1264
 4609SOL    HW214406   8.411   9.497   9.084 -1.0574  0.2794  1.3807
 4610SOL     OW14407   8.423   0.844   5.529  0.2753  0.2097 -0.3218
 4610SOL    HW114408   8.414   0.881   5.441 -0.1975  0.6496 -0.0941
 4610SOL    HW214409   8.482   0.904   5.575  2.1294 -1.0733 -0.9122
 4611SOL     OW14410   1.051   7.667   5.102  0.3715 -0.4301  0.5674
 4611SOL    HW114411   1.140   7.651   5.132  0.3391 -0.4983  0.6259
 4611SOL    HW214412   1.042   7.614   5.023  0.5241 -0.0953  0.3221
 4612SOL     OW14413   8.543   3.460   0.635  0.7816  0.1899  0.4130
 4612SOL    HW114414   8.597   3.539   0.640  1.5611 -0.3467  0.7148
 4612SOL    HW214415   8.589   3.403   0.574 -0.7818  0.6940 -1.3030
 4613SOL     OW14416   5.086   5.979   2.835  0.1789 -0.4159  0.3899
 4613SOL    HW114417   5.172   6.006   2.805  1.0348 -2.6559  0.6404
 4613SOL    HW214418   5.093   5.973   2.930 -0.5685  0.3440  0.5078
 4614SOL     OW14419   1.092   0.561   7.092  0.2075  0.1793  0.6589
 4614SOL    HW114420   1.097   0.471   7.059  1.2287  0.7438 -0.8365
 4614SOL    HW214421   1.177   0.576   7.132  0.4726  0.8442 -0.1336
 4615SOL     OW14422   3.487   2.322   3.080  0.0469 -0.3374 -0.4156
 4615SOL    HW114423   3.521   2.263   3.012  1.5336 -1.2118  1.0041
 4615SOL    HW214424   3.417   2.272   3.122 -0.1719 -0.2040 -0.6162
 4616SOL     OW14425   7.124   2.601   2.308 -0.0671  0.3481 -0.5784
 4616SOL    HW114426   7.086   2.515   2.324  0.9562 -0.2945 -1.4310
 4616SOL    HW214427   7.218   2.589   2.320  0.1551  1.1995 -1.2871
 4617SOL     OW14428   3.475   6.193   0.978  0.1727 -0.0564 -0.0318
 4617SOL    HW114429   3.523   6.149   0.908  0.4266  0.5830 -0.2694
 4617SOL    HW214430   3.536   6.258   1.012  0.3550 -0.9403  1.3711
 4618SOL     OW14431   8.149   2.352   3.148 -0.6835  0.8948 -0.1435
 4618SOL    HW114432   8.175   2.260   3.149 -1.4937  0.6103  2.1604
 4618SOL    HW214433   8.221   2.397   3.104  0.9986 -0.5311  1.0067
 4619SOL     OW14434   1.939   4.130   7.356  0.2161  0.4242  0.3225
 4619SOL    HW114435   1.955   4.036   7.361  0.9454  0.5183 -0.1062
 4619SOL    HW214436   1.873   4.139   7.287 -0.1091  0.2055  0.6000
 4620SOL     OW14437   6.907   2.235   3.802  0.2787 -0.7072  0.2892
 4620SOL    HW114438   6.933   2.186   3.880 -0.8119  1.0426  1.8389
 4620SOL    HW214439   6.821   2.201   3.779  0.0923 -0.4195  0.5625
 4621SOL     OW14440   9.120   5.982   2.503  0.6809 -0.4219  0.1395
 4621SOL    HW114441   9.128   5.970   2.408 -1.8573 -0.2946 -0.1592
 4621SOL    HW214442   9.063   5.911   2.532 -1.7042  1.6560  0.8901
 4622SOL     OW14443   9.721   2.857   0.043  0.3317  0.7139  0.1696
 4622SOL    HW114444   9.683   2.801  -0.023 -0.7952  0.2970  1.1420
 4622SOL    HW214445   9.790   2.804   0.083  0.4779  0.6808 -0.1284
 4623SOL     OW14446   1.240   1.007   0.438  0.3255 -0.3444 -0.0845
 4623SOL    HW114447   1.284   0.992   0.355  1.7808  0.8265  0.4084
 4623SOL    HW214448   1.196   1.091   0.427  0.1318 -0.4136  0.1610
 4624SOL     OW14449   1.626   6.561   2.060  0.1342  0.2047  0.5356
 4624SOL    HW114450   1.622   6.501   1.985  1.1598 -0.5877  1.0863
 4624SOL    HW214451   1.559   6.530   2.120  0.2411 -0.0075  0.5447
 4625SOL     OW14452   7.292   3.529   7.237 -0.2052 -0.1409 -0.0315
 4625SOL    HW114453   7.199   3.505   7.234 -0.2689 -0.2801  1.8776
 4625SOL    HW214454   7.321   3.501   7.324  2.1081 -1.7386 -1.2211
 4626SOL     OW14455   4.042   5.781   4.047  0.1587 -0.1438  0.1536
 4626SOL    HW114456   3.970   5.724   4.076 -0.9647  1.0287 -0.2212
 4626SOL    HW214457   4.000   5.866   4.031  2.0084  1.2263  2.0621
 4627SOL     OW14458   9.223   3.379   6.035  0.2545  0.1523  0.2300
 4627SOL    HW114459   9.234   3.468   6.001 -0.0169  0.6113  1.3036
 4627SOL    HW214460   9.248   3.322   5.962 -2.3387  1.0508 -1.4992
 4628SOL     OW14461   3.587   2.683   0.711  0.0946  0.2895  0.2337
 4628SOL    HW114462   3.681   2.693   0.693 -0.0226  0.9793 -0.0224
 4628SOL    HW214463   3.568   2.751   0.776 -0.1734 -0.0362  0.5018
 4629SOL     OW14464   5.147   2.402   5.391  0.3159  0.3654 -0.2973
 4629SOL    HW114465   5.111   2.435   5.474  0.9072  0.6881 -0.1586
 4629SOL    HW214466   5.228   2.453   5.379  0.5341 -0.0896 -0.7775
 4630SOL     OW14467   0.406   1.868   1.916 -0.5208  0.0238  0.4016
 4630SOL    HW114468   0.387   1.943   1.972  2.4685  1.6949 -0.6212
 4630SOL    HW214469   0.447   1.804   1.974  0.2303  0.6903  0.6115
 4631SOL     OW14470   0.860   7.301   8.361  0.1960  0.0580 -0.0175
 4631SOL    HW114471   0.849   7.370   8.295 -0.3384  0.0562  0.0652
 4631SOL    HW214472   0.947   7.265   8.344  0.5155  0.8084 -0.0129
 4632SOL     OW14473   2.950   7.773   3.077 -0.1463  0.2629 -0.3283
 4632SOL    HW114474   2.871   7.827   3.068 -1.0960 -1.2337 -1.4499
 4632SOL    HW214475   2.988   7.773   2.990 -0.4825 -1.3037 -0.5038
 4633SOL     OW14476   3.291   9.225   2.743 -0.0663  0.0173 -0.1758
 4633SOL    HW114477   3.210   9.255   2.784 -0.0731 -1.7248  1.2038
 4633SOL    HW214478   3.274   9.231   2.649 -1.4252  0.6059  0.0829
 4634SOL     OW14479   7.947   2.585   1.408  0.0064 -0.5465  0.3936
 4634SOL    HW114480   7.947   2.566   1.502 -1.2448  0.5391  0.6505
 4634SOL    HW214481   7.931   2.501   1.366  0.0298 -0.9548  1.1774
 4635SOL     OW14482   2.360   3.918   0.049 -0.1459 -0.1774 -0.1109
 4635SOL    HW114483   2.293   3.910  -0.019 -0.1341  1.1239 -0.3025
 4635SOL    HW214484   2.319   3.971   0.117  1.0268  1.5888 -0.7267
 4636SOL     OW14485   9.980   8.156   9.594  0.5334 -0.1262 -0.2549
 4636SOL    HW114486   9.919   8.216   9.638  0.6134  0.3812 -0.8267
 4636SOL    HW214487   9.926   8.082   9.567  0.3704 -0.1620  0.1497
 4637SOL     OW14488   9.305   9.631   3.994  0.4815  0.2624  0.6225
 4637SOL    HW114489   9.370   9.663   3.931 -0.8903  3.1725  0.5394
 4637SOL    HW214490   9.357   9.597   4.067  2.0799 -1.2955 -1.1347
 4638SOL     OW14491   8.663   6.868   2.189  0.0806  0.2771 -0.1951
 4638SOL    HW114492   8.691   6.816   2.113 -1.0204 -0.1090 -0.3499
 4638SOL    HW214493   8.670   6.958   2.159 -0.5841  0.1222 -0.8549
 4639SOL     OW14494   9.163   2.760   3.553  0.0485 -0.2152  0.1518
 4639SOL    HW114495   9.193   2.681   3.597  1.5483  0.1740 -0.1009
 4639SOL    HW214496   9.122   2.729   3.472  0.3366 -0.7458  0.2062
 4640SOL     OW14497   7.283   0.418   3.783 -0.5892  0.0998 -0.0861
 4640SOL    HW114498   7.308   0.361   3.710 -0.5082  0.0114  0.0109
 4640SOL    HW214499   7.202   0.460   3.754  0.0821  0.9932 -0.7263
 4641SOL     OW14500   0.840   9.510   9.247  0.1013 -0.6389  0.0744
 4641SOL    HW114501   0.823   9.483   9.156 -0.2057  1.0636 -0.4077
 4641SOL    HW214502   0.760   9.490   9.294  0.2507 -1.5079 -0.0259
 4642SOL     OW14503   7.321   6.836   6.565 -0.0660 -0.3385  0.0620
 4642SOL    HW114504   7.392   6.836   6.630  0.2389 -1.5438 -0.2446
 4642SOL    HW214505   7.350   6.897   6.498  1.1684 -1.5422 -0.5456
 4643SOL     OW14506   3.437   6.631   0.932  0.4304  0.3714  0.0032
 4643SOL    HW114507   3.468   6.564   0.871 -0.5615  0.6832 -0.8580
 4643SOL    HW214508   3.440   6.588   1.018  0.9964 -0.3584 -0.3696
 4644SOL     OW14509   1.186   9.320   1.140  0.2410 -0.2176  0.1353
 4644SOL    HW114510   1.261   9.348   1.192  1.3639 -0.5450 -1.2323
 4644SOL    HW214511   1.133   9.268   1.200  1.8368 -1.1667  0.8115
 4645SOL     OW14512   0.264   6.599   9.413  0.8740 -0.0519  0.1014
 4645SOL    HW114513   0.258   6.618   9.507  1.2698 -0.0473  0.1311
 4645SOL    HW214514   0.300   6.510   9.410 -0.0307 -0.4168 -0.0396
 4646SOL     OW14515   1.700   6.716   9.521 -0.0399 -0.2947  0.0424
 4646SOL    HW114516   1.677   6.809   9.521 -1.5509 -0.6201  1.3837
 4646SOL    HW214517   1.631   6.674   9.572  1.3249 -1.9950  0.6004
 4647SOL     OW14518   6.433  -0.025   9.710 -0.6475  0.0658 -0.2462
 4647SOL    HW114519   6.395  -0.009   9.796 -1.3153 -0.3968 -0.4448
 4647SOL    HW214520   6.404   0.048   9.656 -0.7333  0.0419 -0.2327
 4648SOL     OW14521   6.847   5.226   5.048 -0.4700 -0.4080  0.0263
 4648SOL    HW114522   6.813   5.304   5.004 -0.9123 -1.5962 -1.7894
 4648SOL    HW214523   6.792   5.154   5.018  1.4235 -1.8292 -0.2519
 4649SOL     OW14524   8.196   3.211   0.950 -0.4790  0.0412  0.2142
 4649SOL    HW114525   8.237   3.204   1.036  1.1729  0.7135 -0.4702
 4649SOL    HW214526   8.225   3.132   0.903 -3.0141 -1.3948  0.8477
 4650SOL     OW14527   1.004   1.429   5.583 -0.6684 -0.2460  0.4879
 4650SOL    HW114528   0.931   1.438   5.644 -1.8097 -2.5610 -0.4269
 4650SOL    HW214529   0.980   1.486   5.509 -2.1620 -1.7323 -0.2637
 4651SOL     OW14530   3.132   5.285   6.217 -0.0872 -0.0146  0.8394
 4651SOL    HW114531   3.162   5.318   6.302  1.5899  0.3042  0.1698
 4651SOL    HW214532   3.143   5.190   6.224 -1.2807 -0.1238  1.4399
 4652SOL     OW14533   2.012   4.277   7.599  0.3320 -0.2658  0.0442
 4652SOL    HW114534   2.007   4.216   7.525  1.3928  1.2131 -1.3033
 4652SOL    HW214535   2.104   4.303   7.602 -0.0110  0.9137  0.8949
 4653SOL     OW14536   0.054   2.857   8.460 -0.2867  0.0608  0.2956
 4653SOL    HW114537   0.044   2.893   8.549 -0.5491  0.8829 -0.0614
 4653SOL    HW214538  -0.030   2.873   8.418 -0.6755 -1.6419  0.3426
 4654SOL     OW14539   7.558   6.171   3.063  0.0217  0.4621 -0.4796
 4654SOL    HW114540   7.587   6.126   3.142 -1.4069 -1.2186 -0.8565
 4654SOL    HW214541   7.573   6.264   3.081  1.3477 -0.0123  1.0479
 4655SOL     OW14542   8.555   5.009   9.963  0.4129  0.2237 -0.3383
 4655SOL    HW114543   8.600   4.929   9.937  0.4499 -0.2745  1.1422
 4655SOL    HW214544   8.463   4.992   9.945  0.5260  0.2373 -0.9425
 4656SOL     OW14545   0.857   7.475   5.702  0.1091  0.6029 -0.1949
 4656SOL    HW114546   0.889   7.544   5.760  0.4184  0.8067 -0.5936
 4656SOL    HW214547   0.901   7.396   5.732 -1.4038  0.2580  1.2304
 4657SOL     OW14548   6.811   0.109   7.207  0.0526 -0.3599  0.3441
 4657SOL    HW114549   6.824   0.014   7.196 -0.3887 -0.4291  0.4147
 4657SOL    HW214550   6.899   0.146   7.197 -0.1634 -0.4232 -3.2623
 4658SOL     OW14551   8.436   3.202   1.841  0.1735  0.2438  0.6720
 4658SOL    HW114552   8.365   3.164   1.892 -1.0424  0.1344 -0.9916
 4658SOL    HW214553   8.404   3.288   1.816  1.6045  1.1469  1.7776
 4659SOL     OW14554   2.274   1.897   7.337  0.2000 -0.4181  0.3849
 4659SOL    HW114555   2.250   1.823   7.281 -2.0345  1.4162 -1.2339
 4659SOL    HW214556   2.335   1.948   7.284  1.7507 -1.0097  1.5069
 4660SOL     OW14557   2.628   2.947   4.899 -0.0012  0.0120  0.3849
 4660SOL    HW114558   2.623   3.039   4.925 -0.6345 -0.0210  0.3741
 4660SOL    HW214559   2.668   2.903   4.975 -4.0310 -0.5150  2.4755
 4661SOL     OW14560   1.239   8.617   0.282 -0.7032 -0.0808 -0.7216
 4661SOL    HW114561   1.277   8.701   0.306  1.1566 -0.6781 -1.4508
 4661SOL    HW214562   1.306   8.553   0.304 -1.5421 -1.2588 -1.4699
 4662SOL     OW14563   6.555   6.228   2.883 -0.2001  0.0386 -0.0024
 4662SOL    HW114564   6.651   6.235   2.884 -0.1867 -0.1744  0.6544
 4662SOL    HW214565   6.533   6.206   2.793  0.3676  0.1258 -0.1644
 4663SOL     OW14566   8.577   6.790   4.338  0.2554 -0.2425  0.3141
 4663SOL    HW114567   8.505   6.813   4.397  0.7564 -0.5972  1.0712
 4663SOL    HW214568   8.637   6.864   4.344 -0.2282  0.2422 -0.6340
 4664SOL     OW14569   6.245   6.350   4.251 -0.0762 -0.0030 -0.0735
 4664SOL    HW114570   6.241   6.315   4.162 -0.6053 -0.5722  0.1772
 4664SOL    HW214571   6.339   6.360   4.268  0.0520 -0.5483 -0.4374
 4665SOL     OW14572   5.286   0.693   4.239  0.3594  0.0849  0.2769
 4665SOL    HW114573   5.219   0.660   4.180  0.0915 -0.4993  0.8896
 4665SOL    HW214574   5.259   0.662   4.326  0.1024  1.8917  0.8997
 4666SOL     OW14575   7.387   0.202   1.258 -0.1949  0.1026  0.4256
 4666SOL    HW114576   7.451   0.158   1.203  0.2984 -1.7675  2.3694
 4666SOL    HW214577   7.310   0.211   1.203  0.8797  0.0220 -1.1365
 4667SOL     OW14578   3.785   3.164   5.915 -0.0729 -0.4158  0.1428
 4667SOL    HW114579   3.877   3.149   5.937 -0.0615  0.0449  0.4126
 4667SOL    HW214580   3.738   3.099   5.967  0.0332 -0.0295  0.7283
 4668SOL     OW14581   6.744   5.336   3.260  0.2979 -0.3532  0.4071
 4668SOL    HW114582   6.668   5.341   3.319 -0.5034 -0.9136 -0.5450
 4668SOL    HW214583   6.743   5.245   3.229 -1.2064  0.6374 -2.8774
 4669SOL     OW14584   1.547   2.537   6.631  0.2439 -0.0616  0.5898
 4669SOL    HW114585   1.642   2.530   6.615  0.1775  0.3995 -0.0322
 4669SOL    HW214586   1.518   2.446   6.637  0.2368 -0.3491 -2.3137
 4670SOL     OW14587   6.863   0.566   4.646  0.5798  0.1562 -0.7285
 4670SOL    HW114588   6.802   0.493   4.645 -1.2401  1.6070 -1.3552
 4670SOL    HW214589   6.852   0.606   4.732 -1.1628  1.7761 -1.6170
 4671SOL     OW14590   0.339   1.034   3.413  0.7367  0.8486 -0.2926
 4671SOL    HW114591   0.395   0.985   3.473  0.4131  1.3962  0.4701
 4671SOL    HW214592   0.400   1.086   3.360  0.9770  0.9872  0.1202
 4672SOL     OW14593   9.446   8.352   6.667 -0.1390  0.7635 -0.4538
 4672SOL    HW114594   9.393   8.403   6.606 -0.6631  1.8622  0.8625
 4672SOL    HW214595   9.534   8.389   6.660 -0.1939  0.8712 -0.5701
 4673SOL     OW14596   1.150   6.384   7.739  0.8035  0.4980 -0.0325
 4673SOL    HW114597   1.244   6.379   7.725  0.7038  0.4130 -0.7046
 4673SOL    HW214598   1.112   6.346   7.659  0.2160 -0.1113  0.5205
 4674SOL     OW14599   2.637   2.773   9.649 -0.1900  0.3349  0.1960
 4674SOL    HW114600   2.602   2.739   9.567 -0.1980 -1.1057  0.7620
 4674SOL    HW214601   2.579   2.845   9.672  0.1478  1.1481 -1.3284
 4675SOL     OW14602   6.334   4.503   6.189  0.1534  0.1624  0.2246
 4675SOL    HW114603   6.354   4.535   6.277  2.0180 -1.2566  0.3769
 4675SOL    HW214604   6.244   4.470   6.195  0.5400 -0.6712  1.8421
 4676SOL     OW14605   6.713   9.409   9.689  0.4720  0.2867 -1.0410
 4676SOL    HW114606   6.625   9.395   9.724  1.3004  0.8938  1.4467
 4676SOL    HW214607   6.742   9.321   9.663 -0.6103 -0.0002 -1.3497
 4677SOL     OW14608   2.380   6.933   0.417  0.2167 -0.8077  0.0692
 4677SOL    HW114609   2.344   6.858   0.369  1.3122 -0.2504 -1.6928
 4677SOL    HW214610   2.303   6.974   0.458 -1.5491  0.9916 -4.4148
 4678SOL     OW14611   9.633   4.731   4.607  0.1233 -0.3777 -0.0989
 4678SOL    HW114612   9.591   4.645   4.600 -0.1811 -0.2903  0.5965
 4678SOL    HW214613   9.635   4.764   4.517 -1.4964 -0.3019 -0.1377
 4679SOL     OW14614   7.114   3.867   6.416 -0.2919 -0.9652  0.1926
 4679SOL    HW114615   7.074   3.876   6.503  1.8638  1.1958  1.0724
 4679SOL    HW214616   7.208   3.875   6.432  0.1557 -0.1000 -2.3859
 4680SOL     OW14617   4.398   7.426   7.320  0.1086  0.2371  0.1401
 4680SOL    HW114618   4.419   7.338   7.351  0.9024  0.5191  0.4297
 4680SOL    HW214619   4.322   7.414   7.263  0.4015 -0.6758 -0.0720
 4681SOL     OW14620   7.113   3.605   6.301 -0.3821 -0.1424  0.1171
 4681SOL    HW114621   7.165   3.640   6.228  0.0825 -0.6438  0.1964
 4681SOL    HW214622   7.102   3.679   6.360  0.0867  0.0213  0.0034
 4682SOL     OW14623   6.486   8.051   1.428 -0.2242 -0.2825  0.0626
 4682SOL    HW114624   6.543   8.050   1.351  0.7714  1.0122  0.7280
 4682SOL    HW214625   6.456   7.961   1.437  1.7748 -1.0400 -0.3013
 4683SOL     OW14626   7.408   9.890   9.029 -0.4055 -0.1238  0.5939
 4683SOL    HW114627   7.471   9.936   9.084  0.7304 -2.5149  1.4123
 4683SOL    HW214628   7.330   9.880   9.084  0.1224 -1.0152  1.2081
 4684SOL     OW14629   2.292   2.081   6.553 -0.1826  0.0909  0.0812
 4684SOL    HW114630   2.373   2.043   6.586  0.3946  0.4941 -0.8270
 4684SOL    HW214631   2.224   2.020   6.582  0.4841 -0.4713  0.5080
 4685SOL     OW14632   0.142   9.805   1.685 -0.9153 -0.2004  0.3300
 4685SOL    HW114633   0.080   9.836   1.619  0.3212  0.1735 -0.6923
 4685SOL    HW214634   0.213   9.869   1.684 -0.2963 -0.8415  1.1688
 4686SOL     OW14635   3.762   2.238   4.815 -0.0591  0.1269  0.0620
 4686SOL    HW114636   3.726   2.199   4.735  1.8166 -0.3540 -0.6092
 4686SOL    HW214637   3.792   2.325   4.786  0.1760  0.1457  0.3619
 4687SOL     OW14638   9.288   4.666   8.332  0.4182 -0.1439  0.4807
 4687SOL    HW114639   9.217   4.639   8.391 -0.5697 -0.5436 -0.8552
 4687SOL    HW214640   9.275   4.760   8.320 -0.7520 -0.4290 -0.8095
 4688SOL     OW14641   5.535   6.830   7.723  0.3933 -0.0937  0.7934
 4688SOL    HW114642   5.622   6.847   7.688  0.5450 -1.6654  0.3403
 4688SOL    HW214643   5.550   6.782   7.805 -0.0280 -1.8388 -0.1059
 4689SOL     OW14644   2.622   2.192   7.038  0.5731 -0.2979  0.0987
 4689SOL    HW114645   2.715   2.212   7.039  0.8864 -1.5928 -0.7441
 4689SOL    HW214646   2.587   2.245   6.966  0.0748  2.3749  2.1735
 4690SOL     OW14647   3.354   4.439   6.134  0.1536  0.4111  0.2831
 4690SOL    HW114648   3.381   4.374   6.069  0.5455  0.9500 -0.0997
 4690SOL    HW214649   3.326   4.387   6.209  0.4989 -0.2022 -0.0029
 4691SOL     OW14650   3.985   9.964   4.931  0.1060 -0.4139  0.3734
 4691SOL    HW114651   3.991   9.952   5.025  1.5044 -1.0013  0.2445
 4691SOL    HW214652   3.895   9.942   4.909  0.0707 -1.4239  1.4397
 4692SOL     OW14653   3.743   6.201   9.193 -0.4173  0.0087 -0.6789
 4692SOL    HW114654   3.817   6.227   9.247  0.9382 -1.0982 -1.9227
 4692SOL    HW214655   3.670   6.191   9.255  1.1100 -1.3865  0.9934
 4693SOL     OW14656   7.499   2.573   8.110  0.1965 -0.6969 -0.6510
 4693SOL    HW114657   7.413   2.571   8.069 -0.0995 -3.1592 -0.0776
 4693SOL    HW214658   7.560   2.594   8.039 -0.6332 -1.4507 -1.6031
 4694SOL     OW14659   6.109   1.720   9.132  0.4003 -0.0762 -0.3271
 4694SOL    HW114660   6.132   1.707   9.040  0.3463  3.6762 -1.0365
 4694SOL    HW214661   6.185   1.765   9.170 -0.9818  1.8315  0.3826
 4695SOL     OW14662   7.702   8.013   3.508 -0.0723  0.2049  0.7103
 4695SOL    HW114663   7.671   7.936   3.556  2.7551 -2.8668 -1.9156
 4695SOL    HW214664   7.789   8.032   3.545  0.7771 -0.1974 -1.0095
 4696SOL     OW14665   7.683   6.239   4.173  0.3779  0.5546  0.5007
 4696SOL    HW114666   7.736   6.167   4.139 -1.8961 -0.0261 -2.2106
 4696SOL    HW214667   7.718   6.317   4.131 -0.7231  0.1866 -1.1970
 4697SOL     OW14668   7.510   5.225   9.113  0.1348 -0.1877 -0.1874
 4697SOL    HW114669   7.469   5.263   9.035 -0.4079  1.9324  1.0339
 4697SOL    HW214670   7.441   5.171   9.152 -0.4806  0.8432  0.1883
 4698SOL     OW14671   7.368   6.646   4.775 -0.4387  0.1784 -0.2677
 4698SOL    HW114672   7.368   6.561   4.818 -0.1881  0.5424  0.4694
 4698SOL    HW214673   7.340   6.707   4.843 -1.9824  0.5135 -1.1702
 4699SOL     OW14674   8.162   2.896   6.075  0.1951  0.2329  0.5945
 4699SOL    HW114675   8.252   2.883   6.045  0.6439 -0.1474  2.0474
 4699SOL    HW214676   8.169   2.915   6.168 -1.2476 -0.1722  0.8268
 4700SOL     OW14677   5.996   7.230   6.219  0.2530 -0.0313  0.4101
 4700SOL    HW114678   5.949   7.237   6.135 -0.5756  1.3069  0.9630
 4700SOL    HW214679   6.087   7.214   6.194 -0.3341 -2.1464 -0.7003
 4701SOL     OW14680   7.500   7.274   4.789 -0.6858  0.1387 -0.2345
 4701SOL    HW114681   7.419   7.264   4.739 -1.0440  1.4472  0.0317
 4701SOL    HW214682   7.512   7.369   4.795  1.6015 -0.0130 -1.4198
 4702SOL     OW14683   5.046   6.166   6.136  0.0622  0.3404  0.2715
 4702SOL    HW114684   5.107   6.135   6.204  0.3660  0.1154 -0.0946
 4702SOL    HW214685   4.959   6.152   6.174  0.1484 -1.6924 -0.1508
 4703SOL     OW14686   3.986   1.915   3.737  0.1746  0.0351  0.0220
 4703SOL    HW114687   3.988   1.905   3.832 -0.5919 -1.7477 -0.1244
 4703SOL    HW214688   4.013   1.831   3.702 -1.4135  0.0259 -1.3359
 4704SOL     OW14689   7.184   5.472   4.938  0.1569 -0.3078 -0.1726
 4704SOL    HW114690   7.190   5.380   4.964 -1.2301  0.2405  2.3959
 4704SOL    HW214691   7.090   5.490   4.935  0.3897  1.5100  1.4551
 4705SOL     OW14692   4.677   2.339   5.174 -0.4189 -0.0143  0.1669
 4705SOL    HW114693   4.695   2.308   5.085  2.4055  2.3843 -0.2373
 4705SOL    HW214694   4.764   2.349   5.214 -1.3803  2.5568  1.8686
 4706SOL     OW14695   2.976   4.457   1.263  0.2539  0.2712 -0.0681
 4706SOL    HW114696   3.010   4.399   1.195  0.8086 -0.0022  0.4380
 4706SOL    HW214697   2.881   4.443   1.261  0.4045 -0.8759  0.2457
 4707SOL     OW14698   1.828   9.286   5.292 -0.0729  0.3554  0.1246
 4707SOL    HW114699   1.853   9.218   5.353 -0.4964 -0.5616 -0.6943
 4707SOL    HW214700   1.771   9.344   5.342  0.9447  0.5961  1.0575
 4708SOL     OW14701   5.140   0.459   1.185  0.0351  0.0880 -0.0373
 4708SOL    HW114702   5.223   0.426   1.151 -0.0696  0.1694 -0.3685
 4708SOL    HW214703   5.119   0.534   1.129  2.2218  3.2619  2.9342
 4709SOL     OW14704   1.393   6.436   9.389 -0.0039 -0.4390 -0.2638
 4709SOL    HW114705   1.461   6.484   9.342 -0.2241 -0.1387 -0.2858
 4709SOL    HW214706   1.426   6.428   9.478 -0.2596  0.3678 -0.0873
 4710SOL     OW14707   8.158   6.298   6.622 -0.5618  0.3626  0.2528
 4710SOL    HW114708   8.201   6.244   6.556  0.2159  1.7793 -0.4539
 4710SOL    HW214709   8.067   6.306   6.591 -1.5248 -2.7371  1.8148
 4711SOL     OW14710   1.982   0.345   6.554 -0.9294  0.5114  0.0681
 4711SOL    HW114711   1.965   0.251   6.554  1.3650  0.0224  1.2446
 4711SOL    HW214712   1.988   0.368   6.461  2.0475 -1.3060 -0.3031
 4712SOL     OW14713   6.080   0.710   3.848 -0.8976 -0.4762 -0.3568
 4712SOL    HW114714   6.159   0.698   3.900 -1.2962  0.6960  0.5796
 4712SOL    HW214715   6.093   0.793   3.802 -1.5857 -0.2374 -0.1457
 4713SOL     OW14716   8.971   4.290   8.742 -0.2697  0.4418 -0.7633
 4713SOL    HW114717   8.945   4.204   8.710 -1.0898  0.2996  0.2663
 4713SOL    HW214718   9.042   4.273   8.804 -0.8055  0.4451 -0.1353
 4714SOL     OW14719   9.380   1.832   9.013 -0.8964 -0.4581 -0.1293
 4714SOL    HW114720   9.325   1.753   9.014 -2.9554  0.8932  1.1284
 4714SOL    HW214721   9.428   1.827   8.930 -2.1810 -2.2126 -0.8245
 4715SOL     OW14722   7.334   8.460   7.626  0.2373 -0.0786  0.1641
 4715SOL    HW114723   7.365   8.412   7.549  1.5616 -1.2329  1.3610
 4715SOL    HW214724   7.358   8.551   7.609 -1.5117  0.1111 -1.7487
 4716SOL     OW14725   4.392   1.179   1.522 -0.1399  0.2035  0.1770
 4716SOL    HW114726   4.363   1.093   1.493  0.6582  0.0797 -0.2968
 4716SOL    HW214727   4.480   1.164   1.557  0.2890  0.9408 -0.5633
 4717SOL     OW14728   6.247   3.815   0.429  0.7761  0.1607  0.0406
 4717SOL    HW114729   6.340   3.809   0.408  1.5054  1.1894  2.5607
 4717SOL    HW214730   6.244   3.871   0.507 -1.8326 -0.8883  0.8009
 4718SOL     OW14731   1.977   9.874   2.820 -1.1307  0.0224  0.2261
 4718SOL    HW114732   2.042   9.817   2.779  0.4643  2.2215 -0.5080
 4718SOL    HW214733   1.898   9.863   2.768 -0.0338  0.4863 -1.6490
 4719SOL     OW14734   7.436   8.576   8.959  0.3726  0.1772  0.2564
 4719SOL    HW114735   7.458   8.663   8.991 -1.4026  1.8958 -2.7230
 4719SOL    HW214736   7.514   8.547   8.912  0.3117  1.0657 -0.4142
 4720SOL     OW14737   5.330   6.767   4.324  0.1989  0.4133  0.6287
 4720SOL    HW114738   5.355   6.859   4.333 -0.6342  0.5870  1.3145
 4720SOL    HW214739   5.377   6.737   4.246  1.5147  1.0565  1.1367
 4721SOL     OW14740   6.224   2.313   6.377  0.5509  0.2919 -0.3164
 4721SOL    HW114741   6.311   2.287   6.409 -0.0282 -0.9317  0.3270
 4721SOL    HW214742   6.230   2.304   6.281  0.9320 -0.4765 -0.2305
 4722SOL     OW14743   9.418   9.364   6.829 -0.4191  0.4789 -0.1636
 4722SOL    HW114744   9.477   9.295   6.798  0.3358  0.8632  0.3868
 4722SOL    HW214745   9.373   9.395   6.750 -0.5705 -0.4527 -0.4519
 4723SOL     OW14746   9.846   5.670   1.164  0.1835  0.2666 -0.4152
 4723SOL    HW114747   9.815   5.648   1.251 -2.4664  3.1771 -0.4436
 4723SOL    HW214748   9.828   5.591   1.112 -1.0650 -0.4645  1.0269
 4724SOL     OW14749   8.066   5.308   1.825 -0.4581 -0.0186 -0.6222
 4724SOL    HW114750   8.151   5.263   1.821 -0.0307  0.8086 -1.1689
 4724SOL    HW214751   8.020   5.280   1.746 -0.3885  0.1205 -0.7123
 4725SOL     OW14752   0.676   3.281   0.040  0.3565 -0.3882  0.3543
 4725SOL    HW114753   0.623   3.223  -0.015 -0.8152 -0.4619  1.5199
 4725SOL    HW214754   0.731   3.221   0.090  1.5571 -0.3140 -0.8079
 4726SOL     OW14755   5.419   3.395   6.161  0.1027  0.0600  0.4972
 4726SOL    HW114756   5.376   3.481   6.158  1.2196  0.6214  0.0587
 4726SOL    HW214757   5.470   3.391   6.080 -0.6044 -1.3870  0.0918
 4727SOL     OW14758   7.618   9.322   8.756 -0.3792 -0.1375  0.6068
 4727SOL    HW114759   7.651   9.345   8.843 -0.1902  1.9582  0.0428
 4727SOL    HW214760   7.639   9.398   8.701 -1.1205 -1.1033 -1.1165
 4728SOL     OW14761   4.327   3.460   2.531 -1.2539  0.6419 -0.9717
 4728SOL    HW114762   4.416   3.495   2.535 -0.9659 -0.0864 -0.7087
 4728SOL    HW214763   4.340   3.367   2.512 -1.8716  0.1127  1.0070
 4729SOL     OW14764   7.084   1.608   7.868 -0.1939  0.0658 -0.4343
 4729SOL    HW114765   7.035   1.565   7.938  0.5431  1.3810  0.9338
 4729SOL    HW214766   7.142   1.540   7.833 -1.3133 -0.8778 -0.5138
 4730SOL     OW14767   3.036   8.719   3.170 -0.8802  0.1241 -0.0416
 4730SOL    HW114768   2.988   8.654   3.221  1.3831 -2.4063 -0.8634
 4730SOL    HW214769   3.106   8.748   3.228 -0.6279  0.1949 -0.3756
 4731SOL     OW14770   4.829   5.919   4.962  0.5816  0.4750  0.3363
 4731SOL    HW114771   4.783   5.836   4.976  2.2198 -0.1090  3.1279
 4731SOL    HW214772   4.766   5.975   4.917 -1.8275 -1.1479  1.5038
 4732SOL     OW14773   9.944   2.888   2.466 -0.3317  0.9381 -0.0485
 4732SOL    HW114774   9.880   2.898   2.395  0.6305  2.2140 -0.7685
 4732SOL    HW214775   9.988   2.805   2.447 -0.5177  0.9534 -0.5746
 4733SOL     OW14776   0.468   3.550   5.511 -0.3040 -0.0685 -0.0557
 4733SOL    HW114777   0.408   3.573   5.581 -1.6738  0.4473 -1.3429
 4733SOL    HW214778   0.492   3.459   5.529 -3.2350 -1.0677 -0.6522
 4734SOL     OW14779   7.438   2.043   7.964 -0.1642 -0.5188 -0.1300
 4734SOL    HW114780   7.447   1.973   7.900  2.0353 -1.7607  1.3991
 4734SOL    HW214781   7.474   2.120   7.922 -0.3577 -0.8744 -0.9693
 4735SOL     OW14782   6.461   9.242   1.388  0.3567 -0.3486 -0.7280
 4735SOL    HW114783   6.487   9.293   1.311  0.6534 -0.7924 -0.9291
 4735SOL    HW214784   6.539   9.243   1.445 -0.5354  1.7811  0.5776
 4736SOL     OW14785   0.703   2.719   5.989  0.3021 -0.2972  0.2334
 4736SOL    HW114786   0.678   2.786   5.926 -1.3202 -0.5668  0.5506
 4736SOL    HW214787   0.711   2.639   5.938 -0.9513 -0.5030  0.3210
 4737SOL     OW14788   7.954   9.284   8.362 -0.4400  0.3186  0.1015
 4737SOL    HW114789   7.875   9.233   8.342 -0.6366 -0.1072  1.7822
 4737SOL    HW214790   8.019   9.218   8.385  0.0523  0.7304 -0.0920
 4738SOL     OW14791   4.064   2.528   1.826  0.3754 -0.6573  0.1769
 4738SOL    HW114792   3.998   2.459   1.832  0.6900 -1.2422 -2.1778
 4738SOL    HW214793   4.017   2.608   1.849 -0.7180 -1.2973  0.2521
 4739SOL     OW14794   2.869   1.930   3.212  0.4562  0.1127 -0.0618
 4739SOL    HW114795   2.925   1.880   3.271 -0.0538  0.0252  0.3616
 4739SOL    HW214796   2.850   2.011   3.259 -0.7051 -0.3493  0.3095
 4740SOL     OW14797   5.975   1.117   7.338 -0.1867  0.8998  0.5349
 4740SOL    HW114798   5.919   1.118   7.416 -1.8524 -3.5161 -0.2927
 4740SOL    HW214799   6.062   1.095   7.371 -0.7363 -0.2525  1.2857
 4741SOL     OW14800   4.877   4.777   7.569  0.0039  0.1845  0.4877
 4741SOL    HW114801   4.907   4.688   7.588  1.1993  0.3176 -0.6362
 4741SOL    HW214802   4.878   4.821   7.654  1.1190 -0.3941  0.7978
 4742SOL     OW14803   4.040   4.771   9.568  0.0296  0.0829  0.0543
 4742SOL    HW114804   4.059   4.861   9.542  0.4330  0.0219  0.1304
 4742SOL    HW214805   4.125   4.734   9.591 -0.2539  0.0135  1.0788
 4743SOL     OW14806   2.741   5.602   8.254 -0.6299  0.0073 -0.2591
 4743SOL    HW114807   2.731   5.599   8.349 -1.5261  2.7205 -0.1941
 4743SOL    HW214808   2.662   5.645   8.222  0.0604 -0.0213 -2.1755
 4744SOL     OW14809   1.622   3.719   1.153  0.0237  0.0292  0.4960
 4744SOL    HW114810   1.707   3.711   1.197  0.0413  0.0729  0.4689
 4744SOL    HW214811   1.615   3.639   1.101 -0.4897 -0.5740  1.4423
 4745SOL     OW14812   7.771   9.145   8.202 -0.3691 -0.5033 -0.6225
 4745SOL    HW114813   7.740   9.209   8.138  1.4423 -0.4396 -1.5131
 4745SOL    HW214814   7.705   9.076   8.202 -1.3612  0.4227 -1.1189
 4746SOL     OW14815   0.872   0.793   4.250  0.1294 -0.0526 -0.0157
 4746SOL    HW114816   0.922   0.874   4.241  1.6946 -1.1419 -1.9355
 4746SOL    HW214817   0.797   0.804   4.191 -0.6009  0.5928  0.9844
 4747SOL     OW14818   8.179   7.850   7.039  0.0709  0.2488 -0.5526
 4747SOL    HW114819   8.232   7.854   7.119  1.4846 -0.0772 -1.4334
 4747SOL    HW214820   8.102   7.903   7.059 -0.5616 -1.3624  1.6834
 4748SOL     OW14821   0.541   5.717   0.432  0.7362  0.3618 -0.4705
 4748SOL    HW114822   0.553   5.742   0.523 -0.5611 -0.2123 -0.1136
 4748SOL    HW214823   0.448   5.731   0.415 -0.2829 -4.2211 -0.1165
 4749SOL     OW14824   7.266   2.219   7.261  0.7645  0.4502  0.1646
 4749SOL    HW114825   7.228   2.225   7.173  1.4377  0.0951 -0.1601
 4749SOL    HW214826   7.307   2.304   7.275 -0.8187  1.1435  0.8551
 4750SOL     OW14827   6.390   7.686   5.891  0.8084  0.2322 -0.1406
 4750SOL    HW114828   6.469   7.683   5.944  2.2968 -1.8767 -2.2648
 4750SOL    HW214829   6.421   7.685   5.800 -1.6368 -0.7284 -1.0631
 4751SOL     OW14830   7.645   7.972   8.738  0.1702  0.4620  0.0794
 4751SOL    HW114831   7.578   7.957   8.671  1.4052 -0.6002 -0.9760
 4751SOL    HW214832   7.652   8.067   8.744 -3.1880  0.7514  2.1013
 4752SOL     OW14833   0.853   7.796   5.785 -0.1013 -0.4274 -0.3000
 4752SOL    HW114834   0.832   7.880   5.745  2.3250  0.9802  1.1094
 4752SOL    HW214835   0.774   7.772   5.834 -0.2258  2.0770  0.8908
 4753SOL     OW14836   2.438   0.753   2.279  0.6911  0.3958  0.0093
 4753SOL    HW114837   2.381   0.767   2.203  0.5355  0.7579  0.1885
 4753SOL    HW214838   2.484   0.836   2.290  0.1912  0.5951  0.7379
 4754SOL     OW14839   0.924   1.426   0.949  0.1914 -0.2283  0.0634
 4754SOL    HW114840   0.936   1.360   0.881 -0.6974 -0.4977  0.1542
 4754SOL    HW214841   0.940   1.379   1.031  0.9762  0.0258  0.0608
 4755SOL     OW14842   2.683   8.466   7.354 -0.3632  0.1953 -0.4150
 4755SOL    HW114843   2.615   8.488   7.291  0.5377  0.5286 -1.3044
 4755SOL    HW214844   2.739   8.544   7.356  0.7461 -0.5741 -0.7223
 4756SOL     OW14845   5.873   0.326   8.393 -0.0391 -0.2894  0.3402
 4756SOL    HW114846   5.950   0.379   8.372 -0.4436  0.3938  0.5462
 4756SOL    HW214847   5.818   0.332   8.314 -0.4256  0.2263  0.6411
 4757SOL     OW14848   8.013   8.092   6.473 -0.2102 -0.0376 -0.3574
 4757SOL    HW114849   8.068   8.158   6.515 -1.3340  1.1784 -0.7239
 4757SOL    HW214850   8.059   8.010   6.487  1.5622  0.8970 -0.4390
 4758SOL     OW14851   7.870   2.440   6.568  0.3922  0.3219  0.6016
 4758SOL    HW114852   7.853   2.427   6.661 -1.1310  2.4047  0.6948
 4758SOL    HW214853   7.950   2.492   6.565  0.2427  0.5683  0.7915
 4759SOL     OW14854   6.722   9.409   0.179 -0.2936 -0.0674  0.7675
 4759SOL    HW114855   6.737   9.455   0.262  1.5402  0.0497  0.4118
 4759SOL    HW214856   6.805   9.417   0.132 -0.6300 -1.9095 -0.2195
 4760SOL     OW14857   4.833   5.418   3.069 -0.1851 -0.2615  0.5369
 4760SOL    HW114858   4.790   5.498   3.097 -0.6054 -0.3338  0.1139
 4760SOL    HW214859   4.917   5.418   3.115 -0.0254  0.6100  0.2533
 4761SOL     OW14860   3.730   8.640   2.077  0.3429  0.0096 -0.5354
 4761SOL    HW114861   3.670   8.602   2.141  0.2640 -0.0766 -0.6595
 4761SOL    HW214862   3.679   8.645   1.996  0.1698  0.8976 -0.3820
 4762SOL     OW14863   4.739   3.386   2.595 -0.4009 -0.5291  0.0072
 4762SOL    HW114864   4.693   3.462   2.629  0.8919 -0.1705  1.0402
 4762SOL    HW214865   4.747   3.402   2.502  0.9280  1.2278  0.3795
 4763SOL     OW14866   0.332   5.993   2.005 -0.7840  0.1311 -0.0240
 4763SOL    HW114867   0.313   5.960   1.918  2.1611  0.3147 -0.8474
 4763SOL    HW214868   0.333   6.089   1.996 -0.4024  0.1510  0.2121
 4764SOL     OW14869   5.463   7.617   7.670 -0.1756  0.2829  0.3013
 4764SOL    HW114870   5.462   7.521   7.664 -2.0242  0.3571 -1.9685
 4764SOL    HW214871   5.372   7.641   7.687  0.2342  1.6636  0.6876
 4765SOL     OW14872   4.712   4.930   1.956  0.2694  0.1575 -0.3707
 4765SOL    HW114873   4.725   4.905   1.864  0.2485 -0.0774 -0.3096
 4765SOL    HW214874   4.800   4.948   1.988  0.4828 -1.4716  0.0548
 4766SOL     OW14875   3.013   4.993   4.279  0.2992  0.3133 -0.1710
 4766SOL    HW114876   3.054   4.977   4.194  3.0639  0.6171  0.9884
 4766SOL    HW214877   2.960   4.915   4.294  2.4491 -1.3741 -0.7588
 4767SOL     OW14878   3.550   7.105   1.461  0.2891  0.1228 -0.6675
 4767SOL    HW114879   3.534   7.076   1.372 -0.5667 -0.1277 -0.4380
 4767SOL    HW214880   3.498   7.046   1.516  0.6988  0.3559 -0.0116
 4768SOL     OW14881   4.060   9.915   2.646 -0.3667  0.5852  0.0578
 4768SOL    HW114882   3.998   9.857   2.602  2.0092  0.2890 -3.2949
 4768SOL    HW214883   4.032  10.003   2.623  0.4298  0.4470 -1.6141
 4769SOL     OW14884   0.718   0.377   8.818  0.4306 -0.2301 -0.1415
 4769SOL    HW114885   0.628   0.346   8.827  0.1640  0.7856  0.9877
 4769SOL    HW214886   0.769   0.299   8.797 -0.8977 -0.5929 -2.3106
 4770SOL     OW14887   4.349   9.126   0.738 -0.6311 -0.2712 -0.1851
 4770SOL    HW114888   4.437   9.089   0.738 -0.2771  0.5361 -0.2786
 4770SOL    HW214889   4.343   9.171   0.823 -0.5670  0.5384 -0.6015
 4771SOL     OW14890   8.250   4.810   4.950  0.1593  0.2302 -0.0409
 4771SOL    HW114891   8.234   4.775   5.037 -0.1902  1.6283  0.4785
 4771SOL    HW214892   8.345   4.800   4.938  0.2821  0.4612  0.6935
 4772SOL     OW14893   4.344   3.987   7.766 -0.1173  0.0523  0.1970
 4772SOL    HW114894   4.431   4.007   7.801  0.3103 -2.1593  0.5685
 4772SOL    HW214895   4.354   3.990   7.671 -0.4621  2.7991  0.1503
 4773SOL     OW14896   7.668   0.838   8.574 -0.2442 -0.1320  0.0092
 4773SOL    HW114897   7.740   0.882   8.527 -0.2320  0.2945  0.4191
 4773SOL    HW214898   7.627   0.783   8.508  0.2863 -0.1621 -0.3022
 4774SOL     OW14899   1.599   4.377   6.806  0.1517  0.6408  0.2324
 4774SOL    HW114900   1.581   4.361   6.713  0.8824  2.3215 -0.2403
 4774SOL    HW214901   1.638   4.295   6.837  0.0724  0.1174 -0.9765
 4775SOL     OW14902   5.649   2.041   3.303  0.0786  0.4814  0.2453
 4775SOL    HW114903   5.741   2.033   3.277  0.7211  4.8502  0.3469
 4775SOL    HW214904   5.652   2.061   3.396 -1.1446 -0.8033  0.5932
 4776SOL     OW14905   4.828   7.143   6.358  0.4611 -0.1990  0.0895
 4776SOL    HW114906   4.885   7.177   6.427 -1.0021 -0.0738  1.2955
 4776SOL    HW214907   4.804   7.221   6.307  2.0896 -0.3842 -1.0503
 4777SOL     OW14908   1.582   8.981   9.257  0.4612 -0.0198  0.3056
 4777SOL    HW114909   1.654   9.044   9.252  0.7180 -0.2799  0.6106
 4777SOL    HW214910   1.617   8.903   9.213  0.0924  0.1035 -0.2014
 4778SOL     OW14911   3.364   5.427   9.313  0.3547  0.3582  0.1649
 4778SOL    HW114912   3.388   5.360   9.248 -1.6115  1.0548 -1.3989
 4778SOL    HW214913   3.309   5.381   9.376  1.0548 -0.0149  0.5073
 4779SOL     OW14914   0.289   3.329   8.250 -0.0038  0.5261 -0.1833
 4779SOL    HW114915   0.255   3.374   8.328 -2.2344 -0.9649 -0.1964
 4779SOL    HW214916   0.380   3.312   8.271 -0.0030  1.9966  1.2277
 4780SOL     OW14917   2.231   6.964   6.782 -0.2128 -0.0304  0.0906
 4780SOL    HW114918   2.290   6.891   6.802  1.0405  0.9068 -0.1012
 4780SOL    HW214919   2.254   6.990   6.693 -0.8892  0.3763  0.0298
 4781SOL     OW14920   0.896   5.538   7.774  0.4052  0.1060 -0.1969
 4781SOL    HW114921   0.803   5.528   7.793  0.3090 -0.5670 -0.9331
 4781SOL    HW214922   0.940   5.523   7.857  0.0107 -2.6485 -0.3770
 4782SOL     OW14923   0.379   3.154   5.673 -0.3818  0.5459  0.5258
 4782SOL    HW114924   0.459   3.134   5.625 -0.4092  2.0117 -0.1751
 4782SOL    HW214925   0.310   3.108   5.625  0.0617 -1.1819  1.4535
 4783SOL     OW14926   7.030   1.297   9.680 -0.0036  0.2001 -0.7564
 4783SOL    HW114927   7.113   1.262   9.648 -0.7375 -1.4740 -0.9236
 4783SOL    HW214928   7.054   1.376   9.728  1.5524  0.4067 -1.8178
 4784SOL     OW14929   3.936   4.873   0.775  0.1605  0.5675 -0.0444
 4784SOL    HW114930   3.975   4.786   0.789 -0.1407  0.5653  0.7738
 4784SOL    HW214931   3.945   4.918   0.859 -1.2316  0.7168  0.0413
 4785SOL     OW14932   1.176   2.523   5.158  0.1997  0.1552 -0.1061
 4785SOL    HW114933   1.142   2.567   5.080  1.3552 -0.1911 -0.8274
 4785SOL    HW214934   1.193   2.433   5.130  0.7062  0.0419  0.5318
 4786SOL     OW14935   4.396   9.789   3.708 -0.4384  0.2589  0.6040
 4786SOL    HW114936   4.402   9.779   3.803  1.0849 -0.3988  0.4673
 4786SOL    HW214937   4.412   9.882   3.692  0.0777  0.2343  0.9501
 4787SOL     OW14938   7.103   2.596   4.760  0.8369 -0.2485  0.0464
 4787SOL    HW114939   7.041   2.648   4.811  1.3865 -0.8752  1.3952
 4787SOL    HW214940   7.171   2.659   4.734 -0.4750  0.5294 -1.7672
 4788SOL     OW14941   7.291   4.601   0.318 -0.3367 -0.2487 -0.5110
 4788SOL    HW114942   7.304   4.569   0.407  3.3605  1.4549 -0.2845
 4788SOL    HW214943   7.308   4.695   0.323 -0.4693 -0.0368 -2.9593
 4789SOL     OW14944   1.225   4.368   2.141  0.4590  0.0457 -0.0708
 4789SOL    HW114945   1.228   4.401   2.051  1.2371 -0.5689 -0.2823
 4789SOL    HW214946   1.160   4.298   2.139  0.8323 -0.3016 -0.2807
 4790SOL     OW14947   7.037   9.933   8.825  0.8643 -0.2314  0.4355
 4790SOL    HW114948   7.082   9.896   8.749  1.1959  0.4221  0.3028
 4790SOL    HW214949   7.055  10.027   8.819 -0.3118  0.0143  0.5144
 4791SOL     OW14950   1.484   5.991   0.725 -0.2807  0.1673  0.4113
 4791SOL    HW114951   1.431   6.054   0.774 -0.1904  0.0501  0.6606
 4791SOL    HW214952   1.556   6.043   0.690  1.4367 -0.2738  3.0357
 4792SOL     OW14953   8.001   0.541   6.908  0.0884  0.7865  0.0157
 4792SOL    HW114954   7.918   0.548   6.862 -0.3360  1.1464  0.8116
 4792SOL    HW214955   7.992   0.465   6.965  0.6945  0.2053 -0.6419
 4793SOL     OW14956   2.591   9.165   9.574  0.0167 -0.1471  0.1885
 4793SOL    HW114957   2.569   9.082   9.616  0.0758  0.7142  2.0280
 4793SOL    HW214958   2.507   9.209   9.561 -0.1177 -0.8926 -1.7713
 4794SOL     OW14959   2.416   6.438   8.971  0.4355 -0.1099  0.0271
 4794SOL    HW114960   2.403   6.486   9.053  0.4995 -0.2379  0.1122
 4794SOL    HW214961   2.364   6.359   8.981 -2.7505  1.5976 -1.5979
 4795SOL     OW14962   4.661   5.307   6.726  0.7273  0.0281  0.0933
 4795SOL    HW114963   4.756   5.319   6.727  0.6799  0.7973 -1.3763
 4795SOL    HW214964   4.630   5.369   6.659 -0.7846 -0.3535  0.4053
 4796SOL     OW14965   7.969   6.653   2.444 -0.5468 -0.1513  0.1846
 4796SOL    HW114966   8.049   6.627   2.489 -0.2057  1.9603  0.8986
 4796SOL    HW214967   7.912   6.688   2.513 -0.6594  1.6404 -0.7685
 4797SOL     OW14968   5.102   5.587   5.386  0.1642  0.6129 -0.1216
 4797SOL    HW114969   5.065   5.592   5.298 -0.6786 -2.4361 -0.0215
 4797SOL    HW214970   5.197   5.584   5.372 -0.0017 -1.5787 -1.1130
 4798SOL     OW14971   6.867   1.934   3.649  0.0075 -0.2167 -0.3076
 4798SOL    HW114972   6.777   1.957   3.675  0.0366 -0.8856  0.4370
 4798SOL    HW214973   6.856   1.874   3.576 -0.0965  1.0907 -1.4109
 4799SOL     OW14974   1.907   0.029   1.783  0.6289  0.2643 -0.3027
 4799SOL    HW114975   1.893   0.122   1.798 -0.5894  0.2976 -1.4765
 4799SOL    HW214976   1.853  -0.015   1.849  0.4484  0.3929 -0.3651
 4800SOL     OW14977   8.362   4.973   8.491 -0.0313 -0.1437 -0.4193
 4800SOL    HW114978   8.395   5.052   8.534 -1.9816  0.9286 -0.8025
 4800SOL    HW214979   8.438   4.940   8.442  1.4616  0.1733  1.5269
 4801SOL     OW14980   2.108   3.188   9.266 -0.5583 -0.1405  0.5784
 4801SOL    HW114981   2.145   3.104   9.295 -0.4813  0.3306  1.9424
 4801SOL    HW214982   2.042   3.209   9.332 -0.7409  0.7573  0.1296
 4802SOL     OW14983   1.337   4.647   6.991  0.0447 -0.0538  0.1770
 4802SOL    HW114984   1.387   4.653   7.072  0.6869 -1.3870 -0.0936
 4802SOL    HW214985   1.402   4.659   6.921 -0.4535  0.7949 -0.1577
 4803SOL     OW14986   6.655   7.253   3.591 -0.2433  0.4872  0.0388
 4803SOL    HW114987   6.575   7.201   3.603  0.3841 -0.0131  2.6247
 4803SOL    HW214988   6.710   7.230   3.665  2.7815  0.0908 -2.1743
 4804SOL     OW14989   7.361   0.773   3.699 -0.1345 -0.2263 -0.0449
 4804SOL    HW114990   7.354   0.758   3.605 -3.1445  0.3461 -0.0250
 4804SOL    HW214991   7.302   0.708   3.738 -0.4346  0.7961  1.2777
 4805SOL     OW14992   3.551   1.271   3.501  0.1242 -0.4885  0.5947
 4805SOL    HW114993   3.475   1.234   3.457 -0.2675  0.1810  0.7015
 4805SOL    HW214994   3.621   1.267   3.435 -0.5012  0.6784 -0.1840
 4806SOL     OW14995   0.354   8.358   7.146  0.6368  0.0573  0.0574
 4806SOL    HW114996   0.437   8.390   7.111  1.4481 -0.6490  1.2856
 4806SOL    HW214997   0.317   8.433   7.193  1.1653  0.0308  0.5237
 4807SOL     OW14998   3.185   5.580   5.449  0.2125 -0.4659  0.1502
 4807SOL    HW114999   3.224   5.596   5.535 -0.5294 -2.2033  0.8587
 4807SOL    HW215000   3.146   5.664   5.424  2.5007  0.7488  0.3651
 4808SOL     OW15001   0.253   6.601   2.533 -0.3425  0.0480 -0.0304
 4808SOL    HW115002   0.172   6.569   2.494 -0.1264  0.8086 -1.1407
 4808SOL    HW215003   0.299   6.646   2.462  1.1906 -0.5847  0.5004
 4809SOL     OW15004   5.331   5.222   6.068 -0.2976  0.5737  0.2112
 4809SOL    HW115005   5.360   5.177   6.148  3.0457  0.6952 -0.8160
 4809SOL    HW215006   5.289   5.302   6.101 -2.9426 -1.2998  1.9007
 4810SOL     OW15007   4.070   9.553   7.271 -0.1849  0.3302 -0.2568
 4810SOL    HW115008   4.082   9.629   7.214 -3.5520  1.5544  0.4115
 4810SOL    HW215009   4.042   9.483   7.212 -1.1417  0.8541 -0.4479
 4811SOL     OW15010   0.566   8.430   1.432 -0.5984 -0.0166  0.4919
 4811SOL    HW115011   0.535   8.479   1.508 -3.1324 -1.7389  0.6915
 4811SOL    HW215012   0.658   8.457   1.422 -0.7399  1.7300  2.9280
 4812SOL     OW15013   3.900   2.867   3.316 -0.2138 -0.2931 -0.1881
 4812SOL    HW115014   3.935   2.953   3.293  0.0309 -0.6075 -1.0442
 4812SOL    HW215015   3.816   2.863   3.270 -0.8600  0.0060  0.9294
 4813SOL     OW15016   9.954   3.692   6.108 -0.3344 -0.7493 -0.7945
 4813SOL    HW115017   9.901   3.672   6.185  1.5146 -1.6409  0.2855
 4813SOL    HW215018  10.041   3.660   6.129  0.7487  0.9640 -2.3965
 4814SOL     OW15019   2.256   2.149   3.821 -0.5056 -0.1137  0.4393
 4814SOL    HW115020   2.291   2.064   3.849 -1.4647 -0.2915  1.1382
 4814SOL    HW215021   2.228   2.191   3.902 -0.7351  0.5561  0.0164
 4815SOL     OW15022   0.320   4.725   1.563 -0.2588  0.8361  0.0872
 4815SOL    HW115023   0.264   4.753   1.491  0.8189 -1.3473 -1.7294
 4815SOL    HW215024   0.316   4.629   1.561  1.1396  0.6814  1.8661
 4816SOL     OW15025   5.272   1.884   0.563 -0.7144  0.7709 -0.4553
 4816SOL    HW115026   5.301   1.965   0.521 -2.1843  1.9889  0.7743
 4816SOL    HW215027   5.298   1.894   0.655 -1.0884 -0.0708 -0.2534
 4817SOL     OW15028   1.888   2.421   3.192  0.5378  0.3420 -0.6883
 4817SOL    HW115029   1.851   2.363   3.126  0.4168 -0.3098 -0.0637
 4817SOL    HW215030   1.880   2.508   3.155  0.6868 -0.0361 -1.6288
 4818SOL     OW15031   8.884   4.701   2.531  0.4247  0.5653 -0.0880
 4818SOL    HW115032   8.904   4.608   2.539 -2.2526 -0.0903 -0.2872
 4818SOL    HW215033   8.845   4.710   2.444 -1.3276  1.4325  0.7378
 4819SOL     OW15034   7.574   3.082   5.587 -0.0223  0.5029 -0.6510
 4819SOL    HW115035   7.612   3.170   5.595 -0.2053  0.7949 -2.5754
 4819SOL    HW215036   7.574   3.048   5.677  0.5691  2.2406  0.0542
 4820SOL     OW15037   4.980   8.616   6.540  0.3620  0.3479  0.0055
 4820SOL    HW115038   5.017   8.702   6.560 -0.2992  0.8002 -0.6707
 4820SOL    HW215039   5.055   8.556   6.543  0.7995  0.9131  0.6348
 4821SOL     OW15040   2.455   2.183   9.899 -0.2628 -0.4490 -0.3999
 4821SOL    HW115041   2.515   2.114   9.868  0.1107 -0.7358  0.9084
 4821SOL    HW215042   2.435   2.158   9.989 -3.2364 -0.9486 -1.0934
 4822SOL     OW15043   0.450   2.975   1.756  0.2791 -0.1109 -0.1570
 4822SOL    HW115044   0.519   3.030   1.719  1.1653 -0.4809  0.9094
 4822SOL    HW215045   0.482   2.886   1.747  0.7207 -0.1974  1.8228
 4823SOL     OW15046   8.521   1.153   8.513 -0.2755  0.4038 -0.0631
 4823SOL    HW115047   8.454   1.209   8.552  0.6843  0.1863  2.0719
 4823SOL    HW215048   8.474   1.101   8.448 -1.8355  1.3493  0.2476
 4824SOL     OW15049   7.995   6.125   5.214 -0.0514  0.0050 -0.3024
 4824SOL    HW115050   8.090   6.137   5.216 -0.1583  0.8689  1.2784
 4824SOL    HW215051   7.982   6.045   5.163  1.6463 -1.0393  0.8228
 4825SOL     OW15052   7.877   0.185   1.757  0.6265  0.0255  0.7576
 4825SOL    HW115053   7.899   0.096   1.729 -0.0197 -0.5862  2.0854
 4825SOL    HW215054   7.786   0.197   1.728  0.7485  0.2981  0.4850
 4826SOL     OW15055   8.273   8.898   0.259  0.5672  0.5805 -0.2195
 4826SOL    HW115056   8.291   8.896   0.353  0.8390 -0.2260 -0.2838
 4826SOL    HW215057   8.234   8.984   0.244  0.2021  0.5791  0.6853
 4827SOL     OW15058   1.730   5.695   6.692 -0.2675 -0.4347 -0.3911
 4827SOL    HW115059   1.798   5.629   6.697 -0.1237 -0.2097  1.0099
 4827SOL    HW215060   1.754   5.760   6.757 -2.6761 -1.1805  1.4006
 4828SOL     OW15061   2.216   2.282   2.477 -0.2213  0.4190  0.0381
 4828SOL    HW115062   2.142   2.317   2.527  0.7634  1.4058  0.8669
 4828SOL    HW215063   2.288   2.277   2.541  1.1272  1.8372 -1.2592
 4829SOL     OW15064   1.461   4.607   9.714  0.1949  0.2674 -0.2643
 4829SOL    HW115065   1.377   4.623   9.671 -0.0945 -0.8682 -0.1382
 4829SOL    HW215066   1.439   4.576   9.802  0.7771  1.6560  0.4084
 4830SOL     OW15067   4.569   1.426   8.756 -0.4390  0.6473  0.5074
 4830SOL    HW115068   4.523   1.419   8.840  0.4103  1.2737  1.0325
 4830SOL    HW215069   4.661   1.434   8.780 -0.1479  0.4075 -0.5055
 4831SOL     OW15070   8.572   6.324   4.265 -0.0863 -0.3249 -0.5742
 4831SOL    HW115071   8.584   6.399   4.322  1.0770 -1.8492  1.3047
 4831SOL    HW215072   8.657   6.313   4.221 -0.1495 -0.7180 -0.6034
 4832SOL     OW15073   1.524   7.320   6.977  0.7778 -0.4321  0.3130
 4832SOL    HW115074   1.478   7.310   6.895  0.8152  1.0611  0.0752
 4832SOL    HW215075   1.617   7.311   6.954  0.7812 -0.1330  0.2032
 4833SOL     OW15076   0.561   1.763   0.416  0.4135 -0.5641  0.6414
 4833SOL    HW115077   0.611   1.845   0.422  0.9393 -0.7574 -0.6513
 4833SOL    HW215078   0.481   1.780   0.465  1.3146  0.0919  1.9383
 4834SOL     OW15079   3.444   3.139   8.465 -0.2501 -0.3572 -0.0380
 4834SOL    HW115080   3.506   3.108   8.531  1.6867  0.0466 -1.5769
 4834SOL    HW215081   3.358   3.113   8.499  0.6997 -0.7453  2.2881
 4835SOL     OW15082   5.149   2.008   0.926 -0.3206 -0.0738 -0.2771
 4835SOL    HW115083   5.236   2.017   0.887 -0.8314 -1.3288 -1.8301
 4835SOL    HW215084   5.140   1.914   0.942 -2.3551 -0.3936 -2.6561
 4836SOL     OW15085  -0.012   0.661   5.395 -0.1261 -0.6931 -0.3854
 4836SOL    HW115086   0.012   0.752   5.374  0.3076 -0.8772 -0.6953
 4836SOL    HW215087   0.057   0.608   5.356  0.0158 -1.1211  0.4288
 4837SOL     OW15088   7.593   6.347   2.093  0.7489 -0.0872  0.1991
 4837SOL    HW115089   7.683   6.370   2.071  1.3234 -0.8300  1.6195
 4837SOL    HW215090   7.575   6.395   2.174 -0.0009 -0.2285  0.1269
 4838SOL     OW15091   2.938   5.206   0.396 -0.0898  0.1889  0.4390
 4838SOL    HW115092   3.021   5.171   0.429  0.1903  0.1344 -0.2936
 4838SOL    HW215093   2.906   5.263   0.466  0.7075  0.4250  0.6204
 4839SOL     OW15094   3.701   9.462   8.069 -0.2633 -0.6007 -0.1059
 4839SOL    HW115095   3.786   9.422   8.086  0.0259 -0.4799 -1.2009
 4839SOL    HW215096   3.638   9.398   8.100  0.2170 -1.3724 -0.6851
 4840SOL     OW15097   3.821   7.327   6.345 -0.5833  0.4149 -0.6987
 4840SOL    HW115098   3.864   7.378   6.277  0.3687 -0.6782 -0.9418
 4840SOL    HW215099   3.806   7.241   6.306 -1.5184  0.2715 -0.0671
 4841SOL     OW15100   7.755   8.371   3.515 -0.2053  0.2947  0.2560
 4841SOL    HW115101   7.699   8.448   3.528 -0.9938 -0.1519 -0.4254
 4841SOL    HW215102   7.803   8.362   3.598 -2.0350 -0.0389  1.3197
 4842SOL     OW15103   0.732   0.397   2.810 -0.4125 -0.0474  0.0720
 4842SOL    HW115104   0.769   0.389   2.898 -1.4120  1.3432  0.6586
 4842SOL    HW215105   0.774   0.327   2.760  0.2023 -0.8491  1.6350
 4843SOL     OW15106   6.524   9.168   6.080 -0.4610 -0.3624  0.0727
 4843SOL    HW115107   6.581   9.103   6.120 -1.0780 -0.2192  1.2257
 4843SOL    HW215108   6.579   9.212   6.015  1.1160  0.5420  1.9137
 4844SOL     OW15109   7.364   3.323   6.103 -0.1248  0.1356 -0.3579
 4844SOL    HW115110   7.359   3.297   6.195  0.1815 -0.0087 -0.3813
 4844SOL    HW215111   7.434   3.270   6.067  1.1306  1.6252 -0.1967
 4845SOL     OW15112   4.951   1.449   6.745  0.0043  0.3769  0.8296
 4845SOL    HW115113   5.012   1.414   6.810 -0.1483 -0.7144  0.3925
 4845SOL    HW215114   4.890   1.378   6.728 -0.9298  1.1921  0.6708
 4846SOL     OW15115   0.851   6.810   4.104 -0.2897  0.0091 -0.4791
 4846SOL    HW115116   0.757   6.798   4.118 -0.1082  0.6227  1.5861
 4846SOL    HW215117   0.879   6.864   4.178  2.0070 -1.5674 -0.1090
 4847SOL     OW15118   7.192   9.202   7.331  0.2249  0.2908 -0.1676
 4847SOL    HW115119   7.109   9.203   7.282 -2.0608  3.4075  3.2521
 4847SOL    HW215120   7.249   9.263   7.284 -0.4304  0.2813 -1.0035
 4848SOL     OW15121   7.273   2.712   1.032  0.1259  0.1394  0.4715
 4848SOL    HW115122   7.297   2.619   1.036 -0.1229  0.0893  0.8580
 4848SOL    HW215123   7.304   2.749   1.115  3.1952  1.1489 -0.9771
 4849SOL     OW15124   8.423   9.753   7.813  0.4679  0.7592  0.1903
 4849SOL    HW115125   8.417   9.735   7.907  0.9433 -0.5625 -0.0038
 4849SOL    HW215126   8.395   9.671   7.772 -0.2552  1.5039 -0.8304
 4850SOL     OW15127   6.847   4.823   4.319  0.6111 -0.2688  0.2286
 4850SOL    HW115128   6.873   4.781   4.401 -1.6558  1.3676  1.9378
 4850SOL    HW215129   6.906   4.899   4.312 -0.2046  0.4940  1.2663
 4851SOL     OW15130   2.385   8.959   0.328  0.3518  0.2764 -0.2184
 4851SOL    HW115131   2.369   8.998   0.242 -0.7951  2.8540  1.0580
 4851SOL    HW215132   2.309   8.904   0.345  0.3670  0.1220 -0.6512
 4852SOL     OW15133   8.350   4.620   8.484  0.0747 -0.2146 -0.4699
 4852SOL    HW115134   8.318   4.660   8.565  0.8422  2.1973 -1.2607
 4852SOL    HW215135   8.280   4.635   8.420 -0.4297 -1.8975 -0.3619
 4853SOL     OW15136   7.568   4.870   3.296 -0.6677  0.3651 -0.1182
 4853SOL    HW115137   7.654   4.911   3.298 -0.1110 -0.7879  1.4234
 4853SOL    HW215138   7.584   4.780   3.270 -1.3767  0.0910  0.3625
 4854SOL     OW15139   8.658   5.143   4.701  0.5549  0.3023  0.2672
 4854SOL    HW115140   8.718   5.121   4.772  0.5916  2.8600  1.1501
 4854SOL    HW215141   8.574   5.159   4.744 -0.3234 -1.3883 -0.7233
 4855SOL     OW15142   0.245   5.526   3.176 -0.1676  0.0326  0.8371
 4855SOL    HW115143   0.238   5.435   3.205 -0.4599  0.2538  1.4782
 4855SOL    HW215144   0.173   5.537   3.113  0.3894 -0.4128  0.1071
 4856SOL     OW15145   3.094   5.711   1.108  0.5243  0.3386  0.1700
 4856SOL    HW115146   3.062   5.697   1.019  1.5091  1.3978 -0.3873
 4856SOL    HW215147   3.126   5.802   1.108  1.3449  0.0749  1.3422
 4857SOL     OW15148   1.749   5.767   1.790 -0.3695 -0.2100 -0.5343
 4857SOL    HW115149   1.713   5.802   1.871 -1.3168  2.2741 -1.8888
 4857SOL    HW215150   1.674   5.760   1.731  0.1620 -2.6975 -1.0179
 4858SOL     OW15151   2.241   2.577   1.923  0.6674 -0.2110 -0.2123
 4858SOL    HW115152   2.191   2.539   1.995 -1.0988  0.7962 -0.8216
 4858SOL    HW215153   2.221   2.521   1.848 -0.4771  0.8201 -0.7037
 4859SOL     OW15154   6.066   4.398   2.305  0.2203  0.6764  0.0520
 4859SOL    HW115155   6.119   4.380   2.382 -0.2954 -1.1703  0.0101
 4859SOL    HW215156   5.976   4.381   2.332 -0.0126  0.4607 -0.8139
 4860SOL     OW15157   5.153   1.574   1.384  0.1850  0.0874  0.4384
 4860SOL    HW115158   5.066   1.537   1.379 -0.0309  0.5641  0.6196
 4860SOL    HW215159   5.189   1.544   1.467  0.5299 -0.8219 -0.0243
 4861SOL     OW15160   9.298   6.945   4.917  0.1987  0.1300 -0.2208
 4861SOL    HW115161   9.376   6.959   4.864 -0.0399  0.4109 -0.5094
 4861SOL    HW215162   9.285   7.028   4.963  0.0293  0.1120 -0.2343
 4862SOL     OW15163   0.594   5.430   8.726 -0.2844 -0.2330 -0.1474
 4862SOL    HW115164   0.596   5.351   8.781  1.7929  0.8742  1.5203
 4862SOL    HW215165   0.663   5.415   8.661  0.8640  0.5877  0.8367
 4863SOL     OW15166   1.061   2.005   3.003  0.1280  0.7024 -0.0370
 4863SOL    HW115167   1.130   1.988   3.067  0.0611  0.6559  0.0224
 4863SOL    HW215168   1.016   1.921   2.994 -0.8905  1.1138  1.0538
 4864SOL     OW15169   9.441   2.264   1.349 -0.3501  0.7481  0.4359
 4864SOL    HW115170   9.458   2.172   1.368  0.8041  0.9994  0.6918
 4864SOL    HW215171   9.458   2.309   1.431  1.7421  1.4903 -0.3275
 4865SOL     OW15172   4.584   8.607   6.770 -0.6388  0.3028 -0.8859
 4865SOL    HW115173   4.666   8.651   6.747  0.6803 -1.5187  0.0947
 4865SOL    HW215174   4.571   8.627   6.863 -0.9229  0.0142 -0.8598
 4866SOL     OW15175   5.329   9.168   0.391 -0.1950 -0.5974  0.2385
 4866SOL    HW115176   5.250   9.169   0.338  0.1230 -0.2096 -0.2447
 4866SOL    HW215177   5.400   9.162   0.328  0.1420 -1.5841  0.6997
 4867SOL     OW15178   7.837   8.474   4.713  0.1143  0.3088 -0.7753
 4867SOL    HW115179   7.866   8.392   4.753 -2.0507 -0.1236  0.0804
 4867SOL    HW215180   7.915   8.510   4.671  1.3020 -1.7775 -0.4790
 4868SOL     OW15181   5.277   3.718   4.499 -0.2437 -0.0894  0.1459
 4868SOL    HW115182   5.359   3.673   4.480  0.8349  1.1309  1.6195
 4868SOL    HW215183   5.234   3.726   4.415  1.7832  0.3994 -0.9162
 4869SOL     OW15184   1.578   2.684   6.883 -0.1719  0.4363  0.1358
 4869SOL    HW115185   1.595   2.757   6.823 -0.1699 -0.2044 -0.6748
 4869SOL    HW215186   1.526   2.623   6.830  0.0854 -0.2796  0.6998
 4870SOL     OW15187   6.527   7.421   6.596  0.3154  0.8192 -0.8275
 4870SOL    HW115188   6.471   7.447   6.669 -0.9753 -1.2996 -0.9772
 4870SOL    HW215189   6.519   7.493   6.532 -2.2849  0.6045 -0.8496
 4871SOL     OW15190   4.516   0.623   7.265 -0.1160  0.3209  0.1653
 4871SOL    HW115191   4.557   0.625   7.351 -0.4208  0.0744  0.3146
 4871SOL    HW215192   4.575   0.675   7.210  1.1882 -1.2260  0.0248
 4872SOL     OW15193   3.440   7.714   0.966  0.3133  0.0473 -0.3430
 4872SOL    HW115194   3.488   7.784   0.923 -0.9294  0.0828 -1.7542
 4872SOL    HW215195   3.448   7.733   1.060 -0.3566  2.3515 -0.7007
 4873SOL     OW15196   1.792   7.520   1.079 -0.3077  0.5976 -0.2564
 4873SOL    HW115197   1.776   7.578   1.005  0.9522  3.0926  1.2614
 4873SOL    HW215198   1.716   7.534   1.137 -0.8791 -0.7038 -0.6509
 4874SOL     OW15199   5.582   6.644   8.281 -0.0928 -0.6023  0.2061
 4874SOL    HW115200   5.579   6.571   8.220 -0.1924  0.2211 -0.8056
 4874SOL    HW215201   5.675   6.653   8.303  0.1583 -0.0299 -0.9565
 4875SOL     OW15202   5.343   6.104   2.777  0.3361 -0.5046 -0.0353
 4875SOL    HW115203   5.390   6.060   2.706  1.0330 -0.2640  0.2737
 4875SOL    HW215204   5.382   6.069   2.857  0.8932  0.6636  0.2138
 4876SOL     OW15205   4.283   5.111   5.043  0.7302  0.3419  0.0904
 4876SOL    HW115206   4.253   5.199   5.019  0.9182  0.6946  1.1051
 4876SOL    HW215207   4.349   5.126   5.111 -0.1272 -0.6133  1.1868
 4877SOL     OW15208   0.701   2.215   4.419  0.0243  1.0393  0.1959
 4877SOL    HW115209   0.697   2.171   4.334 -0.8164  0.5829  0.4631
 4877SOL    HW215210   0.675   2.149   4.482  1.6721  1.0568  0.9613
 4878SOL     OW15211   3.497   0.027   8.819 -0.1107 -0.4078  0.2796
 4878SOL    HW115212   3.578   0.059   8.779 -0.6910  0.1219 -0.5136
 4878SOL    HW215213   3.526  -0.021   8.897  1.0436 -1.3240 -0.6773
 4879SOL     OW15214   7.720   8.592   4.038  0.4608  0.0579 -1.0529
 4879SOL    HW115215   7.731   8.642   3.957 -1.5660  1.2020 -0.6755
 4879SOL    HW215216   7.732   8.656   4.108  0.4655 -0.5652 -0.4710
 4880SOL     OW15217   3.491   4.665   3.056 -0.1778 -0.1040  0.1181
 4880SOL    HW115218   3.435   4.605   3.106  1.1782 -0.7028  0.9978
 4880SOL    HW215219   3.566   4.680   3.114  1.2014 -0.3989 -1.5281
 4881SOL     OW15220   0.781   0.581   8.177 -0.1734 -0.2060 -0.2715
 4881SOL    HW115221   0.869   0.613   8.154 -0.3806  1.1614  0.7024
 4881SOL    HW215222   0.722   0.651   8.151 -1.1699 -1.6438 -2.0978
 4882SOL     OW15223   3.108   7.676   0.130  0.4407  0.1539  0.1319
 4882SOL    HW115224   3.120   7.722   0.212  0.7375 -1.5997  1.1210
 4882SOL    HW215225   3.189   7.625   0.118  1.0936  1.5481 -2.0713
 4883SOL     OW15226   4.279   5.051   5.844  0.1346 -0.6174  0.3442
 4883SOL    HW115227   4.355   5.000   5.816  0.4364  0.3460 -0.6884
 4883SOL    HW215228   4.206   5.016   5.793  0.1157 -0.7704  0.4760
 4884SOL     OW15229   2.182   3.263   8.120 -0.3311  0.1577 -0.0004
 4884SOL    HW115230   2.131   3.191   8.083 -1.4922  1.3033 -0.7179
 4884SOL    HW215231   2.121   3.336   8.125  0.6177  0.9165  1.3876
 4885SOL     OW15232   2.947   9.713   7.977 -0.4858  0.2931 -0.6232
 4885SOL    HW115233   3.040   9.718   7.999  0.0590 -3.3940 -1.3150
 4885SOL    HW215234   2.941   9.752   7.890  0.4809  0.3174 -0.6944
 4886SOL     OW15235   8.213   6.741   5.823 -0.8667  0.4898 -0.0359
 4886SOL    HW115236   8.274   6.759   5.751 -1.5623 -0.0037 -0.7679
 4886SOL    HW215237   8.153   6.676   5.787 -1.2225  0.2350  1.0052
 4887SOL     OW15238   8.163   0.728   4.892  0.4446  0.2963 -0.1257
 4887SOL    HW115239   8.159   0.823   4.901  2.4033  0.3497  0.8174
 4887SOL    HW215240   8.172   0.713   4.798  0.1363  1.0427 -0.2782
 4888SOL     OW15241   6.909   6.189   9.396 -0.1215  0.0123  0.5614
 4888SOL    HW115242   6.968   6.116   9.414  0.2908  0.0985 -0.3832
 4888SOL    HW215243   6.831   6.169   9.448  0.3730 -0.5774  1.1033
 4889SOL     OW15244   7.065   6.350   9.166  0.0535 -0.2494 -0.1832
 4889SOL    HW115245   7.033   6.438   9.144  1.1738  1.0440  2.8176
 4889SOL    HW215246   7.000   6.315   9.226  0.1335 -1.0686 -0.5624
 4890SOL     OW15247   1.341   6.102   7.176  0.0544 -0.0180 -0.1281
 4890SOL    HW115248   1.341   6.196   7.191  0.6254  0.3655 -2.2213
 4890SOL    HW215249   1.381   6.065   7.254  0.1901  1.4996  0.5516
 4891SOL     OW15250   5.044   9.237   3.555  0.2253 -0.4493 -0.0939
 4891SOL    HW115251   5.107   9.175   3.592  0.9738  0.9080  1.0483
 4891SOL    HW215252   4.964   9.187   3.544  1.1476 -1.9072 -0.3590
 4892SOL     OW15253   4.622   6.326   9.566  0.7099  0.0996  0.0057
 4892SOL    HW115254   4.582   6.239   9.569  0.8378  0.0265 -0.3367
 4892SOL    HW215255   4.549   6.387   9.563  0.6069  0.0445  1.1122
 4893SOL     OW15256   8.440   6.691   7.832 -0.4921 -0.1662  0.1986
 4893SOL    HW115257   8.387   6.680   7.911 -1.1131 -1.2626 -0.3291
 4893SOL    HW215258   8.478   6.604   7.817 -0.5475 -0.0310 -0.8051
 4894SOL     OW15259   5.294   0.623   1.789 -0.4987 -0.3520  0.2621
 4894SOL    HW115260   5.370   0.652   1.839  0.7465 -1.5359 -0.8341
 4894SOL    HW215261   5.301   0.527   1.788 -2.2127 -0.5101  0.4164
 4895SOL     OW15262   2.165   9.521   4.128  0.0077  0.0106 -0.1256
 4895SOL    HW115263   2.171   9.617   4.127  1.2596 -0.0051  1.4723
 4895SOL    HW215264   2.246   9.492   4.084 -1.8479 -0.4164 -3.6790
 4896SOL     OW15265   9.264   0.881   9.818 -0.3046  0.5477 -0.0010
 4896SOL    HW115266   9.239   0.805   9.871  0.3423  1.3849  1.5577
 4896SOL    HW215267   9.344   0.855   9.773  0.5214  0.6482  1.3737
 4897SOL     OW15268   4.267   1.388   3.452  0.1768 -0.1900  0.0304
 4897SOL    HW115269   4.281   1.395   3.358 -0.4194 -0.4084 -0.0800
 4897SOL    HW215270   4.309   1.306   3.477 -0.8678 -0.8503 -0.2984
 4898SOL     OW15271   4.383   4.133   6.678  0.3027  0.1632 -0.3315
 4898SOL    HW115272   4.338   4.217   6.680  1.5260  0.8525 -0.8495
 4898SOL    HW215273   4.470   4.151   6.714  1.0898 -0.5325 -1.7759
 4899SOL     OW15274   2.547   2.206   6.143  0.5513 -0.7605 -0.6077
 4899SOL    HW115275   2.457   2.235   6.128 -0.7378 -1.3180  4.2690
 4899SOL    HW215276   2.592   2.283   6.177  1.0099 -1.1949 -0.2078
 4900SOL     OW15277   9.254   5.975   0.797  0.5003  0.1416 -0.4095
 4900SOL    HW115278   9.347   5.955   0.803  0.3606 -0.3739  0.1817
 4900SOL    HW215279   9.228   5.945   0.710  0.7545 -0.3029 -0.3360
 4901SOL     OW15280   7.403   9.950   7.972 -0.1291  0.3678  0.4564
 4901SOL    HW115281   7.337   9.991   8.027 -1.1198 -1.3635  0.6239
 4901SOL    HW215282   7.359   9.934   7.889  0.2646 -0.2170  0.3507
 4902SOL     OW15283   7.248   1.764   6.651  0.0901  0.4014 -0.0554
 4902SOL    HW115284   7.298   1.819   6.711  2.0864 -1.1038 -0.2474
 4902SOL    HW215285   7.163   1.754   6.693  0.8395  0.8420  1.6461
 4903SOL     OW15286   1.566   3.593   7.038  0.4822  0.4598  0.3759
 4903SOL    HW115287   1.602   3.518   6.991  0.7828  0.2814  0.8770
 4903SOL    HW215288   1.472   3.574   7.044  0.3009  0.8893 -0.8660
 4904SOL     OW15289   7.907   8.077   7.924  0.3433 -0.2489 -0.0026
 4904SOL    HW115290   7.883   8.169   7.934  0.0262  0.1552 -3.3851
 4904SOL    HW215291   7.826   8.033   7.900  0.4728 -1.5313  1.6608
 4905SOL     OW15292   1.555   5.711   8.453 -0.0929  0.1108  0.6323
 4905SOL    HW115293   1.553   5.806   8.466 -0.2638  0.0052  1.4124
 4905SOL    HW215294   1.606   5.678   8.526 -0.7797 -0.4795  0.8521
 4906SOL     OW15295   7.485   6.868   3.635  0.6131 -0.2079 -0.2398
 4906SOL    HW115296   7.429   6.935   3.675  2.9070  1.3900  0.4398
 4906SOL    HW215297   7.446   6.785   3.664 -1.7604  0.7963 -0.3392
 4907SOL     OW15298   1.776   6.840   3.431 -0.1700 -0.5323  0.2955
 4907SOL    HW115299   1.742   6.844   3.520 -0.7486  0.2212  0.0562
 4907SOL    HW215300   1.716   6.781   3.385  0.3681 -1.2459  0.4986
 4908SOL     OW15301   1.854   0.563   0.431  0.1579  0.4459  0.6043
 4908SOL    HW115302   1.774   0.514   0.447 -1.2613  2.0370 -1.1719
 4908SOL    HW215303   1.924   0.507   0.465 -1.6394 -1.1651  1.8520
 4909SOL     OW15304   5.695   0.150   5.231  0.6534 -0.3041  0.4088
 4909SOL    HW115305   5.638   0.087   5.187  1.0966 -1.2510  1.1512
 4909SOL    HW215306   5.700   0.224   5.171  1.3630 -1.6073 -1.2137
 4910SOL     OW15307   0.280   2.182   7.106 -0.3412 -0.7606 -0.4579
 4910SOL    HW115308   0.227   2.256   7.077  0.5081  0.2870  0.5464
 4910SOL    HW215309   0.371   2.210   7.091  0.0375 -1.1162  0.9580
 4911SOL     OW15310   1.538   1.937   7.918 -0.6733  0.1010 -0.2144
 4911SOL    HW115311   1.595   1.872   7.959 -0.2557 -0.3657 -1.4721
 4911SOL    HW215312   1.490   1.977   7.990  0.8164  0.0883  0.8315
 4912SOL     OW15313   4.233  10.003   2.412 -0.0341 -0.0825  0.1270
 4912SOL    HW115314   4.299   9.961   2.357  0.7059 -0.2800  1.1436
 4912SOL    HW215315   4.198   9.932   2.466  1.5755  0.6089  2.2090
 4913SOL     OW15316   3.378   5.832   1.684  0.2390  0.2644 -0.3535
 4913SOL    HW115317   3.315   5.788   1.627  1.4733 -1.5302 -0.4249
 4913SOL    HW215318   3.356   5.802   1.772  0.3907  0.3950 -0.2700
 4914SOL     OW15319   5.943   5.274   7.139 -0.2345 -0.5930  0.5272
 4914SOL    HW115320   5.971   5.229   7.059  0.8667 -1.0976  1.1648
 4914SOL    HW215321   6.021   5.322   7.168 -1.2634  1.4611  0.0829
 4915SOL     OW15322   9.318   0.980   7.856 -0.3508  0.3284  0.4771
 4915SOL    HW115323   9.257   0.928   7.803  0.1876 -0.8618  0.9720
 4915SOL    HW215324   9.405   0.945   7.833 -0.1950 -1.3272  3.2234
 4916SOL     OW15325   8.546   5.673   1.542  0.7482 -0.1342  0.5945
 4916SOL    HW115326   8.595   5.673   1.460 -1.1531 -0.2773 -0.6129
 4916SOL    HW215327   8.581   5.748   1.591  0.1654  1.6128 -1.5081
 4917SOL     OW15328   6.929   0.407   8.103 -0.2787  0.2451  0.2876
 4917SOL    HW115329   6.991   0.472   8.137 -0.9742  1.0625  0.0202
 4917SOL    HW215330   6.966   0.381   8.019 -0.2959  0.7478  0.1174
 4918SOL     OW15331   3.192   5.208   5.894  0.1901 -0.5510  0.0409
 4918SOL    HW115332   3.283   5.187   5.873  0.1004 -1.6087  0.6232
 4918SOL    HW215333   3.143   5.129   5.871 -0.8929  0.6530 -2.0593
 4919SOL     OW15334   3.399   3.158   6.154 -0.2883 -0.5122 -0.0754
 4919SOL    HW115335   3.309   3.166   6.187 -0.4350 -2.5028  0.1921
 4919SOL    HW215336   3.451   3.212   6.213 -1.3414  0.9329 -0.4330
 4920SOL     OW15337   0.310   3.581   9.393 -0.3877 -0.0324 -0.4577
 4920SOL    HW115338   0.350   3.663   9.423 -0.0116 -0.5490  0.5098
 4920SOL    HW215339   0.236   3.609   9.339  0.3846  0.9398 -1.0548
 4921SOL     OW15340   7.144   5.574   4.169  0.7711  0.3669 -0.7752
 4921SOL    HW115341   7.174   5.607   4.084  0.2815 -0.7047 -1.3904
 4921SOL    HW215342   7.060   5.617   4.183  0.2567 -0.4035 -1.4470
 4922SOL     OW15343   2.380   6.629   2.895 -0.1532 -0.0590 -0.5244
 4922SOL    HW115344   2.371   6.558   2.958  0.4977 -0.7399 -1.1841
 4922SOL    HW215345   2.370   6.709   2.948 -1.4516 -0.6173  0.1360
 4923SOL     OW15346   5.089   1.836   1.704 -0.0243 -0.1421 -0.5955
 4923SOL    HW115347   5.031   1.760   1.698  0.3593 -0.4064 -0.9490
 4923SOL    HW215348   5.153   1.812   1.772 -1.1396  0.7002  0.8188
 4924SOL     OW15349   0.316   8.881   7.169 -0.5476 -0.0165 -0.4428
 4924SOL    HW115350   0.366   8.959   7.146 -1.3837 -0.2038 -3.3118
 4924SOL    HW215351   0.224   8.907   7.162 -0.9996 -0.0783  3.2788
 4925SOL     OW15352   2.679   9.365   4.571 -0.0720  0.3237  0.4110
 4925SOL    HW115353   2.677   9.372   4.475 -0.0362  0.5637  0.4279
 4925SOL    HW215354   2.682   9.271   4.588 -0.9424  0.2563  0.1941
 4926SOL     OW15355   1.935   2.303   4.062 -0.4915  0.4855  0.2205
 4926SOL    HW115356   1.941   2.303   3.966  1.4323  0.5366  0.3119
 4926SOL    HW215357   1.917   2.395   4.084  1.3487  0.9375 -0.0159
 4927SOL     OW15358   9.541   5.510   7.131 -0.1232  0.4829 -0.0928
 4927SOL    HW115359   9.569   5.520   7.222 -3.5785  2.2361  0.9260
 4927SOL    HW215360   9.495   5.591   7.111  1.4432  0.6604 -3.8907
 4928SOL     OW15361   4.366   0.418   5.413 -0.4355 -0.1131 -0.0800
 4928SOL    HW115362   4.299   0.366   5.368 -0.4968 -1.1273  1.0991
 4928SOL    HW215363   4.352   0.507   5.382 -0.7847 -0.6838 -1.6433
 4929SOL     OW15364   1.508   6.206   1.140  0.1471 -0.3302 -0.3462
 4929SOL    HW115365   1.557   6.212   1.058 -0.2184 -1.2510 -0.6556
 4929SOL    HW215366   1.428   6.255   1.124  0.2433 -0.1937 -0.4090
 4930SOL     OW15367   6.016   5.683   8.189  0.6953 -0.1568  0.2080
 4930SOL    HW115368   6.030   5.589   8.176 -0.5118 -0.3585  0.2525
 4930SOL    HW215369   6.059   5.723   8.113  1.3774 -0.7250  0.2788
 4931SOL     OW15370   4.220   6.341   9.271  0.4555 -0.2842  0.1704
 4931SOL    HW115371   4.253   6.426   9.298  0.1685 -0.0106 -0.3245
 4931SOL    HW215372   4.136   6.332   9.315  0.1709 -0.0100 -0.3043
 4932SOL     OW15373   4.001   4.809   4.686  0.0998 -0.5081 -0.0346
 4932SOL    HW115374   4.020   4.744   4.619  1.9459 -0.4527  0.3719
 4932SOL    HW215375   4.041   4.774   4.766 -1.5047 -0.2795  0.9058
 4933SOL     OW15376   6.496   7.107   6.677 -0.0036 -0.5042  0.6179
 4933SOL    HW115377   6.436   7.149   6.615 -0.7048 -1.6235  0.5283
 4933SOL    HW215378   6.571   7.082   6.624 -0.3621 -0.9619  0.3218
 4934SOL     OW15379   9.057   3.709   0.697 -0.5180  0.1900 -0.0752
 4934SOL    HW115380   9.136   3.762   0.692 -1.2707  1.2765 -1.4154
 4934SOL    HW215381   9.017   3.733   0.781 -0.3575  1.0488 -0.2367
 4935SOL     OW15382   3.073   3.309   0.485  0.2125 -0.1972  0.5012
 4935SOL    HW115383   3.011   3.373   0.451 -0.1515 -1.6643 -1.8677
 4935SOL    HW215384   3.029   3.270   0.560 -0.8508  0.2305  0.1157
 4936SOL     OW15385   6.918   6.526   5.361  0.2097 -0.1772  0.4391
 4936SOL    HW115386   6.869   6.475   5.425  1.0692 -1.3350  0.2050
 4936SOL    HW215387   6.867   6.606   5.350 -2.0619 -1.6311 -0.3623
 4937SOL     OW15388   1.980   4.258   9.328 -0.2272 -0.5616 -0.2905
 4937SOL    HW115389   1.921   4.282   9.256  0.0609  0.8054 -0.0876
 4937SOL    HW215390   2.029   4.184   9.294  0.9778  0.9709 -2.1146
 4938SOL     OW15391   7.647   0.234   0.479  0.3335 -0.2534  0.1754
 4938SOL    HW115392   7.691   0.311   0.516 -0.1078 -0.0859  0.3516
 4938SOL    HW215393   7.665   0.240   0.385  2.4013 -1.2717  0.4333
 4939SOL     OW15394   7.634   0.314   3.494 -0.3962 -0.1263  0.3121
 4939SOL    HW115395   7.631   0.409   3.509 -0.2938 -0.0138 -0.3599
 4939SOL    HW215396   7.589   0.277   3.570 -1.9663  0.5438 -0.2364
 4940SOL     OW15397   8.563   6.006   4.290 -0.2476  0.4031  0.1230
 4940SOL    HW115398   8.531   5.994   4.201  0.6373  0.3958 -0.1988
 4940SOL    HW215399   8.600   6.094   4.291  0.9675 -0.0782  0.0821
 4941SOL     OW15400   3.458   1.018   3.907 -0.4833 -0.1997 -0.1987
 4941SOL    HW115401   3.370   0.997   3.874  0.4966 -1.4809 -2.2205
 4941SOL    HW215402   3.477   1.105   3.870 -0.8202  0.0019  0.0973
 4942SOL     OW15403   8.292   6.234   4.828 -0.3597  0.3233  1.0061
 4942SOL    HW115404   8.232   6.166   4.858 -0.7387  0.5874  0.8514
 4942SOL    HW215405   8.270   6.311   4.881  0.5786  0.1206  1.7138
 4943SOL     OW15406   3.040   9.206   9.308  0.1443  0.4762  0.1808
 4943SOL    HW115407   3.026   9.222   9.402  3.1033 -1.2792  1.0589
 4943SOL    HW215408   2.981   9.134   9.288 -0.3701  0.7272  0.7358
 4944SOL     OW15409   6.738   4.289   6.245  0.6202 -0.4502  0.2165
 4944SOL    HW115410   6.786   4.363   6.283 -1.0377  0.8597 -0.1633
 4944SOL    HW215411   6.680   4.328   6.180  0.9073 -2.2880 -1.2157
 4945SOL     OW15412   5.147   6.745   0.693 -0.2191  0.3314 -0.1044
 4945SOL    HW115413   5.177   6.802   0.623  0.8642 -1.1172 -0.8716
 4945SOL    HW215414   5.097   6.676   0.649 -0.2849 -0.1088  0.6342
 4946SOL     OW15415   4.693   8.381   2.592  0.7097  0.5654  0.5473
 4946SOL    HW115416   4.726   8.362   2.680 -0.1644  0.6454  0.9040
 4946SOL    HW215417   4.601   8.355   2.595  0.5412  1.0443 -0.1941
 4947SOL     OW15418   3.714   8.535   0.497 -0.2211 -0.4261 -0.0427
 4947SOL    HW115419   3.653   8.609   0.504 -0.5303 -0.6914  0.0706
 4947SOL    HW215420   3.775   8.548   0.569 -0.6416 -0.6164  0.3506
 4948SOL     OW15421   3.833   3.697   8.108 -0.7001  0.0841 -0.5291
 4948SOL    HW115422   3.773   3.682   8.035 -0.3669  1.0811 -1.0368
 4948SOL    HW215423   3.809   3.783   8.142 -1.2279 -0.6088  0.9342
 4949SOL     OW15424   4.747   2.932   1.784  0.2110 -0.0872  0.1502
 4949SOL    HW115425   4.764   2.841   1.758 -0.9263 -0.7043  1.4103
 4949SOL    HW215426   4.789   2.941   1.869 -0.1778  0.3847  0.2967
 4950SOL     OW15427   0.498   5.842   7.091 -0.6511 -0.1959  0.1836
 4950SOL    HW115428   0.435   5.875   7.155  1.3313  1.0717  1.5811
 4950SOL    HW215429   0.459   5.864   7.006 -2.7212 -0.7573  0.9194
 4951SOL     OW15430   7.089   6.717   6.346 -0.1572  0.0391 -0.1747
 4951SOL    HW115431   7.071   6.801   6.387 -1.2627 -0.6062  0.7353
 4951SOL    HW215432   7.184   6.710   6.347  0.0714  2.0454 -1.9359
 4952SOL     OW15433   3.737   6.507   8.999  0.3314  0.1963 -0.3309
 4952SOL    HW115434   3.745   6.593   9.040  1.7289  0.9217 -2.0009
 4952SOL    HW215435   3.814   6.459   9.029 -0.5910 -0.6212  0.8247
 4953SOL     OW15436   2.711   0.697   8.742 -0.0158  0.9666  0.0826
 4953SOL    HW115437   2.797   0.658   8.755  0.0390  0.6574 -1.0866
 4953SOL    HW215438   2.650   0.634   8.781  0.1321  0.0944 -1.0582
 4954SOL     OW15439   6.856   8.615   6.335 -0.6963 -0.2330 -0.2127
 4954SOL    HW115440   6.813   8.697   6.309  0.2684  0.9958  1.7962
 4954SOL    HW215441   6.889   8.632   6.424 -1.0013 -3.0306  0.5344
 4955SOL     OW15442   1.471   9.703   1.686  0.0218 -0.1201 -0.0632
 4955SOL    HW115443   1.492   9.711   1.778  0.2700 -1.2659 -0.0031
 4955SOL    HW215444   1.477   9.792   1.651  1.6377  0.0803  0.6587
 4956SOL     OW15445   4.362   1.186   8.090 -0.4304  0.1044  0.1710
 4956SOL    HW115446   4.396   1.209   8.176  1.2315  1.6724 -0.8240
 4956SOL    HW215447   4.346   1.092   8.093  1.8745 -0.2992  1.4559
 4957SOL     OW15448   6.973   2.646   3.150  0.5995 -0.1206  0.1641
 4957SOL    HW115449   7.060   2.683   3.165  0.9786 -1.0188  0.2447
 4957SOL    HW215450   6.983   2.552   3.166 -0.0469 -0.4587 -1.2514
 4958SOL     OW15451   5.116   2.965   4.552  0.1630  0.4182  0.0016
 4958SOL    HW115452   5.036   2.991   4.596  0.2367 -0.1804  0.5030
 4958SOL    HW215453   5.111   2.869   4.547  0.7612  0.3867 -0.1135
 4959SOL     OW15454   0.987   8.489   2.276  0.2650 -0.4518 -0.0152
 4959SOL    HW115455   1.042   8.454   2.206  0.4871  0.8303 -0.5015
 4959SOL    HW215456   0.905   8.441   2.269  0.8566 -1.4650 -0.1188
 4960SOL     OW15457   6.090   1.632   9.907 -0.1921  0.1141 -0.2924
 4960SOL    HW115458   6.177   1.592   9.897 -0.1448  0.3135 -0.7040
 4960SOL    HW215459   6.070   1.622  10.000  0.4139  0.3573 -0.1292
 4961SOL     OW15460   1.457   6.078   1.377 -0.4435 -0.1745  0.0125
 4961SOL    HW115461   1.364   6.056   1.376 -0.2042 -1.2756 -1.7788
 4961SOL    HW215462   1.468   6.140   1.304 -0.0059  1.1752  1.1676
 4962SOL     OW15463   7.599   8.826   1.025 -0.1730  0.1516  0.6217
 4962SOL    HW115464   7.542   8.754   0.998  1.3027 -0.5573 -0.7666
 4962SOL    HW215465   7.594   8.889   0.953 -0.3071  0.7752  1.1637
 4963SOL     OW15466   4.763   1.660   5.459  0.1299 -0.1231 -0.5531
 4963SOL    HW115467   4.783   1.566   5.453  0.7147 -0.1025  0.7192
 4963SOL    HW215468   4.742   1.674   5.551 -1.1368  0.7863 -0.9622
 4964SOL     OW15469   3.624   6.021   7.256 -0.0453 -0.4551  0.4707
 4964SOL    HW115470   3.612   6.006   7.349 -1.0945 -0.9234  0.2733
 4964SOL    HW215471   3.669   5.943   7.224  2.1733  0.5735  0.9134
 4965SOL     OW15472   6.455   6.927   7.150  0.6771 -0.4148  0.0604
 4965SOL    HW115473   6.522   6.961   7.210  1.4116  1.6425 -1.7691
 4965SOL    HW215474   6.380   6.986   7.162  1.3767  1.0187 -1.9952
 4966SOL     OW15475   5.866   0.075   2.779 -0.6090 -0.3312 -0.3643
 4966SOL    HW115476   5.794   0.042   2.725 -1.9651  2.0799 -0.1804
 4966SOL    HW215477   5.846   0.043   2.867 -2.1336  1.1392 -0.1066
 4967SOL     OW15478   1.697   5.356   7.739  0.7859 -0.2641 -0.1923
 4967SOL    HW115479   1.741   5.423   7.792  2.5972 -0.1060 -1.7815
 4967SOL    HW215480   1.736   5.365   7.652  0.4542 -2.8167 -0.6848
 4968SOL     OW15481   7.038   0.962   5.250  0.0045  0.3856  0.0733
 4968SOL    HW115482   7.004   0.978   5.339 -1.0396 -0.5524 -0.1448
 4968SOL    HW215483   6.977   1.009   5.193 -0.8644 -1.1575 -0.3084
 4969SOL     OW15484   2.185   0.200   2.370  0.1891 -0.8717 -0.3799
 4969SOL    HW115485   2.248   0.214   2.440 -1.0291 -1.4032  0.8710
 4969SOL    HW215486   2.109   0.252   2.394 -0.0687 -0.6389 -1.5975
 4970SOL     OW15487   6.155   7.319   1.485  0.1077 -1.1156  0.1255
 4970SOL    HW115488   6.062   7.296   1.487 -0.8181  1.7453 -2.5741
 4970SOL    HW215489   6.168   7.357   1.398  3.8544 -1.4148  0.4068
 4971SOL     OW15490   0.785   3.604   7.555  0.3977 -0.2881  0.6050
 4971SOL    HW115491   0.823   3.669   7.614  0.0836 -1.5730  2.2876
 4971SOL    HW215492   0.711   3.567   7.603  0.3447 -1.6347 -0.4456
 4972SOL     OW15493   7.779   2.130   4.284  0.6500 -0.3395  0.0013
 4972SOL    HW115494   7.763   2.039   4.259  0.6729 -0.0576 -1.1391
 4972SOL    HW215495   7.733   2.142   4.367 -0.4423 -1.0422 -0.4916
 4973SOL     OW15496   8.171   6.566   0.192 -0.6688  0.6101 -0.3719
 4973SOL    HW115497   8.198   6.490   0.141 -0.8368 -0.1054  0.5736
 4973SOL    HW215498   8.156   6.635   0.127  1.4815  0.4643 -1.0953
 4974SOL     OW15499   4.699   6.259   1.476  0.0430  0.0703 -0.3798
 4974SOL    HW115500   4.674   6.344   1.438  2.2289  2.0361  2.1523
 4974SOL    HW215501   4.794   6.255   1.463  0.1736 -1.3031  0.7895
 4975SOL     OW15502   8.428   1.958   8.126  0.1804  0.0965  0.1110
 4975SOL    HW115503   8.418   1.901   8.050  0.7875  0.6711 -0.4104
 4975SOL    HW215504   8.522   1.973   8.133 -0.0262  2.0049 -0.5125
 4976SOL     OW15505   7.936   6.295   6.268 -0.1569  0.0785 -0.2343
 4976SOL    HW115506   8.000   6.229   6.241  0.3835  0.4398  0.1335
 4976SOL    HW215507   7.875   6.301   6.194 -1.4773 -2.3324  0.5624
 4977SOL     OW15508   9.582   3.302   4.629  0.0727 -0.1592 -0.0853
 4977SOL    HW115509   9.495   3.325   4.661  0.4380  0.1030  0.7469
 4977SOL    HW215510   9.609   3.228   4.683  0.8616  0.5473  0.5198
 4978SOL     OW15511   9.476   3.311   6.832 -0.0336  0.0516  0.0782
 4978SOL    HW115512   9.433   3.370   6.893 -2.0656 -0.4308 -0.8087
 4978SOL    HW215513   9.410   3.292   6.766  1.4259 -1.0955 -1.1300
 4979SOL     OW15514   7.604   5.436   7.213 -0.1793 -0.9176  0.1978
 4979SOL    HW115515   7.694   5.467   7.218 -0.5940  0.4632 -0.4346
 4979SOL    HW215516   7.563   5.491   7.146 -1.6009 -1.2519  0.7571
 4980SOL     OW15517   5.457   8.963   1.522  0.2760  0.4179 -0.3043
 4980SOL    HW115518   5.480   8.904   1.450  2.1165  1.9453 -1.0830
 4980SOL    HW215519   5.413   9.037   1.480 -0.2188  0.5178  0.3709
 4981SOL     OW15520   0.972   2.808   9.881  0.6254 -0.1421  0.1354
 4981SOL    HW115521   0.971   2.721   9.840  0.5386 -0.3105  0.4877
 4981SOL    HW215522   1.021   2.796   9.962 -0.4938 -0.1625  0.8296
 4982SOL     OW15523   3.079   6.748   4.383 -0.3263 -0.0250 -0.1631
 4982SOL    HW115524   3.024   6.672   4.403 -0.3775 -0.1958 -0.9208
 4982SOL    HW215525   3.166   6.723   4.416 -0.8805  0.6763  2.0133
 4983SOL     OW15526   8.537   3.765   8.067 -0.3909 -0.8668  0.1888
 4983SOL    HW115527   8.592   3.842   8.057 -0.7006 -0.5920  0.5909
 4983SOL    HW215528   8.539   3.723   7.981 -1.6447  0.5537 -0.5916
 4984SOL     OW15529   6.294   2.128   5.475  0.0430 -0.0025  0.5397
 4984SOL    HW115530   6.376   2.176   5.483 -0.4558  1.1537 -0.8363
 4984SOL    HW215531   6.267   2.142   5.384 -1.3786 -0.8587  0.8031
 4985SOL     OW15532   0.250   2.555   8.165 -0.1797 -0.1116  0.1438
 4985SOL    HW115533   0.278   2.527   8.252  0.3326 -0.5381 -0.1590
 4985SOL    HW215534   0.314   2.621   8.138 -0.7642  0.5854  0.3951
 4986SOL     OW15535   8.245   2.629   3.130  0.1414 -0.1624 -0.4405
 4986SOL    HW115536   8.151   2.615   3.128  0.0957  0.2435 -1.9771
 4986SOL    HW215537   8.269   2.613   3.221 -1.3523 -0.5904 -0.0911
 4987SOL     OW15538   0.702   2.765   6.951 -0.1585 -0.3648 -0.0555
 4987SOL    HW115539   0.782   2.796   6.992  0.7079 -1.2178 -1.0469
 4987SOL    HW215540   0.668   2.699   7.012 -1.0889  1.2310  1.2176
 4988SOL     OW15541   7.190   0.771   7.634 -0.2197 -0.0877 -0.1055
 4988SOL    HW115542   7.274   0.755   7.678  0.6507 -0.6618 -1.8844
 4988SOL    HW215543   7.142   0.827   7.695  1.6569  0.6999  0.7436
 4989SOL     OW15544   9.843   8.245   7.517  0.0224  0.0136  0.3707
 4989SOL    HW115545   9.821   8.292   7.437  1.9545  0.0126 -0.2290
 4989SOL    HW215546   9.787   8.283   7.584 -1.7421 -0.0733 -0.9794
 4990SOL     OW15547   4.546   8.173   7.154 -0.4120  0.1825 -0.6078
 4990SOL    HW115548   4.513   8.261   7.135 -1.5701  0.6283  2.6681
 4990SOL    HW215549   4.635   8.187   7.186 -0.5143  0.1649 -0.3079
 4991SOL     OW15550   6.816   4.193   0.647  0.0730 -0.2414  0.5639
 4991SOL    HW115551   6.733   4.194   0.694  0.1700 -0.3621  0.7393
 4991SOL    HW215552   6.882   4.209   0.714  0.2956 -1.4240  0.6515
 4992SOL     OW15553   4.924   4.639   5.760  0.4074  0.5048 -0.0545
 4992SOL    HW115554   4.957   4.725   5.736  0.2137  1.1751  1.8628
 4992SOL    HW215555   4.833   4.639   5.730 -0.0265  1.5578  1.1695
 4993SOL     OW15556   2.836   6.471   3.190  0.4317 -0.3998 -0.3071
 4993SOL    HW115557   2.794   6.544   3.235  0.4608 -0.5275 -0.0691
 4993SOL    HW215558   2.789   6.393   3.222 -0.1171 -0.4282 -1.1429
 4994SOL     OW15559   7.824   3.960   5.926 -0.0949  1.0693  0.5811
 4994SOL    HW115560   7.861   3.890   5.872 -0.8805 -0.2333  1.6722
 4994SOL    HW215561   7.898   3.991   5.979 -0.0446  0.0661  1.1145
 4995SOL     OW15562   1.036   9.367   8.045  0.0515  0.4260 -0.6831
 4995SOL    HW115563   1.128   9.353   8.021 -0.1173 -0.0993 -1.0443
 4995SOL    HW215564   1.027   9.462   8.050  0.9530  0.4574  0.7043
 4996SOL     OW15565   5.173   8.425   1.995  0.1505  0.9110 -0.4588
 4996SOL    HW115566   5.106   8.492   2.004  0.2567  1.3498 -2.5818
 4996SOL    HW215567   5.126   8.345   1.973  0.1578  0.6171  0.5216
 4997SOL     OW15568   2.649   3.829   8.966  0.1218 -0.2352 -0.1773
 4997SOL    HW115569   2.685   3.918   8.972  0.9485 -0.3755 -2.2772
 4997SOL    HW215570   2.702   3.778   9.027  0.9395  0.3367 -0.3888
 4998SOL     OW15571   2.155   1.412   6.366  0.2160  0.2328  0.2123
 4998SOL    HW115572   2.229   1.390   6.310  0.8398 -0.6756  1.3570
 4998SOL    HW215573   2.145   1.507   6.357  1.9908  0.4808  0.5967
 4999SOL     OW15574   2.121   8.069   7.670  0.2734 -0.1418  0.1492
 4999SOL    HW115575   2.170   8.151   7.672 -1.5689  0.9963  0.4584
 4999SOL    HW215576   2.107   8.052   7.577 -0.5914  0.7045  0.1084
 5000SOL     OW15577   8.251   3.330   5.892 -0.0828  0.1233  0.0920
 5000SOL    HW115578   8.271   3.336   5.985 -0.1152  1.5779  0.0218
 5000SOL    HW215579   8.329   3.362   5.848 -0.5487  0.7011 -0.3335
 5001SOL     OW15580   5.817   1.976   4.390 -0.1093  0.4433 -0.3829
 5001SOL    HW115581   5.893   1.942   4.343  0.5847 -0.2945  1.1740
 5001SOL    HW215582   5.791   1.904   4.448 -2.2263  0.5608 -1.1044
 5002SOL     OW15583   5.404   7.465   6.240  0.3547 -0.6012 -0.3577
 5002SOL    HW115584   5.387   7.477   6.146 -3.5343  1.2038  0.3985
 5002SOL    HW215585   5.431   7.552   6.269  3.6232 -1.5974  0.0113
 5003SOL     OW15586   2.958   2.386   9.405 -0.0246  0.3106  0.1622
 5003SOL    HW115587   2.939   2.311   9.349 -1.0019 -0.5932  1.6213
 5003SOL    HW215588   3.050   2.406   9.388  0.4502 -1.6277  0.1978
 5004SOL     OW15589   8.728   8.089   5.354 -0.0665 -0.0181  0.2157
 5004SOL    HW115590   8.683   8.077   5.270  0.8432  0.9529 -0.4315
 5004SOL    HW215591   8.814   8.049   5.342 -0.4179 -1.1144  1.1693
 5005SOL     OW15592   5.348   8.565   5.012 -0.2881  0.1926  0.0734
 5005SOL    HW115593   5.388   8.644   5.051 -0.5352  0.2161  0.2800
 5005SOL    HW215594   5.415   8.498   5.022  0.1546  0.5141 -0.6282
 5006SOL     OW15595   5.695   6.717   8.653  0.5379  0.8036  0.5666
 5006SOL    HW115596   5.700   6.621   8.648  2.1975  0.8233  1.2877
 5006SOL    HW215597   5.724   6.737   8.742  1.0998  2.0403  0.1178
 5007SOL     OW15598   9.934   6.483   4.697  0.2437  0.1325 -0.1022
 5007SOL    HW115599   9.844   6.510   4.714  0.3532  0.2555  0.2935
 5007SOL    HW215600   9.926   6.406   4.640 -0.1863 -0.8768  1.2596
 5008SOL     OW15601   3.005   9.561   8.486  0.1835 -0.7557  0.5464
 5008SOL    HW115602   2.917   9.598   8.473  0.6848 -0.3381 -2.0062
 5008SOL    HW215603   2.988   9.472   8.517 -1.1862 -0.9864 -0.7351
 5009SOL     OW15604   4.160   1.527   5.702 -0.3497  0.0496  0.6263
 5009SOL    HW115605   4.241   1.576   5.685 -1.1708  1.5996  1.0185
 5009SOL    HW215606   4.162   1.511   5.796 -0.2701 -0.3590  0.5576
 5010SOL     OW15607   5.585   5.583   9.106  1.3015  0.4605  0.0037
 5010SOL    HW115608   5.536   5.642   9.048  1.0927 -0.8617 -1.2126
 5010SOL    HW215609   5.676   5.593   9.078  1.1037 -0.8798 -1.2913
 5011SOL     OW15610   0.825   0.079   4.032  0.2927  0.0695  0.7279
 5011SOL    HW115611   0.739   0.104   3.997  0.3068  0.9831  1.3199
 5011SOL    HW215612   0.851   0.004   3.979 -1.0324 -0.4505  0.7823
 5012SOL     OW15613   9.159   1.557   4.673 -0.2652 -0.0130 -0.5886
 5012SOL    HW115614   9.198   1.486   4.724 -0.3687  0.6125  0.3831
 5012SOL    HW215615   9.200   1.637   4.706  1.7159  0.2803 -3.3546
 5013SOL     OW15616   2.401   1.403   1.696 -0.1099 -0.3931  0.0675
 5013SOL    HW115617   2.401   1.472   1.763 -0.5447 -0.3175 -0.0030
 5013SOL    HW215618   2.427   1.448   1.615  0.0962 -0.4159  0.1218
 5014SOL     OW15619   1.025   4.096   7.125 -0.4790  0.1235 -0.0223
 5014SOL    HW115620   1.051   4.187   7.141 -0.9860  0.5944 -1.6838
 5014SOL    HW215621   0.996   4.064   7.211  0.4251  1.2766  0.7440
 5015SOL     OW15622   5.596   1.048   6.838 -0.0398  0.1479  0.3145
 5015SOL    HW115623   5.675   0.995   6.831 -0.4768 -0.6208  0.9219
 5015SOL    HW215624   5.589   1.068   6.932 -0.7256 -0.0610  0.3151
 5016SOL     OW15625   0.437   7.667   6.156  0.0818 -0.1349  0.0210
 5016SOL    HW115626   0.355   7.658   6.205 -0.8466  1.0121 -1.2365
 5016SOL    HW215627   0.414   7.637   6.068  1.0332  0.1587 -0.3290
 5017SOL     OW15628   4.684   7.133   4.791 -0.1034 -0.0767  0.5345
 5017SOL    HW115629   4.618   7.202   4.790  0.5049  0.5782 -1.7983
 5017SOL    HW215630   4.664   7.080   4.714  1.9338  0.0527 -0.1615
 5018SOL     OW15631   4.718   3.443   4.787  0.6979 -0.0756 -1.0426
 5018SOL    HW115632   4.806   3.475   4.772  1.3654  0.0655  2.3155
 5018SOL    HW215633   4.662   3.520   4.775  1.3446  0.4624 -0.6796
 5019SOL     OW15634   0.963   8.774   9.325  0.3529 -0.0792 -0.3041
 5019SOL    HW115635   1.003   8.746   9.242 -0.0766  0.6858 -0.7845
 5019SOL    HW215636   0.994   8.710   9.389  1.2923 -0.2603 -0.9117
 5020SOL     OW15637   6.214   3.753   9.026 -0.2641 -0.2087 -0.5684
 5020SOL    HW115638   6.278   3.778   8.960 -0.5054 -1.1947 -1.2045
 5020SOL    HW215639   6.263   3.702   9.090 -0.0296  0.7486  0.0305
 5021SOL     OW15640   7.119   9.144   3.462  0.4238 -0.0345 -0.4674
 5021SOL    HW115641   7.118   9.069   3.521 -0.3810 -0.3458 -0.8731
 5021SOL    HW215642   7.052   9.125   3.397 -0.0224  1.1827 -0.3900
 5022SOL     OW15643   5.252   0.054   8.436  0.0407  0.3551  0.4891
 5022SOL    HW115644   5.249  -0.041   8.435 -2.2398  0.3798 -0.5278
 5022SOL    HW215645   5.238   0.078   8.527 -1.2280 -0.2962  0.4859
 5023SOL     OW15646   6.050   9.276   2.833 -0.2792 -0.4380 -0.1980
 5023SOL    HW115647   5.988   9.206   2.815 -1.0484  0.3551 -0.7564
 5023SOL    HW215648   6.029   9.344   2.769 -1.3993  1.4338  1.9917
 5024SOL     OW15649   3.999   6.324   1.938 -0.2938  0.5092  0.1975
 5024SOL    HW115650   3.960   6.335   2.024  0.8338 -0.9932  0.9465
 5024SOL    HW215651   3.955   6.389   1.883 -2.4810  0.1472  1.4064
 5025SOL     OW15652   6.754   4.311   7.463 -0.4425 -0.2223 -0.2479
 5025SOL    HW115653   6.792   4.225   7.444 -2.1843 -1.0949 -0.0232
 5025SOL    HW215654   6.660   4.298   7.451 -0.9081  1.1897  1.5153
 5026SOL     OW15655   4.949   4.801   3.665 -0.5811  0.1827  0.2468
 5026SOL    HW115656   4.975   4.716   3.631  0.9391  0.5395  0.4593
 5026SOL    HW215657   4.930   4.785   3.758  1.3050  0.3601  0.6877
 5027SOL     OW15658   7.035   6.307   0.112  0.2375 -0.2211 -0.1409
 5027SOL    HW115659   7.103   6.301   0.179  0.5841 -1.0026 -0.5512
 5027SOL    HW215660   6.956   6.278   0.156  0.7263 -2.0788 -0.4175
 5028SOL     OW15661   1.644   2.411   5.263  0.3016 -0.1005  0.6731
 5028SOL    HW115662   1.569   2.354   5.278 -0.8782  0.8757 -1.2229
 5028SOL    HW215663   1.717   2.350   5.247 -1.0120 -1.1648 -1.7356
 5029SOL     OW15664   6.757   5.188   4.364  0.0715 -0.0239 -0.5980
 5029SOL    HW115665   6.843   5.149   4.347 -0.2001 -0.8724 -0.0757
 5029SOL    HW215666   6.707   5.170   4.284  0.0913 -0.3590 -0.5383
 5030SOL     OW15667   6.401   7.874   4.380 -0.3455 -0.0674  0.7030
 5030SOL    HW115668   6.350   7.948   4.413  0.5092 -0.6660  3.6147
 5030SOL    HW215669   6.391   7.806   4.446  0.8198 -1.7265 -0.7212
 5031SOL     OW15670   2.759   3.898   3.284 -0.1404 -0.8387  0.1862
 5031SOL    HW115671   2.848   3.900   3.248 -0.7210 -1.3015 -1.3843
 5031SOL    HW215672   2.703   3.922   3.210 -1.4026 -1.6826  0.8302
 5032SOL     OW15673   7.273   7.894   9.852  0.6413 -0.2057  0.0023
 5032SOL    HW115674   7.316   7.881   9.936 -3.3905 -0.5140  2.2250
 5032SOL    HW215675   7.230   7.811   9.833 -0.8535  0.7193 -0.8873
 5033SOL     OW15676   9.424   7.072   5.770  0.2139  0.3031  0.4780
 5033SOL    HW115677   9.336   7.034   5.771 -0.2300  1.1508 -1.5169
 5033SOL    HW215678   9.439   7.097   5.679  0.6919  4.3817  1.4739
 5034SOL     OW15679   7.467   6.651   1.495  0.3808  0.2061  0.2624
 5034SOL    HW115680   7.513   6.600   1.428 -0.7943 -1.2987  0.5478
 5034SOL    HW215681   7.492   6.609   1.577 -0.2039  0.4118  0.5438
 5035SOL     OW15682   7.605   0.055   9.126  0.3612 -0.0801  0.3949
 5035SOL    HW115683   7.660   0.126   9.094  1.5394 -0.9024  0.5373
 5035SOL    HW215684   7.604   0.065   9.221  2.5605 -1.6258  0.6525
 5036SOL     OW15685   1.200   9.660   1.041  0.6153 -0.5223  0.0029
 5036SOL    HW115686   1.152   9.741   1.057  1.0047 -0.4132  0.6952
 5036SOL    HW215687   1.145   9.610   0.981 -1.1941 -1.1492  2.0546
 5037SOL     OW15688   0.547   7.733   8.854  0.1452  0.3014 -0.1976
 5037SOL    HW115689   0.582   7.684   8.780 -0.7407  0.0837 -0.4763
 5037SOL    HW215690   0.476   7.785   8.818 -0.9331 -0.5207  0.6539
 5038SOL     OW15691   3.980   2.777   5.154 -0.0711 -0.6519  0.5347
 5038SOL    HW115692   3.984   2.685   5.182 -1.4506 -0.4676  1.4150
 5038SOL    HW215693   4.050   2.820   5.204 -0.8669 -0.8182  1.8558
 5039SOL     OW15694   5.811   8.682   1.445 -0.0018  0.4896 -0.6596
 5039SOL    HW115695   5.847   8.769   1.430  0.0592  0.5139 -0.3878
 5039SOL    HW215696   5.880   8.621   1.419  0.1179  0.5316 -0.4473
 5040SOL     OW15697   1.995   3.734   7.718  0.1392 -0.6034 -0.3933
 5040SOL    HW115698   1.918   3.712   7.666  0.6254 -2.1376 -0.5448
 5040SOL    HW215699   1.969   3.715   7.809 -0.1699  0.4541 -0.2508
 5041SOL     OW15700   2.435   4.736   5.497  0.0357 -0.1260 -0.0151
 5041SOL    HW115701   2.437   4.811   5.437 -1.4890  0.5825  0.7682
 5041SOL    HW215702   2.354   4.747   5.547  0.8993 -1.0794  1.6921
 5042SOL     OW15703   6.000   3.806   0.717  0.2548 -0.5626  0.2647
 5042SOL    HW115704   5.940   3.833   0.647 -0.7873 -1.4246  0.8035
 5042SOL    HW215705   5.975   3.716   0.737  0.1431 -0.1392  2.1401
 5043SOL     OW15706   1.261   9.911   1.694  0.0568  0.4249 -0.3776
 5043SOL    HW115707   1.288   9.973   1.626 -3.0729  1.4244 -0.8808
 5043SOL    HW215708   1.179   9.873   1.661  0.4331 -1.9259  1.1858
 5044SOL     OW15709   2.170   1.552   9.019 -0.4335  0.3013  0.2423
 5044SOL    HW115710   2.160   1.486   9.088 -1.3889 -0.0910 -0.2398
 5044SOL    HW215711   2.087   1.600   9.020 -2.1768 -2.1951 -3.0928
 5045SOL     OW15712   9.807   5.202   1.418 -0.1144  0.4382 -0.1094
 5045SOL    HW115713   9.786   5.247   1.336 -0.2432 -0.2098 -0.4484
 5045SOL    HW215714   9.728   5.211   1.471 -0.4074  0.0180 -0.4592
 5046SOL     OW15715   0.148   1.766   7.312 -0.5372 -0.6624  0.2268
 5046SOL    HW115716   0.155   1.852   7.270  1.2139 -0.4264  0.9195
 5046SOL    HW215717   0.146   1.786   7.405  1.3136 -1.4009  0.4566
 5047SOL     OW15718   3.879   5.166   7.172  0.0184 -0.0302 -0.4592
 5047SOL    HW115719   3.890   5.189   7.264  1.5751 -1.6763 -0.1709
 5047SOL    HW215720   3.899   5.073   7.168  1.4803  0.2877 -2.6673
 5048SOL     OW15721   6.058   9.396   5.641 -0.5821 -0.3289 -0.7496
 5048SOL    HW115722   6.047   9.458   5.713  1.0732  0.7014 -1.3400
 5048SOL    HW215723   6.013   9.436   5.567 -1.6560 -1.0443 -0.5061
 5049SOL     OW15724   7.701   9.085   3.779  0.0786  0.0382 -0.0054
 5049SOL    HW115725   7.631   9.117   3.721  1.6635  1.2779 -1.3469
 5049SOL    HW215726   7.678   9.118   3.865 -0.6112  1.0835 -0.5699
 5050SOL     OW15727   5.541   0.556   7.301  0.2811  0.5481  0.1139
 5050SOL    HW115728   5.609   0.538   7.236 -0.8667 -1.4311 -0.6295
 5050SOL    HW215729   5.499   0.637   7.270  0.3431  0.1264 -1.1159
 5051SOL     OW15730   8.934   1.427   7.373 -0.0578  0.7781  0.7443
 5051SOL    HW115731   8.851   1.380   7.358  0.2255  0.7240 -0.8555
 5051SOL    HW215732   9.001   1.366   7.342  0.4828  1.3743  0.7411
 5052SOL     OW15733   8.022   9.638   3.222 -0.2176  0.2615 -0.0871
 5052SOL    HW115734   8.089   9.628   3.154 -0.1251  0.5457 -0.0400
 5052SOL    HW215735   8.071   9.670   3.298 -0.7445  2.9766 -0.7634
 5053SOL     OW15736   6.679   4.317   9.710  0.1381  0.1513  0.0283
 5053SOL    HW115737   6.762   4.312   9.758  1.4131  2.4542 -1.7197
 5053SOL    HW215738   6.685   4.249   9.643  0.3936 -0.0175  0.2213
 5054SOL     OW15739   7.379   4.969   4.062 -0.6112 -0.1624 -0.2197
 5054SOL    HW115740   7.465   4.930   4.045 -0.5607 -0.4286  0.5726
 5054SOL    HW215741   7.396   5.039   4.125 -0.8940  0.2042 -0.5464
 5055SOL     OW15742   2.077   4.818   5.245 -0.5669 -0.3772 -0.3165
 5055SOL    HW115743   2.108   4.867   5.320 -1.1626 -2.3146  1.2968
 5055SOL    HW215744   2.031   4.882   5.191  0.4364  1.1900  0.6329
 5056SOL     OW15745   9.781   9.246   2.182  0.3832 -0.0492 -0.3494
 5056SOL    HW115746   9.722   9.287   2.120  0.0612  2.1975  1.2996
 5056SOL    HW215747   9.737   9.166   2.209 -0.9158  0.5216 -0.7139
 5057SOL     OW15748   1.450   7.500   5.879  0.6407  0.5799  0.1913
 5057SOL    HW115749   1.437   7.459   5.965  0.2803  1.7627  0.7295
 5057SOL    HW215750   1.382   7.461   5.824 -0.1523  0.9533  0.8772
 5058SOL     OW15751   7.727   2.903   1.576 -0.4844  0.3465  0.4565
 5058SOL    HW115752   7.747   2.809   1.586  0.2140  0.5464  1.0421
 5058SOL    HW215753   7.704   2.932   1.664 -1.0634  0.6544  0.2092
 5059SOL     OW15754   8.763   4.884   1.361  0.3522  0.2507  0.1904
 5059SOL    HW115755   8.803   4.939   1.293  2.3553 -0.8498  0.4191
 5059SOL    HW215756   8.722   4.812   1.312  0.0789  0.4857  0.0637
 5060SOL     OW15757   7.010   2.993   1.437  0.1077  0.5554 -0.1182
 5060SOL    HW115758   6.922   2.988   1.473 -0.0237  1.0941 -0.3581
 5060SOL    HW215759   7.058   2.923   1.482 -0.4267  0.2842  0.0405
 5061SOL     OW15760   0.142   2.228   4.494 -0.4489 -0.5075  0.1226
 5061SOL    HW115761   0.226   2.200   4.457 -0.4792 -0.4370 -0.0003
 5061SOL    HW215762   0.082   2.155   4.475 -0.4707 -0.4603  0.0098
 5062SOL     OW15763   9.267   6.611   7.007  0.1257 -0.3980  0.3431
 5062SOL    HW115764   9.286   6.522   6.976  1.6386  0.6941 -2.1120
 5062SOL    HW215765   9.311   6.617   7.092  3.1737 -0.8899 -1.1069
 5063SOL     OW15766   3.116   8.564   9.271 -0.2368  0.5006  0.8086
 5063SOL    HW115767   3.111   8.633   9.338 -1.2734 -0.7575  2.1000
 5063SOL    HW215768   3.030   8.563   9.231 -0.1713  0.0789  0.6718
 5064SOL     OW15769   4.888   1.960   6.377 -0.7633  0.3159  0.1096
 5064SOL    HW115770   4.883   1.876   6.332 -1.4996  1.0798 -1.3104
 5064SOL    HW215771   4.963   2.004   6.337 -1.6313  1.1405 -0.6643
 5065SOL     OW15772   7.177   3.334   2.006  0.3070  0.1451 -0.0667
 5065SOL    HW115773   7.103   3.274   1.993 -0.2760  0.7522  0.4586
 5065SOL    HW215774   7.143   3.420   1.983  0.7860  0.4631  0.3921
 5066SOL     OW15775   7.301   5.045   9.158  0.2921 -0.0921 -0.4314
 5066SOL    HW115776   7.209   5.032   9.133  0.2687  0.3371 -0.5649
 5066SOL    HW215777   7.298   5.111   9.227  0.3787 -1.0938  0.5651
 5067SOL     OW15778   4.207   4.083   1.463 -0.0739  0.6370  0.9150
 5067SOL    HW115779   4.216   4.112   1.373 -0.1413  0.3357  0.8119
 5067SOL    HW215780   4.140   4.141   1.501  0.1997  0.9875  0.8712
 5068SOL     OW15781   4.667   5.018   6.611  0.1781 -0.1455 -0.2074
 5068SOL    HW115782   4.686   5.098   6.660  1.5597 -0.8793  0.5021
 5068SOL    HW215783   4.699   4.947   6.666  0.1341 -1.1166 -1.3895
 5069SOL     OW15784   1.514   9.467   5.893  0.4027 -0.3791 -0.1613
 5069SOL    HW115785   1.462   9.398   5.851  1.1080 -1.3163  0.4660
 5069SOL    HW215786   1.560   9.510   5.821  1.3007 -1.7144 -0.4014
 5070SOL     OW15787   8.691   3.373   4.617 -0.1528 -0.4416 -0.2428
 5070SOL    HW115788   8.598   3.396   4.619  0.3988  2.2727 -0.7299
 5070SOL    HW215789   8.727   3.414   4.695  1.0297  0.8502 -1.4104
 5071SOL     OW15790   4.504   6.068   9.560  0.4753  0.1148  0.2799
 5071SOL    HW115791   4.417   6.055   9.521 -0.5775  0.0757  2.4974
 5071SOL    HW215792   4.565   6.034   9.495 -1.2919 -1.7234 -0.5038
 5072SOL     OW15793   0.295   5.035   3.809  0.0865 -0.2598 -0.5513
 5072SOL    HW115794   0.302   5.021   3.903 -2.0539 -1.2616 -0.4614
 5072SOL    HW215795   0.298   5.130   3.797 -1.0407 -0.0367  0.7229
 5073SOL     OW15796   4.121   7.895   8.253  0.0849  0.0445  0.4001
 5073SOL    HW115797   4.179   7.955   8.205  0.6768 -0.7237  0.1239
 5073SOL    HW215798   4.064   7.859   8.186 -0.1936  0.2061  0.5489
 5074SOL     OW15799   8.963   6.886   8.574 -0.1930  0.7919  0.2502
 5074SOL    HW115800   8.958   6.832   8.495  0.5336 -2.7825  2.4346
 5074SOL    HW215801   9.050   6.925   8.572  1.7408 -3.0017  1.2947
 5075SOL     OW15802   5.787   3.905   1.444 -0.5110  0.2136  0.2231
 5075SOL    HW115803   5.742   3.890   1.361  0.2584  0.5252 -0.2689
 5075SOL    HW215804   5.824   3.993   1.435 -0.8363  0.4489  1.0961
 5076SOL     OW15805   6.494   7.810   4.850  0.1614 -0.9210  0.4906
 5076SOL    HW115806   6.448   7.779   4.773 -0.5211  1.4854 -0.1465
 5076SOL    HW215807   6.565   7.864   4.816  1.3116 -1.7181  1.5315
 5077SOL     OW15808   7.174   8.358   9.859 -0.5389  0.3804  0.0445
 5077SOL    HW115809   7.210   8.444   9.880  0.0259  0.6294 -1.7147
 5077SOL    HW215810   7.187   8.306   9.938  1.2539  1.2559  0.3729
 5078SOL     OW15811   6.747   2.430   8.641  0.7544 -0.5692 -0.3967
 5078SOL    HW115812   6.776   2.406   8.553  0.0339 -1.6759 -0.3548
 5078SOL    HW215813   6.813   2.392   8.700  0.9823 -0.2347 -0.4328
 5079SOL     OW15814   9.888   5.558   2.492 -0.6209  0.3358  0.8244
 5079SOL    HW115815   9.870   5.549   2.399  1.9419 -1.8732  0.4423
 5079SOL    HW215816   9.946   5.634   2.498  0.5899 -0.5316  0.3630
 5080SOL     OW15817   8.392   6.592   3.113  0.2908 -0.4901  0.3424
 5080SOL    HW115818   8.473   6.570   3.067 -0.5171 -3.6816  0.1998
 5080SOL    HW215819   8.328   6.606   3.044 -0.4020 -3.1004  0.3580
 5081SOL     OW15820   9.153   9.910   2.032  0.3300 -0.3692  0.2167
 5081SOL    HW115821   9.237   9.899   2.076  0.0658 -1.0022  0.5664
 5081SOL    HW215822   9.175   9.921   1.939  0.7677 -0.9548  0.2539
 5082SOL     OW15823   1.989   3.497   0.434 -0.1502  0.2428 -0.4263
 5082SOL    HW115824   2.016   3.407   0.453 -0.3060  0.2845 -0.0019
 5082SOL    HW215825   2.068   3.539   0.400  0.0089  0.0335 -0.3206
 5083SOL     OW15826   2.244   5.577   9.593 -0.7332 -0.0905 -0.3705
 5083SOL    HW115827   2.267   5.499   9.644 -1.0921  0.7018  1.0441
 5083SOL    HW215828   2.197   5.543   9.517  2.2666 -1.5449 -1.7588
 5084SOL     OW15829   3.593   3.921   4.861 -0.2680  0.2458  0.2687
 5084SOL    HW115830   3.572   3.948   4.771 -0.9763 -2.1041 -0.3247
 5084SOL    HW215831   3.645   3.842   4.851  0.9984  0.8113  1.9491
 5085SOL     OW15832   8.677   5.195   2.145 -0.1082  0.2867  0.2097
 5085SOL    HW115833   8.591   5.228   2.119 -0.0768  1.3770  1.3806
 5085SOL    HW215834   8.671   5.100   2.133 -2.0293  0.1492  1.7519
 5086SOL     OW15835   7.904   2.760   5.943  0.1804 -0.2637 -0.2487
 5086SOL    HW115836   7.915   2.806   6.027 -0.7807  2.1290 -1.3303
 5086SOL    HW215837   7.988   2.770   5.899  0.2735 -0.3758 -0.0964
 5087SOL     OW15838   9.175   5.381   6.140  0.1085 -0.0498 -0.8908
 5087SOL    HW115839   9.261   5.346   6.165  0.9098  0.2584 -2.9900
 5087SOL    HW215840   9.123   5.304   6.117 -0.4984 -0.3023  1.1386
 5088SOL     OW15841   3.104   5.533   7.875 -0.4740 -0.2488 -0.1841
 5088SOL    HW115842   3.081   5.455   7.825 -0.8673  0.4765 -1.1745
 5088SOL    HW215843   3.199   5.536   7.873 -0.4123 -1.1368  0.5718
 5089SOL     OW15844   7.629   6.694   2.703 -0.1311 -0.1373 -0.7610
 5089SOL    HW115845   7.643   6.785   2.677  0.7698 -0.4821 -1.5374
 5089SOL    HW215846   7.717   6.657   2.711 -0.3813 -0.3767  1.7011
 5090SOL     OW15847   3.611   5.022   0.742 -0.2439 -0.7155 -0.0349
 5090SOL    HW115848   3.524   5.046   0.710 -0.8657 -0.9298  1.3909
 5090SOL    HW215849   3.634   4.943   0.693 -0.5700 -0.2922 -0.8775
 5091SOL     OW15850   1.358   0.026   8.043 -0.2696  0.1543 -0.5346
 5091SOL    HW115851   1.318  -0.009   8.123  1.2605  0.6336  0.4923
 5091SOL    HW215852   1.297   0.093   8.014 -0.1352  1.1068  1.1906
 5092SOL     OW15853   8.442   1.339   4.170  0.2247  0.0234 -0.1706
 5092SOL    HW115854   8.512   1.275   4.159 -0.1265 -0.0631 -2.2258
 5092SOL    HW215855   8.486   1.424   4.166  0.5368 -0.0197  1.4266
 5093SOL     OW15856   4.345   9.142   1.410 -0.0495  0.0897  0.0003
 5093SOL    HW115857   4.272   9.202   1.430  0.5840  1.1988 -0.8940
 5093SOL    HW215858   4.416   9.172   1.466 -1.2128 -3.3563  3.8462
 5094SOL     OW15859   3.694   0.356   7.159 -0.5056  0.0944  0.1691
 5094SOL    HW115860   3.710   0.323   7.071  0.9197  1.2680 -0.0534
 5094SOL    HW215861   3.761   0.424   7.171  0.8928 -1.6172  3.0199
 5095SOL     OW15862   7.351   9.637   2.263  0.5171  0.0808 -0.6205
 5095SOL    HW115863   7.430   9.672   2.304  0.0702 -1.0388  1.3044
 5095SOL    HW215864   7.280   9.660   2.323 -0.4987  0.2300 -1.8386
 5096SOL     OW15865   3.375   8.032   4.756 -0.1363  0.3235 -0.2049
 5096SOL    HW115866   3.404   7.950   4.796 -0.1029 -0.3609 -1.5982
 5096SOL    HW215867   3.412   8.031   4.668  1.2113  2.5806  0.2469
 5097SOL     OW15868   9.613   5.713   9.515  0.2556  0.2521  0.0049
 5097SOL    HW115869   9.592   5.648   9.447 -2.7139  1.3453 -0.2965
 5097SOL    HW215870   9.669   5.667   9.576  0.1216 -1.8851 -1.3713
 5098SOL     OW15871   0.494   5.783   9.277 -0.1587  0.4594  0.6088
 5098SOL    HW115872   0.589   5.777   9.263 -0.4736 -0.2631 -1.6110
 5098SOL    HW215873   0.471   5.699   9.317 -0.0567 -0.0376 -0.3410
 5099SOL     OW15874   3.667   6.171   5.721 -0.1890  0.1323 -0.4322
 5099SOL    HW115875   3.693   6.226   5.647 -0.9032 -1.0504 -1.6103
 5099SOL    HW215876   3.750   6.143   5.760  0.2143  0.4292 -1.0540
 5100SOL     OW15877   0.038   1.877   5.450 -0.0311  0.0685 -0.3715
 5100SOL    HW115878   0.091   1.951   5.481  0.3896 -0.0829 -0.7213
 5100SOL    HW215879   0.004   1.836   5.530  1.0690 -0.3398 -0.0995
 5101SOL     OW15880   3.454   5.353   6.601  0.1390 -0.0392 -0.0889
 5101SOL    HW115881   3.542   5.386   6.619 -0.6484  2.3759 -0.2914
 5101SOL    HW215882   3.437   5.291   6.672  3.0144 -2.8980 -1.6051
 5102SOL     OW15883   3.483   0.746   1.626  0.3767 -0.2451 -0.2636
 5102SOL    HW115884   3.427   0.815   1.661  0.6210 -0.2045  0.0541
 5102SOL    HW215885   3.531   0.713   1.702  0.5674 -0.4789 -0.4835
 5103SOL     OW15886   0.167   9.277   1.840  0.0855  0.0862 -0.3147
 5103SOL    HW115887   0.164   9.372   1.832 -0.0316  0.0658 -0.5070
 5103SOL    HW215888   0.202   9.262   1.928  1.6164  0.2962 -0.8654
 5104SOL     OW15889   5.626   9.542   6.867 -0.2770 -0.3207  0.8292
 5104SOL    HW115890   5.532   9.546   6.884 -0.2646 -1.4404  1.2089
 5104SOL    HW215891   5.657   9.631   6.887 -1.1479 -0.1034  1.2892
 5105SOL     OW15892   4.751   8.919   7.714 -0.0112  0.5599 -0.4668
 5105SOL    HW115893   4.721   9.005   7.685  0.1001  1.5917  2.1432
 5105SOL    HW215894   4.681   8.859   7.689 -1.0767  1.7756 -0.4944
 5106SOL     OW15895   7.393   4.557   2.518 -0.4127  0.6034 -0.4392
 5106SOL    HW115896   7.464   4.524   2.573 -1.4159 -1.3915 -0.2265
 5106SOL    HW215897   7.430   4.558   2.429 -0.4844 -1.9614 -0.5945
 5107SOL     OW15898   1.103   8.906   0.174  0.4599 -0.1565  0.3643
 5107SOL    HW115899   1.143   8.875   0.092 -1.1378 -0.5927 -0.2776
 5107SOL    HW215900   1.178   8.920   0.232  1.9890  3.1044 -2.0407
 5108SOL     OW15901   9.203   8.731   4.452 -0.5979 -0.0435 -0.1267
 5108SOL    HW115902   9.262   8.701   4.383 -1.0464 -1.3799  0.0456
 5108SOL    HW215903   9.253   8.797   4.500 -0.0475  0.4327 -1.3181
 5109SOL     OW15904   8.717   1.121   3.091  0.1973  0.5670  0.4185
 5109SOL    HW115905   8.768   1.138   3.170  1.9806  1.9714 -0.9542
 5109SOL    HW215906   8.627   1.141   3.116  0.5290 -0.2390  2.4106
 5110SOL     OW15907   9.517   3.872   7.536 -0.7734 -0.1070 -0.2071
 5110SOL    HW115908   9.560   3.857   7.620 -0.5580 -1.4929 -0.5433
 5110SOL    HW215909   9.509   3.967   7.531 -1.0745 -0.0001  1.5117
 5111SOL     OW15910   1.983   4.957   9.699 -0.1072  0.2994  0.4802
 5111SOL    HW115911   1.889   4.939   9.698 -0.7095  2.7868 -2.4800
 5111SOL    HW215912   1.990   5.045   9.736  0.7950  0.8350 -0.8640
 5112SOL     OW15913   9.476   5.770   3.240 -0.2015  0.0947 -0.4341
 5112SOL    HW115914   9.467   5.684   3.200 -1.1510  0.1597 -0.3840
 5112SOL    HW215915   9.456   5.757   3.332  0.9683  0.1363 -0.1584
 5113SOL     OW15916   7.652   9.831   7.872 -0.5469  0.1530  0.3574
 5113SOL    HW115917   7.562   9.855   7.895 -0.9440 -0.1131 -0.8010
 5113SOL    HW215918   7.655   9.736   7.884 -0.8341 -0.0243 -0.8412
 5114SOL     OW15919   4.183   2.180   5.500 -0.3510  0.0371  0.2704
 5114SOL    HW115920   4.127   2.157   5.574  0.7767  0.5691  1.3349
 5114SOL    HW215921   4.271   2.156   5.529  0.0673 -0.1431 -1.0899
 5115SOL     OW15922   2.380   0.587   8.965 -0.4011 -0.8548 -0.1705
 5115SOL    HW115923   2.301   0.536   8.983 -0.8734 -0.5066 -1.1566
 5115SOL    HW215924   2.450   0.522   8.955 -0.9646 -1.3161 -1.2737
 5116SOL     OW15925   6.898   9.817   2.552  0.1923 -0.0500  0.2040
 5116SOL    HW115926   6.956   9.818   2.476  0.6848 -2.2071  0.5024
 5116SOL    HW215927   6.835   9.747   2.533  0.1129 -0.3830  1.6212
 5117SOL     OW15928   8.815   4.708   6.726 -0.1645  0.4372 -0.5170
 5117SOL    HW115929   8.857   4.686   6.809 -0.2603  0.3134 -0.5024
 5117SOL    HW215930   8.815   4.804   6.725  0.1059  0.4387 -0.5110
 5118SOL     OW15931   3.777   7.570   5.606 -0.1303  0.0025  0.3254
 5118SOL    HW115932   3.736   7.654   5.622  0.2661  0.6409 -1.6890
 5118SOL    HW215933   3.707   7.515   5.570  0.0112  0.0762 -0.0773
 5119SOL     OW15934   1.198   0.403   4.431  0.4486  0.4820 -0.1058
 5119SOL    HW115935   1.151   0.442   4.358 -0.6943  0.3493  0.5374
 5119SOL    HW215936   1.285   0.444   4.429  0.4025  0.5364 -1.4631
 5120SOL     OW15937   7.133   7.598   9.410 -0.3137  0.2640 -0.0702
 5120SOL    HW115938   7.176   7.682   9.390 -1.2816  0.8492  0.2754
 5120SOL    HW215939   7.051   7.601   9.362 -1.7924  0.8577  2.3555
 5121SOL     OW15940   7.810   2.820   5.487 -0.1317 -0.7486  0.1218
 5121SOL    HW115941   7.876   2.879   5.523  0.2318 -0.1927 -1.3562
 5121SOL    HW215942   7.741   2.818   5.553 -0.6390  2.1906 -0.1669
 5122SOL     OW15943   2.170   2.674   6.228 -0.0503  0.2762 -0.3889
 5122SOL    HW115944   2.219   2.646   6.305  1.1344  2.2092 -0.3634
 5122SOL    HW215945   2.079   2.678   6.257  0.2190 -0.1551  0.5456
 5123SOL     OW15946   3.944   2.542   8.397  1.1206  0.1065  0.3462
 5123SOL    HW115947   3.984   2.625   8.370  3.1179 -0.8737  0.0455
 5123SOL    HW215948   3.868   2.532   8.339  1.7886  0.9681 -0.7325
 5124SOL     OW15949   5.372   1.629   0.465 -0.4012  0.1649  0.0519
 5124SOL    HW115950   5.373   1.725   0.462  0.9335  0.1693 -3.2641
 5124SOL    HW215951   5.283   1.606   0.438 -0.3960  0.4797 -0.2476
 5125SOL     OW15952   1.427   4.286   5.252  0.2606  0.0426 -0.0416
 5125SOL    HW115953   1.448   4.195   5.232  0.3547  0.1445 -0.4175
 5125SOL    HW215954   1.399   4.323   5.168  0.0557  0.3127  0.1455
 5126SOL     OW15955   3.426   5.741   8.367  0.0220 -0.0105 -0.3109
 5126SOL    HW115956   3.478   5.766   8.444 -0.5344  1.4482 -0.3674
 5126SOL    HW215957   3.381   5.661   8.393 -0.2924  0.5525  0.9734
 5127SOL     OW15958   4.429   1.491   7.687  0.3359 -0.0579 -0.0750
 5127SOL    HW115959   4.523   1.479   7.702  0.2541  0.0502  0.5490
 5127SOL    HW215960   4.387   1.438   7.755 -0.0994 -1.9504 -1.7138
 5128SOL     OW15961   8.642   7.113   4.190 -0.0947 -0.8463 -0.4419
 5128SOL    HW115962   8.669   7.205   4.185  1.4837 -1.3109 -1.0428
 5128SOL    HW215963   8.615   7.101   4.281  0.3804  0.0188 -0.1710
 5129SOL     OW15964   8.811   9.177   0.839 -0.0367  0.2850  0.2271
 5129SOL    HW115965   8.869   9.135   0.776  0.6211 -0.7759  1.4939
 5129SOL    HW215966   8.806   9.116   0.913 -0.4030  1.6857  1.4210
 5130SOL     OW15967   3.523   8.298   9.844 -0.4878  0.1629 -0.1501
 5130SOL    HW115968   3.599   8.356   9.846 -1.2842  1.2235 -0.2107
 5130SOL    HW215969   3.508   8.282   9.750  0.1671 -0.7369 -0.1097
 5131SOL     OW15970   9.589   7.363   4.037  0.0545 -0.0890 -0.2765
 5131SOL    HW115971   9.644   7.420   4.092  2.0287 -0.7366 -1.4652
 5131SOL    HW215972   9.573   7.415   3.958 -2.1408  0.5546  0.5343
 5132SOL     OW15973   8.616   3.865   2.305  0.1746  0.2636  0.1888
 5132SOL    HW115974   8.610   3.932   2.373 -1.3734 -0.1349  0.4788
 5132SOL    HW215975   8.657   3.790   2.349 -2.1119 -0.4968  1.1407
 5133SOL     OW15976   9.724   5.641   7.905  0.8167 -0.0584 -0.0892
 5133SOL    HW115977   9.804   5.604   7.943  1.7042  0.8634 -0.9792
 5133SOL    HW215978   9.690   5.699   7.973 -0.1027 -1.7817  0.9726
 5134SOL     OW15979   4.987   9.648   2.055 -0.1027 -0.0845  0.3087
 5134SOL    HW115980   4.957   9.625   2.143  0.9219  1.5637  1.1412
 5134SOL    HW215981   5.082   9.635   2.058  0.1176  1.2321 -0.1032
 5135SOL     OW15982   4.135   3.997   6.657  0.1205 -0.6012 -0.2477
 5135SOL    HW115983   4.080   4.049   6.598 -0.6522 -2.2766 -1.0733
 5135SOL    HW215984   4.224   4.028   6.640 -0.3262  0.5296 -0.6015
 5136SOL     OW15985   3.413   3.634   6.167  0.1753  0.1928  0.1082
 5136SOL    HW115986   3.418   3.687   6.247  2.0888 -2.0073  1.5621
 5136SOL    HW215987   3.335   3.581   6.178 -0.4152  0.9735 -0.2332
 5137SOL     OW15988   8.202   3.460   5.011 -0.4364 -0.2566  0.0718
 5137SOL    HW115989   8.134   3.527   5.009 -2.1861 -1.9630 -2.1245
 5137SOL    HW215990   8.190   3.416   5.095  0.7184  2.0102  1.5366
 5138SOL     OW15991   2.346   6.632   0.909  0.8670 -0.4981 -0.0965
 5138SOL    HW115992   2.339   6.571   0.835  0.1739 -0.4562 -0.0734
 5138SOL    HW215993   2.366   6.716   0.868 -0.5118 -0.2620 -0.3471
 5139SOL     OW15994   1.006   1.177   5.231 -0.6838 -0.0342 -0.0484
 5139SOL    HW115995   1.085   1.134   5.199 -0.2561 -0.0438  0.9830
 5139SOL    HW215996   0.998   1.149   5.322 -1.5838  0.3854  0.0192
 5140SOL     OW15997   8.479   6.101   3.383  0.4372 -0.1874 -0.3748
 5140SOL    HW115998   8.403   6.144   3.422  0.3632 -1.8511  1.4997
 5140SOL    HW215999   8.443   6.030   3.329  0.6253  0.2266 -1.0553
 5141SOL     OW16000   6.788   7.727   9.432 -0.2869  0.4941 -0.3735
 5141SOL    HW116001   6.800   7.664   9.503 -0.4478 -0.1819 -0.9372
 5141SOL    HW216002   6.709   7.698   9.387  0.8854 -0.2942 -2.0510
 5142SOL     OW16003   7.078   5.639   5.953  0.0133 -0.1060  0.7778
 5142SOL    HW116004   7.002   5.582   5.955 -0.1883  0.1844  1.4279
 5142SOL    HW216005   7.141   5.593   5.897  0.0915 -1.2691  1.7797
 5143SOL     OW16006   6.667   4.274   2.568 -0.0599  0.0071 -0.6371
 5143SOL    HW116007   6.636   4.362   2.588  0.1406 -0.1698  0.4996
 5143SOL    HW216008   6.708   4.282   2.482 -0.0174  1.0269 -0.5331
 5144SOL     OW16009   0.279   4.122   1.754  0.5789  0.1713 -0.1675
 5144SOL    HW116010   0.276   4.085   1.666 -2.2358 -0.3623  0.0574
 5144SOL    HW216011   0.232   4.205   1.747  0.4083  0.1687  0.8164
 5145SOL     OW16012   3.674   7.691   5.122 -0.3431 -0.0835  0.3541
 5145SOL    HW116013   3.767   7.670   5.131 -0.5476 -0.8489  0.8843
 5145SOL    HW216014   3.666   7.782   5.150  0.3980  0.3207 -0.7188
 5146SOL     OW16015   5.701   2.808   1.369  0.5711 -0.1711  0.3886
 5146SOL    HW116016   5.613   2.820   1.404 -0.4464  0.5184 -2.2002
 5146SOL    HW216017   5.740   2.895   1.372  0.0029  0.1788 -1.2344
 5147SOL     OW16018   5.694   8.504   6.417 -0.3897  0.1482  0.0094
 5147SOL    HW116019   5.746   8.511   6.498 -1.0400  1.2704  0.3591
 5147SOL    HW216020   5.608   8.476   6.447 -0.6609  0.6615 -0.2823
 5148SOL     OW16021   1.934   6.051   1.810  0.2003  0.6247 -0.2824
 5148SOL    HW116022   1.936   5.975   1.752 -0.0720  0.8064 -0.5322
 5148SOL    HW216023   1.961   6.125   1.755  1.9467  0.4876  0.3245
 5149SOL     OW16024   9.677   5.771   5.610  0.1796 -0.0996 -0.1887
 5149SOL    HW116025   9.640   5.748   5.695  1.4759 -2.4155 -0.1756
 5149SOL    HW216026   9.700   5.864   5.618  1.9353 -0.6612  2.6894
 5150SOL     OW16027   0.637   8.359   7.987 -0.2530 -0.2460  0.1677
 5150SOL    HW116028   0.553   8.378   8.027 -0.6988 -0.2202 -0.7464
 5150SOL    HW216029   0.661   8.440   7.941  0.1176 -0.3559  0.1596
 5151SOL     OW16030   1.673   4.146   3.179 -0.5546 -0.2786  0.1599
 5151SOL    HW116031   1.744   4.203   3.149 -0.3956 -1.0920 -1.0747
 5151SOL    HW216032   1.641   4.188   3.259 -0.8087  1.8347 -0.9882
 5152SOL     OW16033   7.304   0.260   7.083 -0.0944  0.4350 -0.3933
 5152SOL    HW116034   7.230   0.273   7.142 -0.7635 -0.1025 -1.0921
 5152SOL    HW216035   7.264   0.228   7.002  1.0521 -1.5690 -0.2206
 5153SOL     OW16036   2.305   6.261   4.389  0.4828  0.1991 -0.1787
 5153SOL    HW116037   2.390   6.253   4.345  1.0795  0.2566  0.9132
 5153SOL    HW216038   2.321   6.326   4.458  0.3287 -1.7411  1.7892
 5154SOL     OW16039   1.314   9.479   7.376 -0.2153  0.0519  0.4571
 5154SOL    HW116040   1.406   9.505   7.382  0.0478 -0.8887  0.6112
 5154SOL    HW216041   1.280   9.527   7.301  1.1310 -1.6664 -1.3280
 5155SOL     OW16042   4.274   9.901   7.426  0.6700 -0.5645  0.0726
 5155SOL    HW116043   4.354   9.924   7.474  0.6280 -1.2403  0.4875
 5155SOL    HW216044   4.286   9.940   7.339  1.2211 -0.2253  0.2940
 5156SOL     OW16045   4.684   0.359   4.999  0.9291  0.2401 -0.1252
 5156SOL    HW116046   4.706   0.266   5.004  1.9601  0.4626 -0.3400
 5156SOL    HW216047   4.761   0.404   5.034  0.9155  1.0595 -1.0910
 5157SOL     OW16048   3.753   6.766   9.085  0.0643 -0.6244 -0.1093
 5157SOL    HW116049   3.679   6.797   9.033  0.3286  0.5585  0.1873
 5157SOL    HW216050   3.804   6.844   9.104  1.2964 -1.3897 -0.1355
 5158SOL     OW16051   7.658   3.969   6.173 -0.2775 -0.4482  0.5153
 5158SOL    HW116052   7.710   3.979   6.094 -0.7176  0.9438  0.3901
 5158SOL    HW216053   7.680   3.881   6.205  0.4465 -0.7392 -0.7406
 5159SOL     OW16054   1.776   0.274   8.615  0.2541  0.2176  0.3045
 5159SOL    HW116055   1.692   0.239   8.644  0.1587 -0.4273 -0.6784
 5159SOL    HW216056   1.760   0.366   8.598 -0.2259  0.1183  0.2209
 5160SOL     OW16057   0.212   3.621   9.009  0.0781 -0.6372  0.1434
 5160SOL    HW116058   0.159   3.599   9.086 -0.1274 -0.8406 -0.0552
 5160SOL    HW216059   0.157   3.679   8.957  0.4703  0.0461  0.4706
 5161SOL     OW16060   2.657   7.537   3.276  0.6626  0.6181  0.2813
 5161SOL    HW116061   2.729   7.523   3.213  1.1573  0.6009  0.8387
 5161SOL    HW216062   2.606   7.456   3.272  2.0330 -0.3720  1.5912
 5162SOL     OW16063   6.164   0.157   4.314 -0.3191 -0.2091 -0.2917
 5162SOL    HW116064   6.190   0.248   4.330  1.5086 -0.6825 -0.4028
 5162SOL    HW216065   6.128   0.158   4.225 -0.5940  0.4600 -0.1788
 5163SOL     OW16066   0.298   7.482   3.334 -0.2135 -0.9038  0.3502
 5163SOL    HW116067   0.334   7.541   3.268  0.2542 -1.1150  0.4164
 5163SOL    HW216068   0.205   7.476   3.312  0.1892 -2.1105 -1.1562
 5164SOL     OW16069   9.227   4.582   9.911  0.5789 -0.2448 -0.5734
 5164SOL    HW116070   9.171   4.644   9.959  1.7738 -0.5697  1.3507
 5164SOL    HW216071   9.208   4.497   9.951  1.9498 -0.4540 -0.3198
 5165SOL     OW16072   7.468   2.010   4.258 -0.5050  0.4908  0.2943
 5165SOL    HW116073   7.517   1.974   4.333  1.0823 -0.7923 -1.2755
 5165SOL    HW216074   7.418   2.082   4.295  0.6470  0.2548  2.4956
 5166SOL     OW16075   5.183   9.405   5.808  0.0442  0.1329  0.3778
 5166SOL    HW116076   5.260   9.377   5.857  0.4360 -0.0919 -0.3412
 5166SOL    HW216077   5.152   9.483   5.853 -0.0613 -0.5002  1.4196
 5167SOL     OW16078   6.209   1.099   2.033 -0.0816  0.5249  0.0548
 5167SOL    HW116079   6.161   1.156   1.973  0.9359  0.9639 -0.3798
 5167SOL    HW216080   6.287   1.074   1.983  0.3422  0.1700  0.8828
 5168SOL     OW16081   5.844   3.830   5.237 -0.2606 -0.8075 -0.1683
 5168SOL    HW116082   5.807   3.891   5.173 -0.7352  0.3821  1.1866
 5168SOL    HW216083   5.798   3.748   5.220 -0.6990 -0.3946 -1.0585
 5169SOL     OW16084   8.844   8.316   8.367  0.6586 -0.2206  0.3939
 5169SOL    HW116085   8.888   8.234   8.388  1.0611 -0.2739 -0.6198
 5169SOL    HW216086   8.909   8.368   8.321  0.5763  0.9038  1.4903
 5170SOL     OW16087   7.875   1.621   6.929 -0.2760  0.0125  0.0427
 5170SOL    HW116088   7.919   1.538   6.944 -1.7997 -1.1777 -1.6871
 5170SOL    HW216089   7.943   1.677   6.891  0.2366 -1.1589 -0.8285
 5171SOL     OW16090   6.514   2.777   4.694  0.7433 -0.0308  0.0079
 5171SOL    HW116091   6.564   2.831   4.632  0.3846 -1.7658 -1.8828
 5171SOL    HW216092   6.560   2.694   4.695 -0.7210 -0.8695  0.0869
 5172SOL     OW16093   3.918   1.933   9.859  0.1615 -0.0125 -0.4333
 5172SOL    HW116094   3.941   2.026   9.853  1.3346 -0.3707 -2.0759
 5172SOL    HW216095   4.002   1.888   9.867 -0.4524 -0.8191  3.7922
 5173SOL     OW16096   6.085   9.377   6.789  0.0065 -0.2172  0.1472
 5173SOL    HW116097   6.066   9.401   6.699 -1.9106  0.2230  0.6336
 5173SOL    HW216098   6.004   9.339   6.822  0.5148  0.0764  1.8283
 5174SOL     OW16099   0.703   7.815   9.178  0.1164  0.3447 -0.2913
 5174SOL    HW116100   0.625   7.760   9.179 -0.1495  0.6352 -1.9760
 5174SOL    HW216101   0.672   7.899   9.144  0.9174  0.8726  0.2588
 5175SOL     OW16102   5.541   2.414   3.820  0.4005  0.1534 -0.0682
 5175SOL    HW116103   5.534   2.359   3.898 -0.4092 -2.3564 -1.7778
 5175SOL    HW216104   5.602   2.367   3.763  2.0410  2.6061 -0.5047
 5176SOL     OW16105   8.742   7.889   0.844  0.0545 -0.2727  0.0459
 5176SOL    HW116106   8.751   7.835   0.765 -2.8319  0.7506 -1.1317
 5176SOL    HW216107   8.667   7.947   0.825 -1.3730 -0.5851  3.8678
 5177SOL     OW16108   9.233   7.169  10.001  0.0439  0.5947  0.2901
 5177SOL    HW116109   9.207   7.166   9.909  0.1701 -0.9434  0.2825
 5177SOL    HW216110   9.308   7.229  10.002 -0.5314  1.3460 -0.4488
 5178SOL     OW16111   3.712   9.251   6.255  0.2936  1.1749 -0.0172
 5178SOL    HW116112   3.752   9.331   6.289 -1.1079  1.5814  0.7328
 5178SOL    HW216113   3.644   9.282   6.195  1.2126  0.4904 -1.4584
 5179SOL     OW16114   4.054   9.666   9.355  0.3690  0.0512 -0.1745
 5179SOL    HW116115   4.026   9.685   9.444 -1.6303 -1.2525 -0.4563
 5179SOL    HW216116   4.089   9.749   9.322 -1.8546  1.4662  0.7673
 5180SOL     OW16117   0.049   0.829   7.713 -0.0600  0.1451 -0.3165
 5180SOL    HW116118  -0.038   0.791   7.729 -0.2776  1.4709  2.1011
 5180SOL    HW216119   0.032   0.922   7.696  0.8835  0.7013  1.4550
 5181SOL     OW16120   6.424   2.030   1.787 -0.7727 -0.3088  0.3546
 5181SOL    HW116121   6.369   2.046   1.864 -0.9446 -0.7991  0.3376
 5181SOL    HW216122   6.464   1.944   1.803 -2.2076 -1.2635 -0.8894
 5182SOL     OW16123   1.268   9.459   3.294  0.6958 -0.4044 -0.3317
 5182SOL    HW116124   1.284   9.430   3.204 -1.5904 -0.3287 -0.8311
 5182SOL    HW216125   1.197   9.402   3.325  0.5835  0.4101  0.9933
 5183SOL     OW16126   2.498   8.045   1.976 -0.6371 -0.2409 -0.0177
 5183SOL    HW116127   2.576   7.990   1.964 -1.1397 -1.6762  2.4670
 5183SOL    HW216128   2.531   8.124   2.019 -0.3743 -0.2207 -0.2548
 5184SOL     OW16129   5.260   1.137   5.618  0.5827 -1.0107 -0.1954
 5184SOL    HW116130   5.186   1.128   5.678 -0.3223  2.2180 -0.6123
 5184SOL    HW216131   5.242   1.072   5.549 -0.0563 -2.5434  1.3361
 5185SOL     OW16132   2.178   0.947   1.710 -0.0859  0.1221 -0.5727
 5185SOL    HW116133   2.092   0.909   1.729 -0.3566  0.5285 -0.9432
 5185SOL    HW216134   2.162   1.006   1.636  0.3271  0.9055 -0.0501
 5186SOL     OW16135   9.456   7.540   1.799 -0.6780  0.2525 -0.0594
 5186SOL    HW116136   9.452   7.615   1.859 -0.9632 -0.7843  1.2580
 5186SOL    HW216137   9.543   7.546   1.759 -0.5127  1.0172  0.3969
 5187SOL     OW16138   8.521   8.955   3.145  0.2379  0.0075 -0.4115
 5187SOL    HW116139   8.473   8.879   3.179  0.4142 -0.1791 -0.5781
 5187SOL    HW216140   8.531   8.937   3.052  0.3649  0.1918 -0.4322
 5188SOL     OW16141   5.425   1.364   6.929  0.4760 -0.6250 -0.5746
 5188SOL    HW116142   5.412   1.359   6.834  0.1496 -1.7109 -0.4824
 5188SOL    HW216143   5.496   1.303   6.947 -0.1601 -1.2125 -0.0014
 5189SOL     OW16144   6.103   5.186   9.545 -0.2885  0.3092  0.3564
 5189SOL    HW116145   6.038   5.129   9.506 -0.1650 -0.6857  1.5388
 5189SOL    HW216146   6.185   5.165   9.500  0.2149 -2.0642  2.1829
 5190SOL     OW16147   7.124   5.456   0.874 -0.3758 -0.2446 -0.5896
 5190SOL    HW116148   7.056   5.501   0.924  0.5728  0.3016  0.2423
 5190SOL    HW216149   7.132   5.506   0.793  1.4672  1.8941  0.7917
 5191SOL     OW16150   2.184   9.725   0.982 -0.2132  0.1524  0.5013
 5191SOL    HW116151   2.133   9.665   0.927 -0.1867  1.1936 -0.7163
 5191SOL    HW216152   2.227   9.668   1.046 -0.0527 -1.1431 -0.7093
 5192SOL     OW16153   9.654   2.128   9.293 -0.5479 -0.0589  0.7223
 5192SOL    HW116154   9.725   2.148   9.232 -0.3334  1.5342  1.4236
 5192SOL    HW216155   9.638   2.035   9.283  0.5152 -0.1169 -0.6525
 5193SOL     OW16156   4.751   9.815   7.535 -0.5684  0.5936 -0.7052
 5193SOL    HW116157   4.662   9.822   7.500 -0.6221  0.1647 -0.6578
 5193SOL    HW216158   4.739   9.807   7.630 -0.5850 -1.2779 -0.8300
 5194SOL     OW16159   4.948   9.258   9.318 -0.1449  1.0951 -0.2575
 5194SOL    HW116160   5.029   9.207   9.326 -1.1316 -0.2780  2.1315
 5194SOL    HW216161   4.978   9.347   9.296  1.9027  0.3600 -0.6683
 5195SOL     OW16162   2.940   3.008   7.780 -0.2546 -0.2682  0.4727
 5195SOL    HW116163   2.858   2.965   7.805 -0.8764  0.3786 -0.3884
 5195SOL    HW216164   3.004   2.937   7.775 -1.9260 -1.8027 -4.0969
 5196SOL     OW16165   6.703   7.000   1.918 -0.3463  0.2522 -0.1846
 5196SOL    HW116166   6.767   6.938   1.952 -0.9138 -0.7087 -0.8023
 5196SOL    HW216167   6.741   7.032   1.836 -0.1998  0.4873 -0.0277
 5197SOL     OW16168   2.731   9.106   9.905  0.1803 -0.0760  0.3058
 5197SOL    HW116169   2.791   9.162   9.855  1.3014  0.8219  2.5235
 5197SOL    HW216170   2.785   9.070   9.976 -1.9006  1.1010  2.6583
 5198SOL     OW16171   0.912   1.380   5.035  0.4892 -0.3247 -0.3506
 5198SOL    HW116172   0.918   1.285   5.038  1.9428 -0.2577  0.1245
 5198SOL    HW216173   0.933   1.408   5.125  0.6059  0.4441 -0.6064
 5199SOL     OW16174   7.431   5.132   4.271  0.3260  0.2926 -0.1360
 5199SOL    HW116175   7.500   5.197   4.280  0.6188 -0.1803  1.1092
 5199SOL    HW216176   7.364   5.158   4.335  0.6193 -0.8362  0.6515
 5200SOL     OW16177   2.949   5.055   7.890 -0.0451  0.2531 -0.2135
 5200SOL    HW116178   2.892   5.106   7.947  0.0375  0.2509 -0.1287
 5200SOL    HW216179   3.038   5.085   7.911 -0.0247  0.3593 -0.4472
 5201SOL     OW16180   2.343   4.731   3.099  0.1303 -0.2231 -0.9600
 5201SOL    HW116181   2.372   4.645   3.069 -0.3260 -0.4095 -0.8773
 5201SOL    HW216182   2.423   4.784   3.102  0.2993 -0.4246 -1.7303
 5202SOL     OW16183   5.795   1.389   6.372 -0.4129 -0.1888  0.2572
 5202SOL    HW116184   5.780   1.482   6.388 -0.2577  0.1264 -1.3063
 5202SOL    HW216185   5.848   1.360   6.446  1.7310  1.5656 -0.5001
 5203SOL     OW16186   9.242   8.127   3.446 -0.0527 -0.3233  0.9619
 5203SOL    HW116187   9.266   8.042   3.410  1.2873  0.8631 -1.1764
 5203SOL    HW216188   9.178   8.107   3.514 -1.7131 -2.8818 -1.1415
 5204SOL     OW16189   7.148   1.010   1.160 -0.3321  1.0512  0.1990
 5204SOL    HW116190   7.059   1.001   1.125  0.3869  0.0868 -1.5596
 5204SOL    HW216191   7.142   0.977   1.250 -0.9953 -3.2828 -1.1777
 5205SOL     OW16192   0.881   1.385   1.375  0.0720  0.1691 -0.3126
 5205SOL    HW116193   0.798   1.339   1.383 -1.2691  2.2823 -1.2536
 5205SOL    HW216194   0.933   1.354   1.450 -0.9298 -2.3323 -0.5697
 5206SOL     OW16195   6.703   6.168   9.217 -0.5751  0.7290 -0.3681
 5206SOL    HW116196   6.784   6.176   9.268 -0.7031  1.5054 -0.2835
 5206SOL    HW216197   6.718   6.223   9.140 -0.1248 -0.9444 -1.5368
 5207SOL     OW16198   0.464   3.558   9.689 -0.2015 -0.7957 -0.0064
 5207SOL    HW116199   0.493   3.530   9.602 -0.8932 -0.3066 -0.4011
 5207SOL    HW216200   0.408   3.633   9.673  0.8682  0.2641  0.9750
 5208SOL     OW16201   8.517   4.351   2.363  0.0064  0.1575  0.2812
 5208SOL    HW116202   8.479   4.293   2.428  1.0149  0.4839  1.2015
 5208SOL    HW216203   8.541   4.294   2.290 -1.3434 -0.1812  0.0857
 5209SOL     OW16204   3.968   3.860   0.766 -0.3499  0.0377  0.1360
 5209SOL    HW116205   4.002   3.795   0.705 -2.4534 -0.2289 -0.8398
 5209SOL    HW216206   4.040   3.922   0.778  1.1627 -1.5855 -0.1549
 5210SOL     OW16207   0.910   5.403   9.008  0.1008 -0.0206 -0.5572
 5210SOL    HW116208   0.833   5.429   9.059  2.3262  1.7297  2.1553
 5210SOL    HW216209   0.916   5.309   9.019 -1.1694 -0.0694 -0.1213
 5211SOL     OW16210   0.658   4.561   1.418 -0.2165 -0.0933  0.3533
 5211SOL    HW116211   0.598   4.574   1.491  0.0944 -2.2114  1.0476
 5211SOL    HW216212   0.737   4.525   1.457  1.2064  1.6863 -0.6755
 5212SOL     OW16213   6.790   8.532   8.583  0.0002 -0.6166 -0.0590
 5212SOL    HW116214   6.701   8.497   8.576  0.0084 -0.5567 -0.4806
 5212SOL    HW216215   6.833   8.476   8.648 -1.1800  1.1090  2.3705
 5213SOL     OW16216   8.897   8.851   7.325  0.1959  0.0851  0.0488
 5213SOL    HW116217   8.804   8.838   7.309  0.2863  1.2148 -1.6554
 5213SOL    HW216218   8.904   8.865   7.419 -1.4298  0.5106  0.1262
 5214SOL     OW16219   5.243   9.989   2.499 -0.0091  0.0980 -0.6787
 5214SOL    HW116220   5.250   9.899   2.531 -0.9428  0.5712  0.9680
 5214SOL    HW216221   5.292   9.989   2.417 -0.6528 -2.0991 -1.1295
 5215SOL     OW16222   0.046   4.800   2.999 -0.7335 -0.1770  0.2869
 5215SOL    HW116223  -0.035   4.807   2.949 -1.3212 -0.3585  1.1943
 5215SOL    HW216224   0.079   4.713   2.977 -0.0687  0.3886 -1.1077
 5216SOL     OW16225   4.375   8.517   3.840  0.3292  0.3361 -0.5829
 5216SOL    HW116226   4.362   8.531   3.746 -0.3962 -0.4877 -0.6164
 5216SOL    HW216227   4.411   8.600   3.871 -2.1580  1.6992 -1.0804
 5217SOL     OW16228   6.675   8.188   1.958  0.2879  0.0916 -0.4174
 5217SOL    HW116229   6.698   8.200   2.050 -0.7925  1.7945 -0.3370
 5217SOL    HW216230   6.595   8.135   1.959  0.2459  0.1561 -0.3802
 5218SOL     OW16231   4.561   2.843   8.016  0.3165  0.2189  1.2503
 5218SOL    HW116232   4.578   2.937   8.020  1.5916 -0.0239  2.1513
 5218SOL    HW216233   4.574   2.813   8.106  0.8476 -0.9630  0.7897
 5219SOL     OW16234   0.715   6.739   9.327  0.3673  0.0243  0.5114
 5219SOL    HW116235   0.673   6.804   9.271  1.2592 -0.2288 -0.4826
 5219SOL    HW216236   0.644   6.705   9.382 -0.0425  2.0986  1.3570
 5220SOL     OW16237   5.284   7.228   2.920 -0.2233 -0.4302 -0.1894
 5220SOL    HW116238   5.277   7.319   2.891  0.0535 -0.3771 -0.0989
 5220SOL    HW216239   5.368   7.225   2.966 -0.4414 -0.6258  0.1978
 5221SOL     OW16240   9.270   2.228   1.837  0.5957 -0.5426 -0.0496
 5221SOL    HW116241   9.196   2.217   1.897  0.3318  2.4855  0.3530
 5221SOL    HW216242   9.248   2.173   1.761 -1.7803 -0.2369  0.3413
 5222SOL     OW16243   0.127   0.060   6.674 -0.3127 -0.2618 -0.3372
 5222SOL    HW116244   0.172  -0.014   6.632 -0.7648  0.5102 -2.2545
 5222SOL    HW216245   0.043   0.024   6.702 -1.3881 -0.1130 -3.0413
 5223SOL     OW16246   1.823   7.901   1.174  0.2882 -0.6255 -0.0756
 5223SOL    HW116247   1.735   7.904   1.136  0.4547  0.8233 -0.3995
 5223SOL    HW216248   1.813   7.938   1.261  1.0904  2.9028 -1.3140
 5224SOL     OW16249   4.984   3.847   0.832 -0.1503 -0.3660  0.8074
 5224SOL    HW116250   4.945   3.767   0.867  1.5707 -1.0232  1.3114
 5224SOL    HW216251   5.015   3.895   0.908  0.6063 -0.1825  0.3949
 5225SOL     OW16252   0.335   6.241   3.857 -0.2113 -0.3787  0.0997
 5225SOL    HW116253   0.369   6.256   3.769  0.0058 -0.0714  0.2311
 5225SOL    HW216254   0.412   6.245   3.913 -0.5602  1.2310  0.5075
 5226SOL     OW16255   2.563   5.603   9.813 -0.4247  0.2280 -0.4800
 5226SOL    HW116256   2.491   5.588   9.875  0.2810 -0.9946  0.0925
 5226SOL    HW216257   2.636   5.631   9.868 -0.1443  0.3401 -0.9101
 5227SOL     OW16258   8.751   2.417   2.693  0.2072  0.0647  0.1129
 5227SOL    HW116259   8.804   2.436   2.770 -1.0831  2.2171  0.5807
 5227SOL    HW216260   8.672   2.375   2.728 -0.4827  1.2501  0.0458
 5228SOL     OW16261   0.667   8.855   1.004 -0.2056 -0.0849  0.1932
 5228SOL    HW116262   0.679   8.780   1.063 -1.8551  1.0519  2.1106
 5228SOL    HW216263   0.580   8.888   1.026 -0.1400  1.4759 -1.6885
 5229SOL     OW16264   9.195   8.296   8.830 -0.1494  0.1336 -0.2662
 5229SOL    HW116265   9.113   8.308   8.879  1.0398  2.0745  1.4074
 5229SOL    HW216266   9.223   8.384   8.808  2.5961 -0.2828  1.1873
 5230SOL     OW16267   1.435   3.975   0.089 -0.2495  0.3733 -0.0663
 5230SOL    HW116268   1.381   3.961   0.011 -2.0453  0.9459  0.9983
 5230SOL    HW216269   1.469   3.888   0.110 -0.9762 -0.0694 -0.6453
 5231SOL     OW16270   6.820   1.189   9.864 -0.5164  0.4539 -0.1629
 5231SOL    HW116271   6.886   1.212   9.798 -0.2721  1.6333  0.4727
 5231SOL    HW216272   6.743   1.164   9.813 -0.2498  1.1034 -0.9009
 5232SOL     OW16273   9.411   4.259   8.479 -0.1643 -0.5690  0.4372
 5232SOL    HW116274   9.351   4.333   8.466 -0.2493 -0.8785 -1.2103
 5232SOL    HW216275   9.498   4.298   8.478 -0.2757 -0.2816  1.4312
 5233SOL     OW16276   4.367   8.173   5.218  0.5098 -0.2867 -0.0259
 5233SOL    HW116277   4.329   8.150   5.303  2.0721 -0.6280  0.6201
 5233SOL    HW216278   4.322   8.116   5.155 -2.3163  1.5483  0.1618
 5234SOL     OW16279   4.439   3.753   1.688  0.3531 -0.9227 -0.0956
 5234SOL    HW116280   4.380   3.689   1.648 -0.6395 -1.1358  1.6065
 5234SOL    HW216281   4.383   3.802   1.750  1.8247 -0.7588  1.1673
 5235SOL     OW16282   0.606   8.318   7.607 -0.2599 -0.0291 -0.1804
 5235SOL    HW116283   0.598   8.242   7.665 -1.0820  0.0151 -0.2188
 5235SOL    HW216284   0.624   8.392   7.665  2.5558 -0.5188 -0.2899
 5236SOL     OW16285   0.240   8.868   3.903 -0.2055 -0.8484 -1.0043
 5236SOL    HW116286   0.233   8.826   3.989  0.3498 -0.0527 -0.5605
 5236SOL    HW216287   0.168   8.931   3.901  0.3232 -0.2201 -0.7395
 5237SOL     OW16288   6.978   4.361   5.335 -0.2149  0.7421 -0.5462
 5237SOL    HW116289   6.958   4.298   5.404  0.8336  0.5312 -0.4172
 5237SOL    HW216290   6.907   4.352   5.273 -0.7899  0.4110  0.1504
 5238SOL     OW16291   8.614   1.545   0.337 -0.4725  0.0944  0.1889
 5238SOL    HW116292   8.529   1.547   0.291 -0.2380  2.4013 -0.2668
 5238SOL    HW216293   8.659   1.624   0.307  1.5407 -0.6661  1.0384
 5239SOL     OW16294   6.486   5.466   3.890 -0.0293 -0.1394 -0.1410
 5239SOL    HW116295   6.443   5.551   3.897  0.6455  0.2531 -0.5896
 5239SOL    HW216296   6.539   5.472   3.811 -1.9810 -1.9102 -1.6876
 5240SOL     OW16297   6.332   6.744   3.559 -0.2134 -0.0251  0.4904
 5240SOL    HW116298   6.420   6.779   3.544 -0.8825  0.8064 -1.9971
 5240SOL    HW216299   6.327   6.666   3.503 -1.2377  0.3149  0.0696
 5241SOL     OW16300   2.819   0.326   2.062 -0.1518 -0.0665  0.0665
 5241SOL    HW116301   2.834   0.270   2.139 -1.8551  0.0186  0.4878
 5241SOL    HW216302   2.806   0.413   2.098 -1.8131 -0.1661 -0.2018
 5242SOL     OW16303   8.186   4.632   5.162  0.2078  0.2891  0.4727
 5242SOL    HW116304   8.147   4.679   5.235  1.4906 -1.3022  2.2879
 5242SOL    HW216305   8.280   4.646   5.172  0.5675 -1.8985  0.5907
 5243SOL     OW16306   5.277   8.230   6.056  0.0430 -0.0675  0.2420
 5243SOL    HW116307   5.240   8.301   6.108 -0.1066  0.2898 -0.3494
 5243SOL    HW216308   5.215   8.157   6.068 -0.6026  0.3697 -0.3433
 5244SOL     OW16309   5.521   5.766   8.904 -0.2434  0.0754 -0.1625
 5244SOL    HW116310   5.592   5.725   8.855 -1.1005 -0.3889 -1.0427
 5244SOL    HW216311   5.446   5.766   8.844 -0.8120  1.1678  0.5013
 5245SOL     OW16312   2.008   1.186   1.567 -0.3565 -0.2889 -0.0907
 5245SOL    HW116313   2.008   1.247   1.641  0.7041  0.4573 -0.6881
 5245SOL    HW216314   2.092   1.200   1.524 -0.7003 -1.1596 -1.0885
 5246SOL     OW16315   9.511   6.501   1.590  0.2649  0.5565 -0.1867
 5246SOL    HW116316   9.572   6.432   1.617  0.7304  0.7906 -0.6234
 5246SOL    HW216317   9.486   6.477   1.501 -0.2083  0.5213 -0.0490
 5247SOL     OW16318   8.856   6.592   9.012  0.1715 -0.3772 -0.1658
 5247SOL    HW116319   8.870   6.509   8.968  0.3738 -0.8856  0.8281
 5247SOL    HW216320   8.842   6.655   8.941 -1.1341 -1.4516 -0.9055
 5248SOL     OW16321   1.962   6.403   8.059 -0.0816 -0.6598 -0.1664
 5248SOL    HW116322   1.928   6.406   7.969  0.9021  1.0486 -0.5173
 5248SOL    HW216323   2.029   6.470   8.061  1.3068 -2.0137  1.3186
 5249SOL     OW16324   1.798   9.951   2.057  0.1457  0.0374 -0.1791
 5249SOL    HW116325   1.855  10.022   2.087 -0.5543 -0.1001  1.5855
 5249SOL    HW216326   1.832   9.873   2.100 -0.7203 -0.2182  0.0636
 5250SOL     OW16327   8.865   9.823   7.116  0.1515 -0.3206  0.4793
 5250SOL    HW116328   8.860   9.896   7.053 -1.5843  1.2617  2.2982
 5250SOL    HW216329   8.955   9.826   7.149  0.3970  0.3666 -0.2162
 5251SOL     OW16330   4.960   9.374   7.297  1.1433  0.0455  0.1507
 5251SOL    HW116331   4.870   9.398   7.318  0.9813 -0.8015  0.4650
 5251SOL    HW216332   4.965   9.381   7.202  0.8948  0.5921  0.1744
 5252SOL     OW16333   4.637   9.267   3.987  0.4318  0.1244 -0.1793
 5252SOL    HW116334   4.673   9.206   4.051 -0.7071  0.1204  0.4838
 5252SOL    HW216335   4.573   9.215   3.938 -0.3633  0.7097  0.2223
 5253SOL     OW16336   3.408   7.306   3.274  0.6875 -0.0118 -0.1226
 5253SOL    HW116337   3.358   7.381   3.242  0.5836 -0.0307 -0.0070
 5253SOL    HW216338   3.439   7.333   3.361  1.3778  0.2276 -0.4346
 5254SOL     OW16339   2.083   0.348   1.746 -0.5637  0.0809  0.3008
 5254SOL    HW116340   2.143   0.288   1.792  0.1121 -0.8698 -1.7104
 5254SOL    HW216341   2.138   0.423   1.722 -0.6464  0.0876  0.1311
 5255SOL     OW16342   9.200   8.722   0.617 -0.4389  0.5113  0.0027
 5255SOL    HW116343   9.126   8.734   0.557  0.3758 -1.0036 -1.3667
 5255SOL    HW216344   9.261   8.792   0.594 -0.7599  0.8240  0.0871
 5256SOL     OW16345   1.471   8.306   4.669  0.3493  0.2705 -0.2860
 5256SOL    HW116346   1.461   8.211   4.674  1.1487  0.2252  2.3039
 5256SOL    HW216347   1.553   8.324   4.715  0.3358  2.2072 -0.9242
 5257SOL     OW16348   6.373   2.273   4.698  0.2462  0.4424  0.3135
 5257SOL    HW116349   6.278   2.281   4.693  0.1162  0.0716  1.6916
 5257SOL    HW216350   6.401   2.352   4.744  0.3953 -0.2962  1.5420
 5258SOL     OW16351   2.072   6.032   7.269  0.3492  0.1475  0.5612
 5258SOL    HW116352   2.042   5.955   7.221  0.4552  1.5761 -1.9199
 5258SOL    HW216353   2.166   6.019   7.281  0.0437 -1.0327  2.0740
 5259SOL     OW16354   8.231   8.275   9.562 -0.0410  0.1863 -0.1213
 5259SOL    HW116355   8.281   8.306   9.485  0.1680 -1.4403 -0.6706
 5259SOL    HW216356   8.292   8.286   9.635  0.3941  0.1233 -0.4651
 5260SOL     OW16357   4.125   3.268   1.816  0.2824  0.0211  0.4074
 5260SOL    HW116358   4.081   3.293   1.735 -1.0883 -0.8410  0.8587
 5260SOL    HW216359   4.058   3.276   1.883  1.4750  0.9894  1.5264
 5261SOL     OW16360   5.847   5.580   8.843  0.5870 -0.2547 -0.0311
 5261SOL    HW116361   5.881   5.496   8.874  2.5142 -0.4401 -2.3415
 5261SOL    HW216362   5.913   5.612   8.782 -1.8528  1.0836 -2.2020
 5262SOL     OW16363   9.368   3.467   0.044 -0.5929 -0.2025 -0.4845
 5262SOL    HW116364   9.434   3.409   0.006 -0.9373 -0.9859  0.0912
 5262SOL    HW216365   9.416   3.519   0.109 -0.5390 -0.8036 -0.0336
 5263SOL     OW16366   8.193   7.387   7.004 -0.1832 -0.1075  0.3570
 5263SOL    HW116367   8.194   7.413   6.912  0.5452 -1.5646 -0.0900
 5263SOL    HW216368   8.163   7.464   7.051 -0.7276  0.6175 -1.1178
 5264SOL     OW16369  -0.010   3.818   0.248 -0.2560 -0.2729 -0.5682
 5264SOL    HW116370  -0.014   3.839   0.155 -1.5228  1.9185 -0.0981
 5264SOL    HW216371   0.083   3.811   0.268  0.0116 -1.4290 -2.1076
 5265SOL     OW16372   8.738   4.028   2.842  0.3813 -0.1609  0.6788
 5265SOL    HW116373   8.747   4.032   2.937  1.1262  0.3978  0.5895
 5265SOL    HW216374   8.808   3.970   2.813 -2.0684 -3.4650  0.7496
 5266SOL     OW16375   4.426   1.648   2.917 -0.1751 -0.0123  0.6967
 5266SOL    HW116376   4.512   1.635   2.955 -0.0715  0.9622  0.8189
 5266SOL    HW216377   4.407   1.566   2.870  0.9192 -0.1274  0.4480
 5267SOL     OW16378   3.603   4.217   8.078  0.2452  0.5126  0.8715
 5267SOL    HW116379   3.691   4.191   8.052  0.0103 -0.3005  0.8787
 5267SOL    HW216380   3.607   4.313   8.083  0.9103  0.5358  0.1057
 5268SOL     OW16381   3.603   2.350   5.661 -0.3011  0.7222 -0.0378
 5268SOL    HW116382   3.651   2.345   5.744  1.7132 -1.8047 -1.2034
 5268SOL    HW216383   3.645   2.422   5.613  3.4393 -2.0694 -1.4604
 5269SOL     OW16384   7.366   2.819   3.955  0.3855  0.0811 -0.2039
 5269SOL    HW116385   7.389   2.825   4.048 -0.5050 -0.9587  0.1055
 5269SOL    HW216386   7.277   2.854   3.950  0.1031 -0.6564 -0.5102
 5270SOL     OW16387   4.953   5.291   3.412  0.1231 -0.2568  0.4171
 5270SOL    HW116388   4.977   5.374   3.371  0.7088 -0.5814  0.0919
 5270SOL    HW216389   4.983   5.224   3.351 -0.5637 -0.7121  0.5608
 5271SOL     OW16390   3.661   7.796   5.649  0.4245 -0.0191  0.4737
 5271SOL    HW116391   3.567   7.813   5.643  0.2633 -0.8578  0.4594
 5271SOL    HW216392   3.679   7.789   5.742  0.1268 -1.5929  0.4377
 5272SOL     OW16393   9.256   4.731   1.716  1.0552 -0.3846  0.5812
 5272SOL    HW116394   9.246   4.667   1.646 -1.6956  1.0541 -0.5138
 5272SOL    HW216395   9.262   4.815   1.670 -1.6953  0.6903  1.9761
 5273SOL     OW16396   1.649   0.722   2.944  0.0395 -0.4655  0.0311
 5273SOL    HW116397   1.639   0.809   2.983  1.6270 -1.7000  3.7097
 5273SOL    HW216398   1.560   0.691   2.930 -0.6086  2.2676 -3.1036
 5274SOL     OW16399   5.893   9.172   1.554  0.3242  0.3795 -0.0782
 5274SOL    HW116400   5.846   9.150   1.635 -1.4238  4.0243  0.0761
 5274SOL    HW216401   5.985   9.160   1.577 -0.0477  2.1380  2.8430
 5275SOL     OW16402   6.676   8.344   5.519 -0.0145 -0.3920  0.2397
 5275SOL    HW116403   6.721   8.260   5.508  0.6064 -0.0520  0.0903
 5275SOL    HW216404   6.615   8.349   5.447 -0.5776 -1.0381  0.6649
 5276SOL     OW16405   8.644   7.591   8.902  0.1392  0.4410 -0.2836
 5276SOL    HW116406   8.556   7.572   8.936  0.6720 -1.2986  0.2139
 5276SOL    HW216407   8.642   7.685   8.884 -1.3456  0.7361  1.1288
 5277SOL     OW16408   5.503   7.527   5.693  0.0407  0.2808 -0.6533
 5277SOL    HW116409   5.500   7.456   5.629  0.8323  0.3310 -0.7586
 5277SOL    HW216410   5.418   7.569   5.687 -0.3577 -0.5251 -0.7439
 5278SOL     OW16411   3.102   7.485   6.077  0.2312 -0.0222  0.1937
 5278SOL    HW116412   3.011   7.476   6.104  0.4844  0.0300  1.1112
 5278SOL    HW216413   3.146   7.410   6.116  0.2786 -1.0665 -1.7672
 5279SOL     OW16414   6.816   4.923   3.832  0.6556  0.2722 -0.1295
 5279SOL    HW116415   6.730   4.896   3.801  1.4955 -2.5126 -0.2911
 5279SOL    HW216416   6.833   4.868   3.909  3.7388 -2.0981 -2.2470
 5280SOL     OW16417   6.248   7.915   1.569 -0.3814  0.0397 -0.0016
 5280SOL    HW116418   6.328   7.877   1.606 -1.1941 -2.3100 -0.5193
 5280SOL    HW216419   6.206   7.957   1.644  0.6617  0.1236  0.5648
 5281SOL     OW16420   5.993   4.535   7.520  0.0719  0.6537  0.2873
 5281SOL    HW116421   5.965   4.627   7.515  1.6419  1.0867 -1.3670
 5281SOL    HW216422   6.055   4.533   7.593 -0.9874  0.5753  1.2212
 5282SOL     OW16423   1.411   1.711   3.775  0.5329 -0.0224 -0.0259
 5282SOL    HW116424   1.423   1.618   3.793  2.0935  0.2661  0.6052
 5282SOL    HW216425   1.371   1.714   3.688  1.1499 -1.2824 -0.3754
 5283SOL     OW16426   5.721   8.367   8.226  0.0452  0.1884 -0.1337
 5283SOL    HW116427   5.635   8.328   8.212  1.1708 -2.6724  0.1646
 5283SOL    HW216428   5.717   8.402   8.315 -1.2580  1.5292 -0.6823
 5284SOL     OW16429   0.040   0.484   3.461 -0.3825  0.2422 -0.5036
 5284SOL    HW116430  -0.017   0.527   3.398 -2.5214 -0.9893  0.4779
 5284SOL    HW216431  -0.011   0.409   3.493  1.7682 -0.9119  0.4995
 5285SOL     OW16432   3.048   5.948   6.069 -0.5959 -0.1570 -0.2656
 5285SOL    HW116433   2.993   5.869   6.067  1.0987 -1.3818 -1.0117
 5285SOL    HW216434   3.130   5.921   6.028  1.2342  1.0881  2.2798
 5286SOL     OW16435   3.776   5.156   2.977  0.2718  0.2537  0.4932
 5286SOL    HW116436   3.717   5.198   3.041  1.7077 -1.3006  3.0180
 5286SOL    HW216437   3.746   5.065   2.974  1.5284 -0.1855  0.6224
 5287SOL     OW16438   3.317   1.171   2.965 -0.4736  0.0215  0.1635
 5287SOL    HW116439   3.269   1.216   3.034  0.6283 -0.0137  0.9870
 5287SOL    HW216440   3.394   1.134   3.009 -0.3106 -0.9536 -0.8723
 5288SOL     OW16441   3.421   7.904   5.691 -0.2232  0.3227 -0.2453
 5288SOL    HW116442   3.339   7.951   5.675 -0.5794 -0.2418 -0.0850
 5288SOL    HW216443   3.429   7.900   5.786  0.4471  1.1532 -0.2536
 5289SOL     OW16444   7.840   7.921   9.590  0.2043 -0.0956  0.5693
 5289SOL    HW116445   7.797   7.944   9.673 -0.2323  0.2617  0.2445
 5289SOL    HW216446   7.872   8.005   9.555  0.7285 -0.2938  0.5589
 5290SOL     OW16447   2.920   4.151   6.576  0.5837  0.6320  0.2976
 5290SOL    HW116448   2.898   4.142   6.483  0.2106  1.6396  0.2798
 5290SOL    HW216449   2.994   4.091   6.589 -0.9091 -1.3914 -0.0756
 5291SOL     OW16450   9.306   6.539   6.335 -0.4134  0.2276 -0.2899
 5291SOL    HW116451   9.325   6.628   6.305 -0.7021  0.6039  0.6115
 5291SOL    HW216452   9.253   6.501   6.265  0.5494  0.4110 -1.1446
 5292SOL     OW16453   6.229   7.963   9.823  0.0705  0.1003 -0.0949
 5292SOL    HW116454   6.253   8.055   9.823  1.2450 -0.1833 -0.7478
 5292SOL    HW216455   6.304   7.918   9.861 -0.9739 -0.4977  1.3646
 5293SOL     OW16456   8.706   2.816   0.731 -0.0734 -0.5643 -0.7607
 5293SOL    HW116457   8.679   2.860   0.651 -3.4138  2.1186  1.5706
 5293SOL    HW216458   8.793   2.852   0.749  0.0181  0.0630 -2.2993
 5294SOL     OW16459   7.840   4.750   5.405 -0.3377  0.1073  0.3400
 5294SOL    HW116460   7.864   4.657   5.398 -1.6241 -0.1957 -0.4243
 5294SOL    HW216461   7.829   4.778   5.314  1.7445  1.5055  0.4707
 5295SOL     OW16462   5.340   9.623   6.014 -0.3594 -0.3651  0.3672
 5295SOL    HW116463   5.340   9.645   5.921  0.7447 -1.4160  0.0967
 5295SOL    HW216464   5.423   9.657   6.047 -0.7582  0.0348  0.9928
 5296SOL     OW16465   8.630   4.030   4.559  0.0343 -0.2271  0.5063
 5296SOL    HW116466   8.593   4.069   4.480 -0.2646  0.6211  1.0458
 5296SOL    HW216467   8.646   4.105   4.617  0.4558 -0.8113  1.1640
 5297SOL     OW16468   4.954   2.377   7.564  0.2123 -0.9711  0.0363
 5297SOL    HW116469   4.880   2.418   7.521 -0.7171 -0.0878  2.3185
 5297SOL    HW216470   5.000   2.331   7.494 -1.1922  0.3280 -1.8367
 5298SOL     OW16471   1.725   5.990   4.527  0.0749 -0.0673  0.1064
 5298SOL    HW116472   1.763   6.013   4.442  0.0780  0.5106  0.2616
 5298SOL    HW216473   1.776   6.039   4.591  0.1844 -0.6381  0.4620
 5299SOL     OW16474   9.703   2.080   6.441 -0.0565  0.1324  0.1952
 5299SOL    HW116475   9.761   2.156   6.430  0.6580 -0.2442  1.2606
 5299SOL    HW216476   9.646   2.083   6.364  0.7575  1.0524 -0.4032
 5300SOL     OW16477   9.009   5.079   4.900 -0.7783 -1.0791 -0.2339
 5300SOL    HW116478   9.103   5.095   4.891 -0.3353 -3.7809 -1.5480
 5300SOL    HW216479   8.977   5.076   4.810 -1.8803 -1.3182  0.1582
 5301SOL     OW16480   5.957   5.280   8.807 -0.2771 -0.7550  0.0380
 5301SOL    HW116481   6.007   5.238   8.737 -1.6292  1.3493 -2.3119
 5301SOL    HW216482   5.866   5.275   8.779 -0.9967 -0.6807  2.1557
 5302SOL     OW16483   5.983   4.753   3.523 -0.2214  0.0998  0.5099
 5302SOL    HW116484   5.998   4.820   3.589  0.9802 -1.0419  1.4601
 5302SOL    HW216485   5.890   4.731   3.532 -0.6298  1.6078  0.1781
 5303SOL     OW16486   9.538  -0.003   8.157 -0.0651 -0.6255  0.0379
 5303SOL    HW116487   9.502   0.086   8.164 -0.3153 -0.8343  2.1246
 5303SOL    HW216488   9.563  -0.012   8.065 -1.7916  0.9166 -0.6476
 5304SOL     OW16489   9.943   2.660   0.630 -0.3751 -0.2500 -0.4423
 5304SOL    HW116490  10.034   2.641   0.650 -0.4738 -1.8820 -1.3213
 5304SOL    HW216491   9.928   2.749   0.662  1.2286 -0.3362  0.6141
 5305SOL     OW16492   7.387   8.037   4.079 -0.2491  0.0070  0.0650
 5305SOL    HW116493   7.378   8.120   4.125  2.1574 -0.2992  1.2757
 5305SOL    HW216494   7.467   7.998   4.115 -0.4284 -2.1136 -1.5910
 5306SOL     OW16495   5.843   0.953   1.766 -0.1694  0.3030 -0.6689
 5306SOL    HW116496   5.817   0.899   1.692 -3.1369  0.6105 -0.0094
 5306SOL    HW216497   5.885   1.029   1.727 -1.6816  0.4674 -2.1072
 5307SOL     OW16498   3.375   2.619   3.586  0.5007 -0.0575 -0.5947
 5307SOL    HW116499   3.330   2.676   3.523 -0.4614 -0.0528  0.0727
 5307SOL    HW216500   3.439   2.676   3.629  0.6818  0.1062 -1.0701
 5308SOL     OW16501   0.177   4.923   0.977  0.2214  0.4732  0.7499
 5308SOL    HW116502   0.207   4.837   0.948  0.4196  0.8614 -0.2465
 5308SOL    HW216503   0.219   4.935   1.063 -0.7332 -0.8896  1.4421
 5309SOL     OW16504   8.136   6.044   5.441 -0.3030  0.1387  0.1848
 5309SOL    HW116505   8.057   6.048   5.385 -0.2366 -2.5286 -0.2120
 5309SOL    HW216506   8.105   6.008   5.524  0.2045  0.8909  0.7145
 5310SOL     OW16507   9.341   3.932   4.476  0.7394 -0.1039  0.0407
 5310SOL    HW116508   9.316   3.930   4.568  1.9148  1.0154  0.4134
 5310SOL    HW216509   9.290   4.004   4.439  0.0309 -0.7525 -0.2842
 5311SOL     OW16510   3.636   8.005   2.207  0.0806 -0.0082 -0.1016
 5311SOL    HW116511   3.554   7.957   2.191 -0.7198  1.2693 -0.0243
 5311SOL    HW216512   3.689   7.989   2.129 -1.0350  0.6907 -1.0361
 5312SOL     OW16513   3.709   9.655   0.510 -0.1181  0.5021  0.6023
 5312SOL    HW116514   3.709   9.559   0.507 -1.2253  0.4566  1.4581
 5312SOL    HW216515   3.627   9.681   0.468 -0.5585  0.9985  1.7278
 5313SOL     OW16516   7.528   3.005   1.071 -0.3084  0.7618 -0.0846
 5313SOL    HW116517   7.588   3.009   1.146 -0.9776  0.7732  0.4574
 5313SOL    HW216518   7.444   2.977   1.108 -0.1122 -1.5315 -1.1535
 5314SOL     OW16519   1.775   9.253   1.513 -0.0024 -0.2679  0.1067
 5314SOL    HW116520   1.828   9.328   1.486  0.1906  0.3628  2.0854
 5314SOL    HW216521   1.701   9.252   1.452  0.8591  0.4956 -0.9882
 5315SOL     OW16522   5.059   5.023   3.536  0.8454 -0.2223  0.1883
 5315SOL    HW116523   5.035   5.105   3.578  0.2579 -0.6937  0.8061
 5315SOL    HW216524   5.017   4.955   3.590 -0.0169 -0.8467 -1.2015
 5316SOL     OW16525   9.006   8.754   1.408  0.5474 -0.3116  0.4683
 5316SOL    HW116526   9.101   8.741   1.415  0.6755  1.1682  2.1385
 5316SOL    HW216527   8.996   8.846   1.385 -0.4994 -0.5760 -0.1978
 5317SOL     OW16528   6.953   5.409   5.783  0.4667  0.3477 -0.3564
 5317SOL    HW116529   6.877   5.459   5.814  2.1030  2.9724 -0.1831
 5317SOL    HW216530   6.991   5.464   5.714  3.3341  0.2377  0.9616
 5318SOL     OW16531   6.037   2.316   1.301 -0.7728  0.7545  0.0905
 5318SOL    HW116532   6.035   2.260   1.378 -0.9162 -1.2340 -1.2895
 5318SOL    HW216533   5.958   2.370   1.308 -2.0269 -1.0212  0.2235
 5319SOL     OW16534   0.988   4.136   3.480  0.1263 -0.3138  0.0781
 5319SOL    HW116535   1.082   4.150   3.472  0.2817 -0.6387  1.2136
 5319SOL    HW216536   0.959   4.121   3.390  0.7498  2.1218 -0.6283
 5320SOL     OW16537   3.467   4.143   8.547  0.1906 -0.0871  0.1873
 5320SOL    HW116538   3.414   4.077   8.592 -1.4390 -0.2167 -1.7586
 5320SOL    HW216539   3.503   4.096   8.471  0.3961  0.8425 -0.3077
 5321SOL     OW16540   2.849   7.782   9.746  0.4848 -0.8515 -0.7175
 5321SOL    HW116541   2.878   7.713   9.806 -2.5034 -1.1798  0.5622
 5321SOL    HW216542   2.867   7.864   9.793 -0.6378 -1.0569  0.1351
 5322SOL     OW16543   2.144   1.601   0.664 -0.1463 -0.3173 -0.2143
 5322SOL    HW116544   2.193   1.681   0.643  0.6735 -0.6601  0.3578
 5322SOL    HW216545   2.150   1.594   0.759  1.4668 -2.1044 -0.4014
 5323SOL     OW16546   2.344   0.385   9.676  0.2988 -0.4715  0.0008
 5323SOL    HW116547   2.363   0.307   9.624 -0.2054 -0.1369 -0.7081
 5323SOL    HW216548   2.403   0.380   9.750  1.0566 -0.9531 -0.6215
 5324SOL     OW16549   8.674   4.110   7.138 -0.2951  0.3335  0.5682
 5324SOL    HW116550   8.581   4.127   7.119 -0.1946 -0.9403 -1.3488
 5324SOL    HW216551   8.721   4.154   7.068  0.4051 -0.8365  0.2838
 5325SOL     OW16552   7.017   6.001   3.394  0.3583  0.3370 -0.4085
 5325SOL    HW116553   7.055   6.010   3.307 -0.9738 -2.3958 -1.3973
 5325SOL    HW216554   6.951   5.932   3.384 -2.2549  2.2590  2.0007
 5326SOL     OW16555   0.976   6.451   8.901 -0.3761 -0.3100  1.0046
 5326SOL    HW116556   0.891   6.417   8.873 -1.0715  0.5715  1.9177
 5326SOL    HW216557   0.966   6.547   8.897  0.4977 -0.1901  1.3458
 5327SOL     OW16558   1.179   6.579   5.910  0.8080  0.2671 -0.0507
 5327SOL    HW116559   1.214   6.621   5.988 -0.6058 -0.3985  0.9999
 5327SOL    HW216560   1.161   6.489   5.937  0.8156 -0.1415 -1.3164
 5328SOL     OW16561   0.424   6.276   4.139  0.0770 -0.3232 -0.1475
 5328SOL    HW116562   0.440   6.194   4.092  0.2849  0.6066 -1.7841
 5328SOL    HW216563   0.373   6.251   4.215  0.6466 -2.0457 -0.2914
 5329SOL     OW16564   2.394   6.614   0.418 -0.1088  0.0795 -0.9461
 5329SOL    HW116565   2.331   6.634   0.349 -1.2089  0.6584  0.1812
 5329SOL    HW216566   2.411   6.520   0.408 -0.5905  0.0668 -1.7134
 5330SOL     OW16567   0.009   7.077   3.555  0.4471  0.1621 -1.0956
 5330SOL    HW116568   0.010   6.990   3.515 -0.3782  0.5331 -1.9694
 5330SOL    HW216569   0.016   7.061   3.649 -0.6465 -0.9072 -1.1837
 5331SOL     OW16570   7.205   0.615   8.128  0.4464  0.4205  0.6065
 5331SOL    HW116571   7.131   0.642   8.074 -0.5931 -1.9387  0.7283
 5331SOL    HW216572   7.205   0.676   8.201 -1.0424  0.8271  0.2949
 5332SOL     OW16573   4.999   1.892   7.283 -0.0834  0.0884  0.0760
 5332SOL    HW116574   5.054   1.815   7.294  0.4758  0.4788  0.0605
 5332SOL    HW216575   4.997   1.933   7.370  1.9805  1.6058 -0.5182
 5333SOL     OW16576   1.620   7.748   1.461 -0.2188 -0.2051 -0.2960
 5333SOL    HW116577   1.654   7.701   1.537 -2.3643 -0.1105  0.8309
 5333SOL    HW216578   1.593   7.833   1.496  1.0533  0.8197 -1.7236
 5334SOL     OW16579   6.706   3.021   7.163  0.2383 -0.0404 -0.3042
 5334SOL    HW116580   6.734   3.105   7.128  2.1551 -1.5916 -2.7843
 5334SOL    HW216581   6.611   3.028   7.168  0.3065  2.0652 -0.9690
 5335SOL     OW16582   6.751   5.521   5.314 -0.4036 -0.0910 -0.0725
 5335SOL    HW116583   6.677   5.500   5.372 -2.0663  1.9393 -1.3011
 5335SOL    HW216584   6.815   5.564   5.371 -1.5366  0.9032  0.5061
 5336SOL     OW16585   5.143   6.247   2.383  0.2465 -0.3915  0.0851
 5336SOL    HW116586   5.208   6.293   2.436  1.3419 -1.0841 -0.6155
 5336SOL    HW216587   5.061   6.259   2.431  1.1781 -0.9666  1.9209
 5337SOL     OW16588   5.317   6.909   7.042  0.2984  0.3864 -0.5351
 5337SOL    HW116589   5.361   6.919   6.958  0.1515 -0.0884 -0.6726
 5337SOL    HW216590   5.253   6.840   7.027  0.5539  0.0088  0.0785
 5338SOL     OW16591   1.844   5.477   1.660  0.0910  0.3705 -0.2288
 5338SOL    HW116592   1.905   5.506   1.728 -1.8389  0.6041  1.5153
 5338SOL    HW216593   1.833   5.384   1.676 -0.5712  0.4770 -0.0267
 5339SOL     OW16594   9.877   3.468   9.425  0.3881  0.8136  0.4266
 5339SOL    HW116595   9.966   3.485   9.457  1.6888  1.8518 -3.2729
 5339SOL    HW216596   9.887   3.395   9.364 -1.3470  0.9130 -0.0195
 5340SOL     OW16597   3.120   8.419   7.656  0.5450 -0.3680 -0.1148
 5340SOL    HW116598   3.171   8.434   7.577  0.2382  0.7817 -0.1068
 5340SOL    HW216599   3.050   8.359   7.628 -0.4021  1.1217 -1.0901
 5341SOL     OW16600   5.438   2.776   5.778  0.4743  0.1786  0.5493
 5341SOL    HW116601   5.378   2.705   5.755  1.4466 -0.5860  0.3129
 5341SOL    HW216602   5.503   2.776   5.708 -0.6347  2.6765 -0.5884
 5342SOL     OW16603   9.916   7.846   3.230 -0.0629 -0.0962  0.1490
 5342SOL    HW116604   9.876   7.830   3.315 -2.8384 -0.5382 -1.1489
 5342SOL    HW216605   9.925   7.760   3.190  0.0895  0.2122 -0.5001
 5343SOL     OW16606   7.778   7.619   1.913  0.2522 -0.4197  0.8247
 5343SOL    HW116607   7.761   7.713   1.919 -1.6969 -0.6922  0.4829
 5343SOL    HW216608   7.709   7.579   1.968 -2.0529 -1.7995 -2.7043
 5344SOL     OW16609   1.230   9.636   2.617 -0.1344  0.0090 -0.3206
 5344SOL    HW116610   1.322   9.650   2.642  0.4807 -1.9146 -1.2861
 5344SOL    HW216611   1.184   9.627   2.700  0.9923 -1.3057  0.2025
 5345SOL     OW16612   5.280   9.363   9.584  0.4984  0.4233  0.0914
 5345SOL    HW116613   5.256   9.450   9.616 -0.6976 -0.5808  2.1336
 5345SOL    HW216614   5.198   9.314   9.585  1.2391 -0.8739 -0.5629
 5346SOL     OW16615   9.895   6.846   1.199 -0.3297 -0.4733  0.1516
 5346SOL    HW116616   9.870   6.918   1.141  0.1846 -0.9843 -0.7335
 5346SOL    HW216617   9.959   6.884   1.259 -0.8015  0.0436  0.3339
 5347SOL     OW16618   5.462   4.479   5.683 -0.2541  0.2506 -0.3902
 5347SOL    HW116619   5.457   4.384   5.684 -0.4036  0.2563  0.7818
 5347SOL    HW216620   5.380   4.507   5.642 -0.1142 -0.1209 -0.9331
 5348SOL     OW16621   0.553   9.042   8.216 -0.1571  0.0611 -0.0627
 5348SOL    HW116622   0.472   9.023   8.168  0.3430  1.9704 -1.8116
 5348SOL    HW216623   0.562   9.137   8.211  3.1969 -0.1917 -1.7350
 5349SOL     OW16624   2.350   4.558   5.987 -0.2443  0.0133  0.3935
 5349SOL    HW116625   2.262   4.592   5.971 -0.5794 -0.3334  1.3928
 5349SOL    HW216626   2.403   4.594   5.916 -1.5436 -1.2134 -1.2973
 5350SOL     OW16627   7.974   5.062   2.244 -0.2811  0.5748  0.1912
 5350SOL    HW116628   7.955   4.978   2.286  0.5816  0.4811  0.4160
 5350SOL    HW216629   8.041   5.041   2.179  1.4996  1.4052  1.6711
 5351SOL     OW16630   5.881   0.575   8.759  0.3249 -0.1774 -0.3963
 5351SOL    HW116631   5.907   0.570   8.851  1.9773 -2.4713 -0.8822
 5351SOL    HW216632   5.964   0.576   8.711 -0.4782 -0.9181 -1.8924
 5352SOL     OW16633   2.788   1.532   0.534 -0.6140 -0.1191 -0.2259
 5352SOL    HW116634   2.827   1.566   0.615 -1.5332  1.2922 -0.3325
 5352SOL    HW216635   2.863   1.505   0.481  0.2881  2.3902 -0.3845
 5353SOL     OW16636   1.061   9.411   1.788  0.3977 -0.1960  0.0290
 5353SOL    HW116637   1.127   9.473   1.756 -0.7613  1.1105  0.0599
 5353SOL    HW216638   1.017   9.380   1.709  0.0580  0.0980  0.1011
 5354SOL     OW16639   7.970   9.256   0.605 -0.4049 -0.4299  0.4699
 5354SOL    HW116640   7.963   9.160   0.602  1.1512 -0.5554 -0.8440
 5354SOL    HW216641   8.052   9.272   0.652 -1.3080  0.3418  1.8559
 5355SOL     OW16642   3.675   3.366   1.408  0.1737  0.3698 -0.5007
 5355SOL    HW116643   3.695   3.276   1.381 -0.3802 -0.2023  0.9059
 5355SOL    HW216644   3.613   3.356   1.480  1.0240  1.8391  0.4874
 5356SOL     OW16645   3.426   2.710   9.962 -0.0513 -0.2875  0.5379
 5356SOL    HW116646   3.332   2.712   9.942 -0.1032 -0.2357  0.7814
 5356SOL    HW216647   3.447   2.616   9.963 -0.7412 -0.4946  3.3688
 5357SOL     OW16648   5.419   3.041   5.890 -0.4469  0.6130 -0.4060
 5357SOL    HW116649   5.472   3.020   5.967 -1.8515 -1.5698  0.0874
 5357SOL    HW216650   5.378   2.957   5.866 -3.3873  2.0576 -0.9101
 5358SOL     OW16651   7.412   5.984   0.352  0.1095  0.7280 -0.2170
 5358SOL    HW116652   7.396   6.075   0.376 -2.0326  0.0472  1.2068
 5358SOL    HW216653   7.452   5.946   0.431  0.9670  0.4104 -0.7930
 5359SOL     OW16654   7.571   5.797   4.510 -0.0723 -0.0219  0.1783
 5359SOL    HW116655   7.582   5.877   4.458  0.6469 -0.0213  0.3318
 5359SOL    HW216656   7.633   5.735   4.472  1.2578  0.3172  1.7066
 5360SOL     OW16657   4.673   1.335   1.846 -0.0500 -0.1551 -0.4579
 5360SOL    HW116658   4.692   1.344   1.939  0.4430 -0.4409 -0.5292
 5360SOL    HW216659   4.654   1.242   1.833 -2.2570  0.2012 -0.2616
 5361SOL     OW16660   4.774   7.040   3.555  0.3602 -0.2518  0.5486
 5361SOL    HW116661   4.846   7.093   3.587 -0.0868  0.7599 -0.0933
 5361SOL    HW216662   4.800   6.950   3.575  2.3585 -0.0201 -0.7547
 5362SOL     OW16663   4.821   9.907   0.737 -0.3092  0.5766 -0.0293
 5362SOL    HW116664   4.791   9.819   0.760 -0.5395  0.4774 -0.6846
 5362SOL    HW216665   4.816   9.910   0.641  0.1339  1.1469 -0.0412
 5363SOL     OW16666   4.782   6.256   3.216 -0.1102  0.2594 -0.1025
 5363SOL    HW116667   4.783   6.188   3.149 -0.8592 -0.2574  0.3879
 5363SOL    HW216668   4.753   6.210   3.296 -1.2568  1.2742  0.0841
 5364SOL     OW16669   1.324   9.081   5.593  0.1274 -0.1129 -0.3577
 5364SOL    HW116670   1.363   9.110   5.511  0.5472  0.8012  0.1526
 5364SOL    HW216671   1.230   9.075   5.574  0.0354  1.4503 -0.5500
 5365SOL     OW16672   1.801   6.005   1.449 -0.3565  0.2657  0.2652
 5365SOL    HW116673   1.866   5.957   1.501 -0.7590 -0.2272  0.3120
 5365SOL    HW216674   1.792   5.954   1.369 -0.1925  0.6981 -0.0349
 5366SOL     OW16675   9.603   8.973   5.527 -0.3156  0.5509 -0.2822
 5366SOL    HW116676   9.616   9.009   5.614 -2.4521  2.5308 -0.6607
 5366SOL    HW216677   9.640   8.886   5.530 -1.2110  0.1829  2.9288
 5367SOL     OW16678   5.393   2.880   0.420  0.0721 -0.1135  0.0982
 5367SOL    HW116679   5.329   2.899   0.351  1.3976 -1.9827 -1.7767
 5367SOL    HW216680   5.434   2.798   0.392  3.6277  1.2060  0.9206
 5368SOL     OW16681   0.328   3.620   3.792  0.1599 -0.4360  0.5647
 5368SOL    HW116682   0.319   3.667   3.710 -0.4296  1.2414  1.5402
 5368SOL    HW216683   0.419   3.590   3.793  1.4289  3.0039  1.0241
 5369SOL     OW16684   5.734   0.228   9.278 -0.0291 -0.0657  0.3632
 5369SOL    HW116685   5.654   0.231   9.331  1.0048  1.9148  1.9337
 5369SOL    HW216686   5.789   0.298   9.313  1.4628  0.1799 -2.2057
 5370SOL     OW16687   8.826   0.908   9.932  0.8707 -0.0414  0.0178
 5370SOL    HW116688   8.816   0.943   9.843  1.3107  1.1592  0.4261
 5370SOL    HW216689   8.916   0.928   9.956  1.0498 -1.2065  0.4041
 5371SOL     OW16690   0.083   0.518   2.873  0.4464  0.6248 -0.2663
 5371SOL    HW116691   0.056   0.602   2.836  1.1822  1.0530  0.1615
 5371SOL    HW216692   0.137   0.541   2.949  2.8417 -0.1861 -1.6330
 5372SOL     OW16693   4.089   9.591   1.602 -0.0201  0.1604  0.0795
 5372SOL    HW116694   4.162   9.650   1.585  0.9566 -0.7756  0.9290
 5372SOL    HW216695   4.015   9.650   1.619  0.9895  1.1572  1.1925
 5373SOL     OW16696   3.001   4.546   5.017 -0.1258 -0.2574 -0.1536
 5373SOL    HW116697   3.039   4.603   4.951 -0.6720 -0.0153 -0.2678
 5373SOL    HW216698   2.942   4.603   5.067  2.1584  0.2261  2.2232
 5374SOL     OW16699   0.840   3.935   4.483 -0.2004  0.3311 -0.0649
 5374SOL    HW116700   0.864   4.024   4.457 -1.1491  0.8997  0.9496
 5374SOL    HW216701   0.912   3.906   4.539  0.4066  0.2096 -0.8812
 5375SOL     OW16702   3.584   6.249   6.340 -0.0991  0.3517  0.1233
 5375SOL    HW116703   3.668   6.255   6.295  0.5096 -0.4739  1.1057
 5375SOL    HW216704   3.525   6.209   6.277 -0.1675  2.1973 -1.0725
 5376SOL     OW16705   5.334   9.484   4.689  0.3254 -0.4428  0.4906
 5376SOL    HW116706   5.375   9.570   4.696 -2.3665  0.8805  1.3812
 5376SOL    HW216707   5.289   9.486   4.604 -1.6510  0.0316  1.4834
 5377SOL     OW16708   5.773   3.666   5.701 -0.2385 -0.1949  0.0264
 5377SOL    HW116709   5.799   3.574   5.713 -1.8731 -0.8221 -0.9243
 5377SOL    HW216710   5.698   3.677   5.759 -0.1257  0.5070  0.0418
 5378SOL     OW16711   8.642   5.498   5.010  0.0019 -0.2213 -0.1701
 5378SOL    HW116712   8.574   5.566   5.012 -0.8124 -1.0227  0.9964
 5378SOL    HW216713   8.692   5.516   4.931 -3.0451 -1.0211 -2.4643
 5379SOL     OW16714   1.127   4.666   7.838 -0.1396 -0.0636 -0.3020
 5379SOL    HW116715   1.147   4.760   7.833  0.2643 -0.0474  1.1616
 5379SOL    HW216716   1.089   4.645   7.752  1.2555  1.0720 -1.2385
 5380SOL     OW16717   6.633   1.113   5.018  0.1571 -0.2832 -0.2103
 5380SOL    HW116718   6.550   1.142   4.980  1.4922  0.2773 -2.9432
 5380SOL    HW216719   6.687   1.088   4.943  1.6997 -2.8955  1.5792
 5381SOL     OW16720   6.794   3.503   6.292 -0.2310 -0.3613  0.1504
 5381SOL    HW116721   6.729   3.555   6.338 -0.2834 -1.1892  1.0528
 5381SOL    HW216722   6.839   3.454   6.361  1.5552  0.3988 -0.4080
 5382SOL     OW16723   2.296   7.566   0.739 -0.2751  0.1627  0.1916
 5382SOL    HW116724   2.309   7.649   0.784 -2.1236  1.0177 -0.7639
 5382SOL    HW216725   2.363   7.564   0.671 -1.2928  1.7179 -0.9094
 5383SOL     OW16726   4.341   6.806   8.704  0.2165 -0.1746  0.1973
 5383SOL    HW116727   4.277   6.795   8.775 -0.3775  0.1777 -0.2740
 5383SOL    HW216728   4.288   6.821   8.626  0.8941  1.7306  0.0578
 5384SOL     OW16729   9.908   5.083   5.132  0.0554  0.6270  0.0413
 5384SOL    HW116730   9.956   5.138   5.194  1.3208  0.4867 -0.7727
 5384SOL    HW216731   9.917   5.128   5.048 -1.1829  0.5421 -0.1561
 5385SOL     OW16732   2.935   5.228   2.548  0.3206 -0.3779 -0.2419
 5385SOL    HW116733   2.974   5.261   2.629 -0.9545  1.5594 -0.3382
 5385SOL    HW216734   2.848   5.198   2.574  0.2608 -0.6299 -0.7218
 5386SOL     OW16735   1.352   1.514   6.118  0.3168 -0.4902 -0.1316
 5386SOL    HW116736   1.292   1.502   6.044  0.3597 -2.3610  0.1079
 5386SOL    HW216737   1.301   1.566   6.181  0.3224  1.2324 -1.4794
 5387SOL     OW16738   5.754   7.508   8.058 -0.0195 -0.3759  0.0402
 5387SOL    HW116739   5.773   7.472   7.971  0.2643 -0.2702  0.0585
 5387SOL    HW216740   5.831   7.559   8.080 -0.1632 -0.2642  0.2840
 5388SOL     OW16741   8.462   6.862   1.797  0.6373 -0.5361 -0.3360
 5388SOL    HW116742   8.538   6.809   1.823  0.8111 -0.4334 -0.6278
 5388SOL    HW216743   8.401   6.855   1.870  1.4313  0.3625  0.4424
 5389SOL     OW16744   5.505   1.251   4.661  0.1420  0.4243 -0.5274
 5389SOL    HW116745   5.485   1.229   4.752 -0.7816  2.0850 -0.3063
 5389SOL    HW216746   5.424   1.233   4.614  0.1648  0.9314 -0.7653
 5390SOL     OW16747   2.761   4.412   9.699  0.2395  0.0357 -0.1844
 5390SOL    HW116748   2.718   4.400   9.784 -0.3481 -2.8027 -0.7808
 5390SOL    HW216749   2.694   4.450   9.643 -0.6830 -1.7189 -0.3467
 5391SOL     OW16750   5.194   5.390   6.517 -0.0599  0.6898  0.6436
 5391SOL    HW116751   5.137   5.424   6.587 -0.1876  2.1910 -0.1342
 5391SOL    HW216752   5.144   5.319   6.477 -1.0245  1.3909  0.5606
 5392SOL     OW16753   5.363   3.503   2.318  0.3925 -0.2830  0.3770
 5392SOL    HW116754   5.367   3.487   2.224  2.0458 -1.5800  0.6290
 5392SOL    HW216755   5.295   3.570   2.328 -2.8005 -2.9563 -1.3603
 5393SOL     OW16756   7.479   1.638   7.892 -0.3584  0.1067 -0.1982
 5393SOL    HW116757   7.564   1.664   7.928 -1.0568  1.1686  0.7800
 5393SOL    HW216758   7.451   1.565   7.947 -0.0575 -0.2853 -0.5612
 5394SOL     OW16759   7.255   8.672   1.783  0.3838 -0.1721 -0.2749
 5394SOL    HW116760   7.337   8.697   1.826 -0.3455 -0.3264  1.2699
 5394SOL    HW216761   7.215   8.755   1.758  0.2491 -0.0184  0.4393
 5395SOL     OW16762   3.685   8.769   6.438  0.5021  0.2491  0.1224
 5395SOL    HW116763   3.744   8.835   6.401  1.2550 -1.5050 -1.9503
 5395SOL    HW216764   3.740   8.717   6.496  0.9971 -1.1555 -1.5269
 5396SOL     OW16765   8.799   1.674   5.435  0.0716 -0.0403 -0.5525
 5396SOL    HW116766   8.772   1.707   5.350 -1.7363 -1.5856 -0.6399
 5396SOL    HW216767   8.841   1.590   5.416 -0.8202 -0.6557  0.0781
 5397SOL     OW16768   7.212   7.039   4.398 -0.0020  0.2936 -0.3621
 5397SOL    HW116769   7.224   7.104   4.467  0.9001  2.7144 -2.6209
 5397SOL    HW216770   7.292   6.985   4.403 -0.3392 -0.1279  0.9623
 5398SOL     OW16771   4.519   9.881   2.254 -0.4195  0.3726 -0.7937
 5398SOL    HW116772   4.473   9.839   2.182  1.2101  0.3500 -1.8679
 5398SOL    HW216773   4.571   9.811   2.293 -0.2787  0.6749 -0.4357
 5399SOL     OW16774   7.212   5.992   2.844 -0.1084  0.2034  0.3375
 5399SOL    HW116775   7.176   6.011   2.931 -1.7424  1.0503 -0.4686
 5399SOL    HW216776   7.192   6.070   2.793  3.4537  0.9919 -0.0889
 5400SOL     OW16777   2.026   1.232   9.910  0.0178 -0.1104 -0.4422
 5400SOL    HW116778   2.010   1.298   9.978  2.7109  1.5131 -1.2209
 5400SOL    HW216779   2.063   1.157   9.958 -0.3495  0.0713  0.1341
 5401SOL     OW16780   6.284   2.482   2.970  0.5056 -0.0579  0.2137
 5401SOL    HW116781   6.351   2.548   2.953 -1.3502  1.6426 -0.9096
 5401SOL    HW216782   6.212   2.531   3.010 -0.6595 -1.5307  0.0133
 5402SOL     OW16783   8.009   1.329   9.171 -0.1088  0.7865 -0.1149
 5402SOL    HW116784   8.003   1.380   9.090  0.0359 -0.7453 -1.1223
 5402SOL    HW216785   7.977   1.242   9.148  0.6686  0.0931  1.2783
 5403SOL     OW16786   3.779   3.070   9.525  0.2594 -0.1446  0.2029
 5403SOL    HW116787   3.837   3.090   9.598 -1.0485  2.1031  0.7462
 5403SOL    HW216788   3.693   3.060   9.565 -0.0485 -1.6307 -0.7712
 5404SOL     OW16789   2.633   0.989   6.699  0.1002  0.0947  0.2672
 5404SOL    HW116790   2.559   1.013   6.643 -1.3253 -0.5131  1.8177
 5404SOL    HW216791   2.710   1.013   6.648 -1.0974 -0.9486 -2.2039
 5405SOL     OW16792   7.327   4.787   5.210  0.0173  0.9556 -0.3627
 5405SOL    HW116793   7.401   4.771   5.152  0.5259 -0.3953  0.5912
 5405SOL    HW216794   7.299   4.699   5.237  0.0812  1.5500  1.7635
 5406SOL     OW16795   3.099   3.080   2.667  0.6244  0.7653  0.1726
 5406SOL    HW116796   3.065   2.998   2.703  0.0463  1.0729  0.3379
 5406SOL    HW216797   3.040   3.147   2.701  0.4935  1.1406 -0.7834
 5407SOL     OW16798   1.058   1.132   2.768 -0.1824  0.5241 -0.2405
 5407SOL    HW116799   1.059   1.173   2.681 -1.0477  0.4487 -0.2883
 5407SOL    HW216800   1.025   1.200   2.826 -0.7966  0.1775 -0.1774
 5408SOL     OW16801   7.699   3.632   3.078  0.4452  0.5701  0.4881
 5408SOL    HW116802   7.774   3.635   3.019  1.1625  0.4051  1.3768
 5408SOL    HW216803   7.731   3.586   3.156 -0.9436 -0.6729  0.3689
 5409SOL     OW16804   8.631   1.083   7.213 -0.0814 -0.1797  0.4633
 5409SOL    HW116805   8.616   0.989   7.227 -2.5323  0.5245  3.9221
 5409SOL    HW216806   8.551   1.114   7.171 -0.1086  0.6157  1.0749
 5410SOL     OW16807   4.086   1.298   3.174 -0.0008 -0.0396  0.8180
 5410SOL    HW116808   4.037   1.251   3.241 -0.1821  1.2943  1.6607
 5410SOL    HW216809   4.175   1.265   3.181 -0.0859 -0.1205  1.5154
 5411SOL     OW16810   1.983   7.084   4.800 -0.0522  0.0292  0.5205
 5411SOL    HW116811   2.011   7.047   4.884  0.3865 -0.4089  0.1879
 5411SOL    HW216812   1.908   7.031   4.774  0.4962 -0.5735  0.1075
 5412SOL     OW16813   7.939   4.713   9.686 -0.3024  0.3127  0.2052
 5412SOL    HW116814   7.861   4.705   9.740 -0.4249 -0.5800 -0.0942
 5412SOL    HW216815   7.987   4.788   9.723 -0.1458 -0.5681  1.8462
 5413SOL     OW16816   1.657   7.375   4.049 -0.1755  0.2149 -0.0790
 5413SOL    HW116817   1.709   7.412   3.978 -0.0371  0.6795  0.2604
 5413SOL    HW216818   1.567   7.398   4.026 -0.1086  0.5874  0.0226
 5414SOL     OW16819   7.322   9.454   2.828  0.2631 -0.1751  0.0150
 5414SOL    HW116820   7.383   9.415   2.891  0.4325  2.0043  1.2836
 5414SOL    HW216821   7.265   9.509   2.882  0.0644  1.3405 -1.6792
 5415SOL     OW16822   6.375   3.374   6.058 -0.3227  0.5938  0.0023
 5415SOL    HW116823   6.449   3.313   6.049  0.1360  1.2530 -0.9897
 5415SOL    HW216824   6.408   3.442   6.117 -0.7486  0.0220  0.9153
 5416SOL     OW16825   8.656   9.410   8.604 -0.5150 -0.4735  0.0408
 5416SOL    HW116826   8.622   9.447   8.522  1.3472  0.4666 -0.3602
 5416SOL    HW216827   8.630   9.473   8.671 -0.2335 -0.1433 -0.1550
 5417SOL     OW16828   1.158   0.058   3.556 -0.1260  0.0314 -0.2414
 5417SOL    HW116829   1.232   0.026   3.607  0.5742  0.1915 -1.1482
 5417SOL    HW216830   1.191   0.136   3.511 -0.8526  0.1295 -0.6229
 5418SOL     OW16831   0.290   9.703   6.359  0.0572 -0.2516  0.2945
 5418SOL    HW116832   0.307   9.710   6.265  0.2909  0.5016  0.3872
 5418SOL    HW216833   0.285   9.609   6.375  1.4111 -0.4346 -0.2256
 5419SOL     OW16834   6.985   7.555   4.881  0.2031 -0.1820 -0.2713
 5419SOL    HW116835   6.952   7.618   4.818  1.6275 -1.2206 -2.1932
 5419SOL    HW216836   7.080   7.554   4.866  0.4899 -1.0206  1.3828
 5420SOL     OW16837   0.887   5.000   8.780  0.2156 -0.5010 -0.4092
 5420SOL    HW116838   0.827   5.028   8.711 -0.1769 -0.6836 -0.1399
 5420SOL    HW216839   0.831   4.972   8.852  0.5858 -1.7069 -0.5593
 5421SOL     OW16840   9.519   1.430   4.812 -0.4633 -0.3049  0.5370
 5421SOL    HW116841   9.542   1.522   4.798  1.0113 -0.6795  0.3955
 5421SOL    HW216842   9.581   1.399   4.878  0.1647 -1.6411 -0.6337
 5422SOL     OW16843   6.624   8.809   3.946 -0.1701  0.0321 -0.4842
 5422SOL    HW116844   6.700   8.818   4.004 -0.1162  1.4188 -0.7305
 5422SOL    HW216845   6.549   8.815   4.004 -0.1203  1.5860 -0.5202
 5423SOL     OW16846   5.768   3.500   2.532  0.6020  0.2305  0.4023
 5423SOL    HW116847   5.761   3.585   2.575 -3.4368 -0.4391  1.4915
 5423SOL    HW216848   5.811   3.444   2.596 -0.0445  0.6161  1.1869
 5424SOL     OW16849   8.548   4.108   7.417  0.0689  1.1413  0.4002
 5424SOL    HW116850   8.545   4.202   7.398  0.4340  0.9119 -0.8535
 5424SOL    HW216851   8.549   4.066   7.331  1.1471  0.0258  0.9337
 5425SOL     OW16852   9.494   6.640   8.131  1.5741  0.3142  0.0392
 5425SOL    HW116853   9.459   6.710   8.076  0.1782 -0.4327 -0.0619
 5425SOL    HW216854   9.489   6.676   8.220 -1.1204 -0.3512  0.2418
 5426SOL     OW16855   0.552   6.873   4.126 -0.2087 -0.5888  0.2124
 5426SOL    HW116856   0.485   6.930   4.164  0.0747 -1.6429  2.4216
 5426SOL    HW216857   0.511   6.787   4.122  0.9159 -1.2130  1.4333
 5427SOL     OW16858   2.789   7.576   2.568  0.0952  0.2516 -0.6256
 5427SOL    HW116859   2.696   7.596   2.577 -0.0796 -0.9396  0.3952
 5427SOL    HW216860   2.796   7.482   2.584  1.4515  0.2747 -0.9099
 5428SOL     OW16861   9.611   1.982   7.383  0.2390  0.2884  0.2715
 5428SOL    HW116862   9.585   1.902   7.428  0.8538 -0.9399 -1.4693
 5428SOL    HW216863   9.690   2.011   7.428  0.3174 -0.3884  0.5653
 5429SOL     OW16864   4.944   3.774   2.364  0.6066 -0.4624 -0.2589
 5429SOL    HW116865   4.852   3.750   2.350  0.4804  0.7494 -1.8259
 5429SOL    HW216866   4.941   3.844   2.428  0.4615 -0.6319 -0.0802
 5430SOL     OW16867   9.487   6.940   3.494  0.0368  0.1095 -0.1824
 5430SOL    HW116868   9.500   6.939   3.399  0.3424 -0.6070 -0.1349
 5430SOL    HW216869   9.562   6.892   3.529  1.3368  2.5210  0.6001
 5431SOL     OW16870   8.453   9.810   0.722 -0.1252 -0.2459  0.5874
 5431SOL    HW116871   8.420   9.722   0.707  0.7197 -0.6108  0.7940
 5431SOL    HW216872   8.534   9.814   0.671 -0.8373  0.8699 -0.4904
 5432SOL     OW16873   1.678   6.853   3.672  0.2735  0.3738 -0.4743
 5432SOL    HW116874   1.726   6.894   3.744  1.8478 -1.1336 -0.6134
 5432SOL    HW216875   1.590   6.891   3.678  0.3646  0.3668  2.1818
 5433SOL     OW16876   8.388   6.498   2.228  0.0905 -0.0437  0.1855
 5433SOL    HW116877   8.380   6.475   2.136 -0.0134 -0.4517  0.2960
 5433SOL    HW216878   8.453   6.437   2.263 -1.9088 -1.7769  1.0280
 5434SOL     OW16879   9.706   4.475   2.068  0.4868 -0.0072 -0.1238
 5434SOL    HW116880   9.701   4.563   2.106 -0.6845 -0.4526  0.8374
 5434SOL    HW216881   9.653   4.480   1.989 -0.3739 -0.0876  0.4425
 5435SOL     OW16882   2.911   3.390   3.015 -0.0820  0.0234  0.2837
 5435SOL    HW116883   2.908   3.468   2.960 -1.1973 -0.7108 -0.7506
 5435SOL    HW216884   2.869   3.416   3.097  1.4160  1.0733  0.7580
 5436SOL     OW16885   2.039   5.612   8.202 -0.4295 -0.3311  0.5063
 5436SOL    HW116886   1.984   5.687   8.181 -0.4475 -0.6813 -0.7441
 5436SOL    HW216887   2.123   5.650   8.226  0.0609  0.0562 -1.6809
 5437SOL     OW16888   2.384   4.714   6.666  0.1306  0.0919  0.0834
 5437SOL    HW116889   2.456   4.665   6.627  0.4592 -1.2734  2.2627
 5437SOL    HW216890   2.308   4.657   6.654 -0.2611  0.7326 -0.6043
 5438SOL     OW16891   2.223   0.341   6.698  0.0413  0.6846  0.7043
 5438SOL    HW116892   2.189   0.302   6.779 -0.5734  0.1505  0.1989
 5438SOL    HW216893   2.144   0.364   6.648  0.4147  0.4909  0.0140
 5439SOL     OW16894   6.190   0.314   2.844  0.1123 -0.5093  0.5173
 5439SOL    HW116895   6.217   0.309   2.936 -0.0172  0.9534  0.6552
 5439SOL    HW216896   6.259   0.365   2.802 -0.4697 -0.0977  0.0640
 5440SOL     OW16897   2.509   4.206   3.561  0.0411 -0.1456  0.4413
 5440SOL    HW116898   2.445   4.137   3.542  0.5558 -0.2996 -0.8208
 5440SOL    HW216899   2.592   4.171   3.530  0.3426  0.9511 -0.0390
 5441SOL     OW16900   3.717   9.494   1.346  0.0721  0.2519  0.3268
 5441SOL    HW116901   3.681   9.539   1.423  1.8059  3.3027 -0.4704
 5441SOL    HW216902   3.809   9.519   1.345  1.1486 -3.2834 -0.4265
 5442SOL     OW16903   7.276   4.655   7.563  0.0207  0.4191  0.4771
 5442SOL    HW116904   7.194   4.607   7.564  0.8905 -1.2161 -0.8850
 5442SOL    HW216905   7.320   4.631   7.644 -1.1855  2.0479  1.6778
 5443SOL     OW16906   2.236   5.411   3.292 -0.1012 -0.7616  0.3220
 5443SOL    HW116907   2.310   5.361   3.257  0.7558 -0.7960  2.0863
 5443SOL    HW216908   2.226   5.379   3.382 -0.3239  1.3700  1.0922
 5444SOL     OW16909   3.413   1.410   0.911 -0.0832  0.1674 -0.4955
 5444SOL    HW116910   3.483   1.469   0.883  0.9018 -0.0195  1.4093
 5444SOL    HW216911   3.424   1.332   0.857  0.8670  0.3455 -0.5704
 5445SOL     OW16912   5.862   8.123   3.623  0.1163  0.2159  0.3792
 5445SOL    HW116913   5.877   8.087   3.710 -1.5895 -0.5296  0.4031
 5445SOL    HW216914   5.898   8.212   3.627  0.9667 -0.1614  1.5105
 5446SOL     OW16915   9.561   8.251   5.071  0.5358  0.1217  0.6520
 5446SOL    HW116916   9.561   8.215   4.982 -0.2057 -0.1408  0.7441
 5446SOL    HW216917   9.599   8.181   5.125 -0.2278 -0.2564  0.7223
 5447SOL     OW16918   2.301   8.388   1.230 -0.0900 -0.0183 -0.1274
 5447SOL    HW116919   2.257   8.415   1.149  0.0724  2.3131  0.5037
 5447SOL    HW216920   2.334   8.300   1.210 -0.9061  0.0773 -2.2343
 5448SOL     OW16921   3.426   6.888   6.155 -0.0703 -0.2495 -0.0296
 5448SOL    HW116922   3.459   6.800   6.136 -1.8315 -0.6408 -1.5434
 5448SOL    HW216923   3.497   6.930   6.203  0.5783 -2.6880  1.3068
 5449SOL     OW16924   6.920   7.914   3.616  0.4324  0.7816  0.4183
 5449SOL    HW116925   6.935   7.896   3.523 -1.6081 -0.6293  0.2971
 5449SOL    HW216926   6.951   8.004   3.628  1.5898  0.6804 -1.3930
 5450SOL     OW16927   0.418   0.491   5.815  0.2484  0.4239  0.4229
 5450SOL    HW116928   0.488   0.475   5.751  1.1610  1.6992  1.0410
 5450SOL    HW216929   0.448   0.447   5.894  0.0678  0.4771  0.5202
 5451SOL     OW16930   3.711   3.794   7.002 -0.4480  0.3301 -0.4734
 5451SOL    HW116931   3.677   3.730   6.939 -2.6414 -0.2391  1.1691
 5451SOL    HW216932   3.786   3.751   7.042 -0.8181 -0.4982 -0.6459
 5452SOL     OW16933   0.166   4.799   6.063  0.1790  0.2073  0.0125
 5452SOL    HW116934   0.135   4.884   6.032  1.5087  0.3225 -1.0999
 5452SOL    HW216935   0.179   4.748   5.984 -0.7229 -1.1168  0.6743
 5453SOL     OW16936   2.417   1.259   5.322  0.4217 -0.2752  0.5250
 5453SOL    HW116937   2.414   1.165   5.309  0.1501 -0.3086  0.8260
 5453SOL    HW216938   2.365   1.275   5.401  0.5505  0.1143  0.5363
 5454SOL     OW16939   5.250   0.019   5.204 -0.0130  0.0730  0.3316
 5454SOL    HW116940   5.231   0.110   5.184  3.1790  0.9512  0.7118
 5454SOL    HW216941   5.235   0.012   5.298  0.9204  0.5985  0.5342
 5455SOL     OW16942   6.123   5.207   2.946  0.1543 -0.2163  0.5377
 5455SOL    HW116943   6.202   5.155   2.961 -0.3736 -0.9544  0.8256
 5455SOL    HW216944   6.077   5.205   3.030 -1.2872 -1.7285 -0.2416
 5456SOL     OW16945   9.930   5.750   8.323 -0.1630  0.1004  0.2703
 5456SOL    HW116946  10.001   5.706   8.277 -0.3499  1.2564 -1.2045
 5456SOL    HW216947   9.864   5.682   8.338  0.3242 -0.5051 -0.3203
 5457SOL     OW16948   3.878   2.737   9.963  0.2796 -0.2048 -0.8600
 5457SOL    HW116949   3.812   2.786  10.012  0.7436  0.4978 -0.9112
 5457SOL    HW216950   3.836   2.654   9.942  0.5275 -1.1426  1.9311
 5458SOL     OW16951   3.546   2.504   2.865 -0.1571 -0.0029  0.3816
 5458SOL    HW116952   3.605   2.431   2.846 -1.0416 -0.5364 -0.4110
 5458SOL    HW216953   3.498   2.475   2.943 -2.1712 -1.3617 -1.2615
 5459SOL     OW16954   1.176   9.866   3.074  0.3156  0.3219  0.2536
 5459SOL    HW116955   1.229   9.914   3.011  3.0208 -1.4794  0.9399
 5459SOL    HW216956   1.127   9.803   3.022 -0.5758  1.4978 -0.3469
 5460SOL     OW16957   1.278   1.039   7.792  0.7623  0.3355 -0.3496
 5460SOL    HW116958   1.325   1.121   7.804  2.1185 -0.3641 -0.7380
 5460SOL    HW216959   1.329   0.991   7.728  0.5558 -1.2260  0.6036
 5461SOL     OW16960   7.976   8.157   9.563  0.4018 -0.0014 -0.3369
 5461SOL    HW116961   7.970   8.172   9.469 -1.0245  1.5082 -0.0534
 5461SOL    HW216962   8.069   8.155   9.581  0.6964  0.6929 -1.6394
 5462SOL     OW16963   8.385   7.216   9.650  0.4845 -0.3116 -0.3616
 5462SOL    HW116964   8.454   7.162   9.613 -1.1222 -0.8569 -2.7507
 5462SOL    HW216965   8.306   7.190   9.604 -1.0479  1.4536  1.0958
 5463SOL     OW16966   3.862   1.386   5.632 -0.3408 -0.6316  0.6343
 5463SOL    HW116967   3.949   1.422   5.650  0.1565 -2.4557  2.1571
 5463SOL    HW216968   3.816   1.391   5.716 -1.8022  0.4252 -0.1711
 5464SOL     OW16969   5.112   3.253   6.811 -0.5589 -0.0177  0.4821
 5464SOL    HW116970   5.143   3.249   6.901  0.2894  1.2113  0.2635
 5464SOL    HW216971   5.146   3.174   6.770 -0.7995 -0.4954  1.1740
 5465SOL     OW16972   8.076   6.463   5.152 -0.1664  0.1018 -0.0211
 5465SOL    HW116973   8.115   6.538   5.197  0.1863 -0.6790  1.0138
 5465SOL    HW216974   8.151   6.407   5.130 -0.3500  0.3764 -1.4479
 5466SOL     OW16975   3.417   8.230   4.958 -0.2005  0.1191 -0.4695
 5466SOL    HW116976   3.413   8.149   5.008 -0.3095  1.3305  1.5902
 5466SOL    HW216977   3.446   8.203   4.871 -0.8385 -2.1806 -0.0297
 5467SOL     OW16978   4.855   8.943   2.356 -0.0555 -0.6791 -0.6969
 5467SOL    HW116979   4.898   8.971   2.438 -0.9086  0.6637 -0.6712
 5467SOL    HW216980   4.917   8.967   2.287 -0.9053  1.7704 -0.7056
 5468SOL     OW16981   5.334   7.076   9.419 -0.1299 -0.1752  0.1139
 5468SOL    HW116982   5.275   7.108   9.350  0.9535  1.2068 -0.2306
 5468SOL    HW216983   5.275   7.039   9.485 -1.4871  1.8249  0.1439
 5469SOL     OW16984   5.000   3.310   5.363 -0.3553  0.3052  0.2768
 5469SOL    HW116985   4.969   3.279   5.279  1.5061 -1.8078  0.2686
 5469SOL    HW216986   5.094   3.328   5.350  0.2353 -1.0923  2.0912
 5470SOL     OW16987   4.357   7.897   3.264  0.3644 -0.8981 -0.2575
 5470SOL    HW116988   4.373   7.822   3.205  0.9428 -0.6083 -0.4727
 5470SOL    HW216989   4.367   7.974   3.208  0.0493 -0.6421  0.0314
 5471SOL     OW16990   5.586   7.377   8.240  0.1456 -0.1745  0.2001
 5471SOL    HW116991   5.638   7.429   8.178  1.3671 -0.1569  1.1998
 5471SOL    HW216992   5.630   7.292   8.242 -0.3265 -0.4159  0.4900
 5472SOL     OW16993   1.455   8.518   5.623  0.2329 -0.7395  0.1588
 5472SOL    HW116994   1.492   8.477   5.546  1.0070  1.1069 -0.4963
 5472SOL    HW216995   1.402   8.590   5.589 -1.0750 -1.1365  1.2647
 5473SOL     OW16996   7.316   6.475   1.004  0.1274  0.7956  0.0754
 5473SOL    HW116997   7.251   6.507   0.942 -1.7103 -0.6986  1.1087
 5473SOL    HW216998   7.360   6.404   0.958  0.5651  1.3639 -0.3936
 5474SOL     OW16999   4.008   2.677   6.670  0.4862 -0.0147 -0.1809
 5474SOL    HW117000   4.079   2.738   6.648  1.1690 -0.8617 -0.4115
 5474SOL    HW217001   4.009   2.672   6.765  2.1685 -1.6106 -0.2283
 5475SOL     OW17002   2.062   8.625   8.460 -0.0810 -0.2873 -0.1318
 5475SOL    HW117003   1.985   8.575   8.488  1.4069 -2.2965  0.5671
 5475SOL    HW217004   2.116   8.632   8.539  0.4230  1.2309 -0.5776
 5476SOL     OW17005   4.477   4.023   1.097  0.2862 -0.4045  0.3519
 5476SOL    HW117006   4.519   4.007   1.182  0.7213 -1.3691 -0.0309
 5476SOL    HW217007   4.549   4.050   1.040  0.1192 -0.5359  0.0810
 5477SOL     OW17008   9.140   0.110   0.634  0.7478  0.2459  0.0135
 5477SOL    HW117009   9.162   0.022   0.604 -0.8927 -0.2797  0.2859
 5477SOL    HW217010   9.064   0.099   0.691  1.5312  1.6525  1.4358
 5478SOL     OW17011   0.597   1.584   9.135  1.0410  0.4472  0.0312
 5478SOL    HW117012   0.594   1.679   9.121  0.0843  0.0905 -2.7336
 5478SOL    HW217013   0.690   1.563   9.131  1.3791  1.3500  1.8609
 5479SOL     OW17014   0.322   2.489   1.868  0.3066  0.1493  0.7376
 5479SOL    HW117015   0.252   2.479   1.803 -0.9817 -0.8497  2.2161
 5479SOL    HW217016   0.382   2.416   1.850  1.8233  1.7875 -1.4228
 5480SOL     OW17017   4.792   4.151   1.883  0.8441 -0.0658 -0.2634
 5480SOL    HW117018   4.843   4.090   1.937  0.8718 -0.9007 -1.1970
 5480SOL    HW217019   4.740   4.094   1.827 -2.3583  0.6993  1.6815
 5481SOL     OW17020  10.009   9.489   5.867  0.0768  0.0274 -0.3586
 5481SOL    HW117021   9.922   9.529   5.871  0.6983  1.3098  1.0107
 5481SOL    HW217022  10.000   9.420   5.802 -1.6019  1.0143 -1.2353
 5482SOL     OW17023   8.603   5.050   0.823 -0.1723  0.2371  0.4288
 5482SOL    HW117024   8.572   5.082   0.908  2.0410  0.6122  1.1528
 5482SOL    HW217025   8.635   5.128   0.778  2.8050 -0.4874  1.1161
 5483SOL     OW17026   5.741   1.535   3.861  0.2137 -0.2772  0.0974
 5483SOL    HW117027   5.648   1.542   3.878  0.2120 -0.0340 -0.0117
 5483SOL    HW217028   5.780   1.612   3.902  0.1718  0.4661 -1.2113
 5484SOL     OW17029   6.750   5.637   6.545 -0.1863  0.4756 -0.0994
 5484SOL    HW117030   6.695   5.715   6.550 -1.8415 -0.7209  1.3177
 5484SOL    HW217031   6.825   5.657   6.602 -0.7701  0.9269  0.5276
 5485SOL     OW17032   1.594   2.028   9.551 -0.1830  0.0016  0.1807
 5485SOL    HW117033   1.566   2.113   9.517  0.4703 -0.1231 -0.6885
 5485SOL    HW217034   1.565   2.029   9.642 -1.5964  0.5075 -0.2452
 5486SOL     OW17035   5.907   4.388   7.086 -0.4553 -0.2742  0.5324
 5486SOL    HW117036   5.879   4.442   7.012 -0.7319 -2.5936 -1.1525
 5486SOL    HW217037   5.825   4.354   7.123 -0.2473 -0.3943  0.8875
 5487SOL     OW17038   0.987   7.549   9.726  0.0574 -0.2983 -0.6725
 5487SOL    HW117039   1.026   7.555   9.813  0.0222 -0.8640 -0.6128
 5487SOL    HW217040   0.935   7.629   9.717 -0.3504 -0.4762  0.0301
 5488SOL     OW17041   6.276   7.492   2.130 -0.2897 -0.0672 -0.2384
 5488SOL    HW117042   6.201   7.541   2.095  0.9228  1.4936 -0.7368
 5488SOL    HW217043   6.256   7.401   2.110 -1.2808  0.4639 -1.8887
 5489SOL     OW17044   1.599   7.162   1.253 -0.3042  0.0370 -0.0631
 5489SOL    HW117045   1.574   7.166   1.346 -2.8826  0.2758 -0.6753
 5489SOL    HW217046   1.691   7.185   1.252 -0.3580  0.6806  2.3870
 5490SOL     OW17047   5.782   0.907   3.161  0.2898  0.0653  0.6055
 5490SOL    HW117048   5.733   0.977   3.117 -1.0738 -1.6124 -0.7153
 5490SOL    HW217049   5.787   0.935   3.253 -0.6594  1.6379  0.2136
 5491SOL     OW17050   3.419   6.251   7.346  0.6795 -0.0352  0.2376
 5491SOL    HW117051   3.502   6.208   7.369  0.5376 -1.0040 -0.9433
 5491SOL    HW217052   3.445   6.331   7.302  0.9835 -0.0589  0.3699
 5492SOL     OW17053   8.318   8.686   6.239  0.2145 -0.8006  0.1079
 5492SOL    HW117054   8.321   8.763   6.296 -2.5661 -1.0101  0.6897
 5492SOL    HW217055   8.236   8.697   6.190 -0.5212 -3.6144  0.5788
 5493SOL     OW17056   4.024   4.119   6.883 -0.0570  0.0992 -0.7381
 5493SOL    HW117057   4.081   4.082   6.815  1.6070 -0.8740  1.0897
 5493SOL    HW217058   3.943   4.069   6.877  0.6395 -1.0169 -1.0172
 5494SOL     OW17059   0.662   9.692   4.178  0.1038  0.8084 -0.6465
 5494SOL    HW117060   0.710   9.765   4.216 -0.4046  3.0191 -3.8634
 5494SOL    HW217061   0.730   9.633   4.145  0.5214  1.0587 -0.2505
 5495SOL     OW17062   5.179   6.960   8.805  0.6656  0.4276  0.2499
 5495SOL    HW117063   5.089   6.991   8.808  1.0828  1.8259 -0.8593
 5495SOL    HW217064   5.194   6.939   8.713  1.1160 -0.9748  0.6154
 5496SOL     OW17065   6.682   6.357   6.799  0.2014  0.2782 -0.1304
 5496SOL    HW117066   6.677   6.278   6.854 -0.5755  0.2719 -0.1992
 5496SOL    HW217067   6.681   6.429   6.861  0.0483  0.2513 -0.1000
 5497SOL     OW17068   6.889   0.446   3.550 -0.7467  0.5611 -0.1732
 5497SOL    HW117069   6.881   0.447   3.645  2.3650  0.0434  0.1923
 5497SOL    HW217070   6.879   0.354   3.526  2.6671 -0.0446  0.2550
 5498SOL     OW17071   7.330   3.343   4.982 -0.2550 -0.0152 -0.1349
 5498SOL    HW117072   7.314   3.419   4.926  0.7580 -0.4271 -1.0200
 5498SOL    HW217073   7.405   3.368   5.036  0.1663 -0.4288 -0.5227
 5499SOL     OW17074   7.027   6.685   7.047 -0.3751 -0.5153 -0.6044
 5499SOL    HW117075   7.028   6.708   6.954  1.3226 -0.3792 -0.5860
 5499SOL    HW217076   7.038   6.590   7.048 -0.1885 -0.4923 -0.5358
 5500SOL     OW17077   4.006   0.151   3.005 -0.6263  0.5166  0.1603
 5500SOL    HW117078   4.091   0.109   3.020 -0.1255  1.9879  1.6278
 5500SOL    HW217079   4.000   0.159   2.910  1.1946  1.0235  0.0600
 5501SOL     OW17080   6.613   4.519   0.467 -0.0424  0.2518  0.3138
 5501SOL    HW117081   6.697   4.482   0.442  0.2837 -0.4299  2.2890
 5501SOL    HW217082   6.558   4.444   0.487 -0.7300  0.7370  0.2922
 5502SOL     OW17083   6.900   8.176   6.460 -0.3366  0.1144  0.0425
 5502SOL    HW117084   6.828   8.148   6.404 -0.9708  0.2696  0.7512
 5502SOL    HW217085   6.971   8.198   6.400 -1.1263  0.6569 -0.7165
 5503SOL     OW17086   8.759   8.426   7.431 -0.3995  0.1216  0.4268
 5503SOL    HW117087   8.673   8.466   7.441 -0.5711 -0.1554  0.0752
 5503SOL    HW217088   8.760   8.393   7.341  0.5931  1.3391 -0.0317
 5504SOL     OW17089   1.180   3.745   5.796 -0.1534 -0.0358 -0.1638
 5504SOL    HW117090   1.189   3.815   5.732  2.4976  0.3006  0.4589
 5504SOL    HW217091   1.184   3.664   5.744  0.6307  0.2536 -0.5767
 5505SOL     OW17092   7.032   4.797   9.338  0.2218  0.3608  0.5463
 5505SOL    HW117093   6.944   4.828   9.317  0.6125  1.6945  0.7235
 5505SOL    HW217094   7.059   4.745   9.263 -0.7272 -0.0830  0.5085
 5506SOL     OW17095   1.997   4.787   7.143 -0.7495  0.1750 -0.6004
 5506SOL    HW117096   1.998   4.858   7.208  1.7878  0.5280 -0.9292
 5506SOL    HW217097   1.947   4.717   7.185 -0.2435  0.8590  1.2375
 5507SOL     OW17098   1.661   1.115   5.732 -0.0338  0.6410  0.0625
 5507SOL    HW117099   1.739   1.168   5.715 -0.0386  0.3326 -0.9765
 5507SOL    HW217100   1.650   1.062   5.653 -0.3420 -0.5243  0.8633
 5508SOL     OW17101   7.188   9.867   9.216 -0.4008 -0.6641 -0.3399
 5508SOL    HW117102   7.098   9.863   9.185 -0.3465 -0.1636 -0.5805
 5508SOL    HW217103   7.212   9.775   9.232 -0.1359 -1.0905 -2.7062
 5509SOL     OW17104   0.836   8.849   6.512 -0.4593 -0.4833  0.3399
 5509SOL    HW117105   0.842   8.756   6.491 -1.7655 -0.2230 -1.4679
 5509SOL    HW217106   0.862   8.894   6.432  1.8490  0.8004  1.6980
 5510SOL     OW17107   0.683   1.684   4.476 -0.0350  0.0670 -0.2130
 5510SOL    HW117108   0.722   1.690   4.389  1.2984  1.3575  0.4201
 5510SOL    HW217109   0.664   1.591   4.488  1.0894 -0.3283 -1.3176
 5511SOL     OW17110   1.307   5.146   7.708 -0.2271 -0.0844 -0.5763
 5511SOL    HW117111   1.225   5.114   7.672 -1.2823 -0.3292  1.8353
 5511SOL    HW217112   1.282   5.220   7.764  1.0158 -0.7380  0.9449
 5512SOL     OW17113   0.436   2.056   2.118 -0.0866 -0.6072 -0.4361
 5512SOL    HW117114   0.532   2.055   2.119 -0.0476  0.9882 -0.7610
 5512SOL    HW217115   0.413   2.148   2.119 -1.6906 -0.9267  2.7849
 5513SOL     OW17116   3.232   4.959   7.097  0.1609 -0.2130  0.1710
 5513SOL    HW117117   3.300   5.024   7.079  0.7773 -0.6867  0.7400
 5513SOL    HW217118   3.154   4.993   7.053  0.9731 -0.0739 -1.2212
 5514SOL     OW17119   1.272   2.157   7.679 -0.4359  0.2850 -0.0542
 5514SOL    HW117120   1.326   2.079   7.670 -1.1336 -0.1623 -0.4587
 5514SOL    HW217121   1.311   2.220   7.618 -0.2074  0.0601 -0.1414
 5515SOL     OW17122   5.772   5.042   5.570 -0.7327  0.5333  0.2959
 5515SOL    HW117123   5.859   5.045   5.530  0.3321  2.1389  2.5306
 5515SOL    HW217124   5.754   4.949   5.581  0.4221  0.1562 -0.7227
 5516SOL     OW17125   4.282   2.614   1.993  0.2052  0.1934 -0.0251
 5516SOL    HW117126   4.210   2.569   1.948 -0.4704 -0.1464  1.3645
 5516SOL    HW217127   4.331   2.544   2.037 -0.4906  0.7106  1.6462
 5517SOL     OW17128   0.748   1.554   5.636 -0.1268  0.3792  0.3749
 5517SOL    HW117129   0.746   1.466   5.673 -2.0935  0.2811  0.1293
 5517SOL    HW217130   0.737   1.540   5.542 -3.3414  0.9420  0.5751
 5518SOL     OW17131   3.286   5.783   1.942 -0.2196  0.1436  0.0535
 5518SOL    HW117132   3.350   5.815   2.005 -0.4458 -1.8807  1.4192
 5518SOL    HW217133   3.203   5.820   1.971 -0.1754 -0.0278  0.4135
 5519SOL     OW17134   6.601   6.682   4.954 -1.1207  0.2277 -0.3380
 5519SOL    HW117135   6.677   6.694   5.011 -0.8288 -3.3270  0.2207
 5519SOL    HW217136   6.626   6.613   4.893 -3.2193  0.3850 -1.4909
 5520SOL     OW17137   3.696   2.671   9.698 -0.1521  0.0120  0.5121
 5520SOL    HW117138   3.697   2.685   9.603 -1.1859  0.3145  0.5381
 5520SOL    HW217139   3.767   2.725   9.731  1.1954 -1.2282 -0.2291
 5521SOL     OW17140   7.481   6.169   9.577 -0.3866  0.6301  0.1710
 5521SOL    HW117141   7.402   6.115   9.582 -1.3558  2.0649  1.8418
 5521SOL    HW217142   7.480   6.207   9.490 -0.9053 -0.2592 -0.2190
 5522SOL     OW17143   8.315   2.534   7.690  0.4967 -0.2284 -0.1962
 5522SOL    HW117144   8.386   2.595   7.669 -0.1357  0.4319 -0.4367
 5522SOL    HW217145   8.318   2.525   7.785 -0.3808  1.4033  0.0123
 5523SOL     OW17146   4.190   8.067   4.673  0.2040  0.0118 -0.3453
 5523SOL    HW117147   4.174   8.160   4.689 -0.0126 -0.3249  1.6588
 5523SOL    HW217148   4.276   8.064   4.630  1.6219  1.0279  2.1887
 5524SOL     OW17149   2.390   7.240   0.962 -0.2276  0.3379  0.0997
 5524SOL    HW117150   2.479   7.268   0.986 -0.1329 -0.6804  1.0183
 5524SOL    HW217151   2.338   7.256   1.040 -0.5055 -0.5242  0.1026
 5525SOL     OW17152   0.549   0.517   1.979 -0.3261 -0.1688 -0.1605
 5525SOL    HW117153   0.471   0.501   2.032 -1.1731 -0.8461 -1.5530
 5525SOL    HW217154   0.611   0.450   2.008 -1.7261 -2.3226 -1.7818
 5526SOL     OW17155   5.612   5.665   4.396  0.1036 -0.7522 -0.1731
 5526SOL    HW117156   5.564   5.704   4.323 -0.5916 -1.7611 -0.2738
 5526SOL    HW217157   5.693   5.632   4.357  0.5674  0.2959 -0.1390
 5527SOL     OW17158   8.563   3.897   2.003 -0.4790 -0.8375  0.7309
 5527SOL    HW117159   8.610   3.861   2.078 -1.6138 -3.8722  0.1195
 5527SOL    HW217160   8.480   3.927   2.039  0.3874  1.1155  1.2105
 5528SOL     OW17161   5.066   3.852   0.255 -0.1814  0.0699 -0.3836
 5528SOL    HW117162   5.051   3.921   0.190  0.4966 -0.3485 -1.0038
 5528SOL    HW217163   5.161   3.838   0.254 -0.3544 -1.2429 -0.6740
 5529SOL     OW17164   0.194   3.251   7.793  0.6347  0.1310 -0.9661
 5529SOL    HW117165   0.263   3.302   7.752  0.5048  1.4046  0.3344
 5529SOL    HW217166   0.239   3.174   7.829  1.4218  0.9984 -0.0371
 5530SOL     OW17167   0.965   1.216   7.030  0.3838 -0.1589  0.7772
 5530SOL    HW117168   0.947   1.280   6.961  0.4485  0.5557  1.4132
 5530SOL    HW217169   0.936   1.133   6.993 -2.9074  0.6626  1.1400
 5531SOL     OW17170   5.254   5.997   2.404 -0.1589 -0.0718 -0.3418
 5531SOL    HW117171   5.221   6.085   2.423 -1.6865 -1.0451  2.0764
 5531SOL    HW217172   5.200   5.940   2.458  1.7310 -2.3811 -0.7463
 5532SOL     OW17173   6.106   2.883   3.144 -0.1358  0.4780  0.4596
 5532SOL    HW117174   6.065   2.799   3.124 -0.1372  0.6106 -0.0945
 5532SOL    HW217175   6.036   2.935   3.183 -0.4435  0.6294 -0.2860
 5533SOL     OW17176   6.980   7.078   8.865  0.3674  0.3081  0.0399
 5533SOL    HW117177   7.030   7.023   8.926 -0.0174 -0.3738 -0.2482
 5533SOL    HW217178   6.894   7.087   8.906  0.0255 -0.3634 -0.5072
 5534SOL     OW17179   9.028   4.782   5.550 -0.0617  0.2460  0.0799
 5534SOL    HW117180   9.104   4.743   5.593  0.0111  0.7196  0.3895
 5534SOL    HW217181   8.954   4.753   5.604 -0.1321 -0.3647 -0.3246
 5535SOL     OW17182   8.081   7.745   2.831  0.0960  0.2535 -0.1577
 5535SOL    HW117183   8.098   7.834   2.860  1.1999 -0.1869  0.5900
 5535SOL    HW217184   8.025   7.707   2.899 -0.1725  0.2863 -0.3550
 5536SOL     OW17185   0.803   7.504   1.975 -0.0900  0.2041 -0.2509
 5536SOL    HW117186   0.831   7.571   2.036  0.1200 -0.1526  0.0510
 5536SOL    HW217187   0.812   7.422   2.024 -0.2915 -0.0457 -0.6292
 5537SOL     OW17188   2.639   2.875   8.317  0.1347 -0.2410 -0.1339
 5537SOL    HW117189   2.718   2.929   8.311  0.3357 -0.3466  1.2140
 5537SOL    HW217190   2.665   2.802   8.373 -1.3006  0.4879  1.5788
 5538SOL     OW17191   0.618   2.478   5.185  0.0808 -0.0009  0.2921
 5538SOL    HW117192   0.536   2.431   5.200 -0.5113  0.5045 -1.2055
 5538SOL    HW217193   0.592   2.561   5.146  1.3335 -0.5488 -1.9237
 5539SOL     OW17194   7.319   4.096   4.660 -0.2241 -0.1044 -0.2345
 5539SOL    HW117195   7.406   4.116   4.627 -0.1671 -0.5950 -0.3743
 5539SOL    HW217196   7.260   4.147   4.604  0.0112  0.9780  0.4462
 5540SOL     OW17197   9.924   1.608   6.458  0.2180 -0.3944 -0.4007
 5540SOL    HW117198   9.977   1.628   6.535 -1.9601 -0.8350  1.3288
 5540SOL    HW217199   9.907   1.513   6.464 -0.2293 -0.3805 -1.2537
 5541SOL     OW17200   4.496   0.021   5.046 -0.0509 -0.0683  0.1590
 5541SOL    HW117201   4.452   0.078   5.110 -1.9480  1.2592 -2.1493
 5541SOL    HW217202   4.424  -0.023   5.000  1.2442 -1.1709 -0.9049
 5542SOL     OW17203   6.065   4.746   6.279  0.1864  0.0378  0.0643
 5542SOL    HW117204   6.109   4.785   6.204  0.1147  0.1582  0.0859
 5542SOL    HW217205   6.070   4.813   6.348  0.9200 -0.3491  0.4064
 5543SOL     OW17206   6.514   7.405   8.700  0.2708 -0.4992  0.2123
 5543SOL    HW117207   6.596   7.380   8.658  1.0585  1.0704  0.7379
 5543SOL    HW217208   6.536   7.416   8.793 -0.3313  0.6726  0.2414
 5544SOL     OW17209   6.900   4.762   7.297  0.1539  0.5271 -0.2236
 5544SOL    HW117210   6.923   4.839   7.246  0.6233  0.6660  0.1929
 5544SOL    HW217211   6.851   4.797   7.372  0.0075  0.3786 -0.2487
 5545SOL     OW17212   2.376   5.011   7.136 -0.9063 -0.4060 -0.2736
 5545SOL    HW117213   2.355   4.919   7.149 -0.8486 -0.4655 -0.5914
 5545SOL    HW217214   2.471   5.012   7.122 -1.1181 -0.5003 -1.9475
 5546SOL     OW17215   6.087   5.646   4.981 -0.0859  0.0698  0.1660
 5546SOL    HW117216   6.131   5.607   5.057 -0.4166  0.1937  0.4242
 5546SOL    HW217217   6.136   5.613   4.905  0.3065  0.0251  0.4370
 5547SOL     OW17218   4.956   4.067   4.895 -0.5898  0.4858  1.1089
 5547SOL    HW117219   4.982   3.976   4.888  1.3735  1.0235  0.7351
 5547SOL    HW217220   4.885   4.077   4.832  0.2645 -0.4210 -0.0380
 5548SOL     OW17221   4.082   2.907   4.270  0.8550 -0.1617 -0.0723
 5548SOL    HW117222   4.157   2.864   4.310  0.5154 -0.3196  0.4030
 5548SOL    HW217223   4.060   2.978   4.330  0.7020 -0.0370 -0.2719
 5549SOL     OW17224   2.863   7.616   4.844 -0.1087  0.0880  0.4755
 5549SOL    HW117225   2.845   7.524   4.824 -1.8695  0.7491 -1.3558
 5549SOL    HW217226   2.862   7.660   4.759 -1.3452  2.0894  1.4445
 5550SOL     OW17227   9.104   9.575   0.703  0.1851  0.2857 -0.2316
 5550SOL    HW117228   9.098   9.670   0.709  1.9183  0.4230 -0.1383
 5550SOL    HW217229   9.100   9.545   0.794  1.2246  0.4244 -0.1195
 5551SOL     OW17230   4.269   1.846   8.633  0.0193 -0.4423 -0.1942
 5551SOL    HW117231   4.324   1.897   8.573 -0.9072  1.0031  0.1381
 5551SOL    HW217232   4.331   1.799   8.688  0.9285  0.8185 -0.1048
 5552SOL     OW17233   6.982   1.303   4.507 -0.1231 -0.3944 -0.2506
 5552SOL    HW117234   7.040   1.323   4.433  0.8942  1.3351  0.9488
 5552SOL    HW217235   6.952   1.214   4.490  0.7886 -0.3827 -2.2784
 5553SOL     OW17236   6.874   9.106   2.841 -0.1780  0.1486  0.3933
 5553SOL    HW117237   6.787   9.141   2.818 -0.7208 -1.4298 -0.1088
 5553SOL    HW217238   6.920   9.101   2.757 -0.2316 -0.6332  0.4068
 5554SOL     OW17239   1.649   9.372   4.632 -0.0270 -0.3862  0.4310
 5554SOL    HW117240   1.705   9.296   4.651  0.3788  0.0677  1.0966
 5554SOL    HW217241   1.661   9.388   4.538 -0.0924 -1.1228  0.2912
 5555SOL     OW17242   1.272   9.892   8.257 -0.1378  0.6172 -0.0085
 5555SOL    HW117243   1.240   9.861   8.341  0.6814  0.3857  0.2245
 5555SOL    HW217244   1.234   9.831   8.193  1.1594 -0.6775  0.4059
 5556SOL     OW17245   3.819   4.942   4.130 -0.0369  0.1020  0.2076
 5556SOL    HW117246   3.726   4.954   4.152 -0.0369 -0.4737  0.5354
 5556SOL    HW217247   3.856   4.897   4.206  1.1661  2.8545  1.3844
 5557SOL     OW17248   4.250   1.555   4.590  0.3207 -0.1161 -0.7738
 5557SOL    HW117249   4.175   1.516   4.544  0.2289 -1.3441  0.3491
 5557SOL    HW217250   4.266   1.495   4.664  1.7172  0.7236 -0.3695
 5558SOL     OW17251   6.990   4.617   6.617 -0.1504 -0.2701  0.0608
 5558SOL    HW117252   7.033   4.602   6.533  0.3273 -0.2937  0.3077
 5558SOL    HW217253   7.049   4.578   6.682 -0.6869 -0.5760  0.3781
 5559SOL     OW17254   8.317   1.576   1.430 -0.3738  0.3705  0.2496
 5559SOL    HW117255   8.282   1.496   1.392  1.6086  0.5243 -2.1410
 5559SOL    HW217256   8.352   1.549   1.515  0.3542 -1.3676 -0.5632
 5560SOL     OW17257   4.335   4.190   9.854 -0.2900  0.1844 -0.0287
 5560SOL    HW117258   4.366   4.113   9.806  1.8963 -0.1204  1.7022
 5560SOL    HW217259   4.380   4.264   9.814  0.7199  0.0495  0.8055
 5561SOL     OW17260   8.946   7.124   5.253  0.0646  0.1149 -0.6912
 5561SOL    HW117261   8.991   7.096   5.333 -3.3208  1.6660  2.0583
 5561SOL    HW217262   8.918   7.042   5.212  1.4308 -0.7255 -0.0199
 5562SOL     OW17263   6.790   1.450   6.351  0.0558 -0.1199 -0.3783
 5562SOL    HW117264   6.742   1.528   6.379  1.6051  0.2582  1.4198
 5562SOL    HW217265   6.851   1.482   6.285 -0.8731 -0.2810 -1.3515
 5563SOL     OW17266   3.431   9.278   6.581  0.1405 -0.6908  0.0460
 5563SOL    HW117267   3.525   9.257   6.581 -0.3028 -3.0540  1.5167
 5563SOL    HW217268   3.402   9.256   6.669 -1.7347  0.4735 -0.2364
 5564SOL     OW17269   2.544   7.285   3.228  0.2259  0.5351  0.4981
 5564SOL    HW117270   2.622   7.237   3.199  0.3110  1.0941 -0.2478
 5564SOL    HW217271   2.509   7.233   3.301 -0.7511 -1.6898 -1.4131
 5565SOL     OW17272   4.824   8.741   0.161 -0.1005 -0.2210  0.0436
 5565SOL    HW117273   4.851   8.651   0.175 -1.7659 -0.5931  1.2047
 5565SOL    HW217274   4.809   8.748   0.067 -0.2047 -1.2250 -0.0223
 5566SOL     OW17275   1.204   6.931   1.441 -0.6554  0.2384 -0.4836
 5566SOL    HW117276   1.242   6.887   1.365  0.5232  1.6557 -0.7669
 5566SOL    HW217277   1.163   7.010   1.405  1.5687  1.9612  0.4499
 5567SOL     OW17278   8.832   6.279   4.214  0.2716 -0.2091 -0.6785
 5567SOL    HW117279   8.881   6.220   4.271 -0.2769 -0.5867 -0.5905
 5567SOL    HW217280   8.888   6.357   4.206  1.0478 -0.7697 -0.8721
 5568SOL     OW17281   8.080   3.582   9.008 -0.0500 -0.1973  0.3018
 5568SOL    HW117282   8.045   3.566   9.096  0.6937 -1.3312  0.4156
 5568SOL    HW217283   8.005   3.566   8.950 -0.4540  0.2100  0.7066
 5569SOL     OW17284   0.892   1.792   4.727  0.1105 -0.5259 -0.4695
 5569SOL    HW117285   0.835   1.743   4.669 -1.3920 -0.7279  1.0869
 5569SOL    HW217286   0.832   1.842   4.784  1.4616 -0.5046  1.0207
 5570SOL     OW17287   5.310   6.705   5.312  0.0750 -0.0367  0.0321
 5570SOL    HW117288   5.238   6.642   5.308  1.4698 -1.6032 -1.5131
 5570SOL    HW217289   5.350   6.690   5.398 -1.7555  1.3341  1.2237
 5571SOL     OW17290   7.110   5.528   3.493 -0.3818 -0.0467  0.3047
 5571SOL    HW117291   7.067   5.518   3.577  0.3784 -0.8229  0.6168
 5571SOL    HW217292   7.139   5.619   3.491  1.2102 -0.4661  1.7000
 5572SOL     OW17293   8.256   8.953   9.211  0.4773 -0.6902 -0.0570
 5572SOL    HW117294   8.241   9.018   9.280  1.1534  0.0966 -0.6154
 5572SOL    HW217295   8.195   8.882   9.230  2.0471 -1.4765  2.5654
 5573SOL     OW17296   9.638   9.833   4.210 -0.4276 -0.2188 -0.8238
 5573SOL    HW117297   9.608   9.924   4.207  2.1325  0.6685 -1.3555
 5573SOL    HW217298   9.632   9.802   4.120 -1.5043 -0.6923 -0.6086
 5574SOL     OW17299   0.498   2.357   9.884 -0.0254 -0.2715 -0.0353
 5574SOL    HW117300   0.443   2.279   9.899 -1.9758  1.0715  0.1839
 5574SOL    HW217301   0.500   2.366   9.789 -0.3523 -0.2305 -0.0415
 5575SOL     OW17302   0.566   3.007   8.467 -0.6018 -0.2696  0.0905
 5575SOL    HW117303   0.619   3.053   8.533 -1.3454 -1.7249  1.7937
 5575SOL    HW217304   0.562   3.068   8.393  0.7411  1.2116  1.1533
 5576SOL     OW17305   3.052   1.999   0.935  0.0146  0.2475 -0.4762
 5576SOL    HW117306   3.019   2.030   0.850  1.4718  1.7514 -0.5425
 5576SOL    HW217307   3.144   1.981   0.919 -0.0347 -0.9607  0.4480
 5577SOL     OW17308   3.221   6.866   2.612 -0.0708 -0.5663  0.3928
 5577SOL    HW117309   3.271   6.802   2.663 -0.0495  0.2233  1.3876
 5577SOL    HW217310   3.244   6.847   2.521  1.5976 -0.6127  0.7901
 5578SOL     OW17311   9.299   8.780   1.348 -0.4864  0.1224 -0.2223
 5578SOL    HW117312   9.377   8.836   1.350 -1.8123  2.0629 -0.3574
 5578SOL    HW217313   9.312   8.724   1.272  0.5924  0.6856 -0.4781
 5579SOL     OW17314   7.864   4.454   5.366  0.0391 -0.0162  0.0127
 5579SOL    HW117315   7.909   4.371   5.354 -1.7854 -1.3357  1.6019
 5579SOL    HW217316   7.788   4.449   5.308  0.0515  0.6315 -0.0654
 5580SOL     OW17317   5.994   7.507   2.016 -0.2217 -0.3810  0.4125
 5580SOL    HW117318   6.033   7.429   2.053  2.9589  0.3622 -1.0545
 5580SOL    HW217319   5.935   7.475   1.948  1.6456 -1.5807 -0.7223
 5581SOL     OW17320   0.470   6.313   3.640  0.5676 -0.4318 -0.7131
 5581SOL    HW117321   0.468   6.340   3.548  1.4758 -0.1936 -0.6683
 5581SOL    HW217322   0.466   6.395   3.690 -1.4572 -0.6055 -0.4836
 5582SOL     OW17323   6.122   4.695   4.687 -0.7789 -0.0150  0.2053
 5582SOL    HW117324   6.208   4.734   4.679 -1.1899  1.1284  1.0891
 5582SOL    HW217325   6.138   4.611   4.730 -0.2457  1.0460  2.2337
 5583SOL     OW17326   2.482   6.250   7.791 -0.0873 -0.6817  0.3134
 5583SOL    HW117327   2.473   6.207   7.876  0.4572 -0.8707  0.2778
 5583SOL    HW217328   2.489   6.178   7.728 -0.0824 -0.5419  0.1531
 5584SOL     OW17329   9.084   3.018   7.688  0.3244  0.4175  0.5014
 5584SOL    HW117330   9.162   2.962   7.681  0.7055  1.0664 -0.7870
 5584SOL    HW217331   9.116   3.096   7.733  0.6376  0.9945 -0.6626
 5585SOL     OW17332   7.594   9.085   8.574  0.4748  0.2936  0.5202
 5585SOL    HW117333   7.513   9.070   8.624  0.2372 -0.5580 -0.1097
 5585SOL    HW217334   7.607   9.180   8.579 -0.4338  0.4151  0.8214
 5586SOL     OW17335   7.587   8.760   0.463  0.3565 -0.5645 -0.4376
 5586SOL    HW117336   7.642   8.738   0.538 -1.5824  0.9107  1.5508
 5586SOL    HW217337   7.627   8.839   0.426  1.6009 -1.5742 -1.3571
 5587SOL     OW17338   0.608   7.713   7.874 -0.3609 -0.1580 -0.1784
 5587SOL    HW117339   0.609   7.619   7.895  1.4030 -0.2690 -0.5777
 5587SOL    HW217340   0.634   7.716   7.782 -1.7210  0.6762 -0.5611
 5588SOL     OW17341   8.476   1.950   8.695 -0.2556 -0.5530  0.1670
 5588SOL    HW117342   8.394   1.905   8.718 -1.0271  1.3296  1.4028
 5588SOL    HW217343   8.544   1.898   8.738 -1.1669 -0.2732  2.0604
 5589SOL     OW17344   3.468   8.332   9.042 -0.5184 -0.2242  0.0309
 5589SOL    HW117345   3.461   8.412   9.095  1.8376  0.8369 -1.1024
 5589SOL    HW217346   3.521   8.358   8.967 -1.3968 -2.3899 -1.4219
 5590SOL     OW17347   7.586   1.590   4.448  0.0022 -0.1496 -0.0820
 5590SOL    HW117348   7.511   1.534   4.469  0.3216 -0.2959  0.7339
 5590SOL    HW217349   7.556   1.644   4.375 -0.4062 -1.2040 -0.7280
 5591SOL     OW17350   4.937   1.171   1.623  0.1769  0.2093 -0.7376
 5591SOL    HW117351   4.999   1.169   1.551  1.5270  1.4395  0.3230
 5591SOL    HW217352   4.912   1.080   1.636  3.6276 -0.7373  0.3067
 5592SOL     OW17353   1.671   7.513   2.384  0.2656  0.3225  0.1618
 5592SOL    HW117354   1.602   7.574   2.358 -0.8644 -0.3813  1.3748
 5592SOL    HW217355   1.683   7.456   2.307 -0.3134  0.6327 -0.1632
 5593SOL     OW17356   1.286   5.452   0.209  0.3686  0.4074 -0.0290
 5593SOL    HW117357   1.269   5.470   0.302 -0.7173 -0.0184 -0.1383
 5593SOL    HW217358   1.352   5.517   0.185 -0.3694  1.4517  0.6829
 5594SOL     OW17359   3.905   8.575   0.677  0.4424 -0.8037  0.0380
 5594SOL    HW117360   3.852   8.634   0.730  1.0180  1.2507 -1.5264
 5594SOL    HW217361   3.995   8.593   0.704  0.6415 -0.7408 -0.6357
 5595SOL     OW17362   8.922   4.750   0.999  0.5616 -0.0467 -0.3273
 5595SOL    HW117363   8.872   4.741   0.918 -1.0107  1.9395  0.3334
 5595SOL    HW217364   8.974   4.829   0.987  0.7124 -0.0291  0.4042
 5596SOL     OW17365   1.416   9.567   8.040  0.4754  0.2329 -0.1588
 5596SOL    HW117366   1.418   9.662   8.027  0.7602  0.1094 -1.1084
 5596SOL    HW217367   1.387   9.532   7.956 -1.5346 -0.4362  0.7367
 5597SOL     OW17368   8.526   6.601   0.829 -0.1337 -0.2675 -0.2319
 5597SOL    HW117369   8.476   6.650   0.893 -1.7148 -0.2661 -1.3894
 5597SOL    HW217370   8.585   6.665   0.789  0.2493 -0.0900  0.6060
 5598SOL     OW17371   4.612   8.326   4.144 -0.6574 -0.1529  0.2035
 5598SOL    HW117372   4.645   8.411   4.173 -0.7337  0.6236 -1.8375
 5598SOL    HW217373   4.690   8.273   4.132 -0.6836 -0.9322  2.9457
 5599SOL     OW17374   2.309   0.420   8.517 -0.2733 -0.1987 -0.2241
 5599SOL    HW117375   2.280   0.334   8.548  0.7830 -0.8936 -1.1087
 5599SOL    HW217376   2.232   0.476   8.529 -1.1146 -1.3493 -0.0122
 5600SOL     OW17377   2.954   6.185   8.680  0.0166 -0.1530 -0.7239
 5600SOL    HW117378   3.011   6.260   8.663 -0.5314  0.3752 -0.2383
 5600SOL    HW217379   2.865   6.219   8.669 -0.3531 -0.0805  1.8555
 5601SOL     OW17380   6.583   5.630   9.248  0.0566 -0.9185 -0.0214
 5601SOL    HW117381   6.601   5.536   9.249 -1.2108 -1.1841 -0.0407
 5601SOL    HW217382   6.577   5.654   9.341 -0.9945 -1.1653 -0.0080
 5602SOL     OW17383   1.342   3.725   6.826  0.3607 -0.0511  0.4877
 5602SOL    HW117384   1.344   3.816   6.797 -2.0187 -0.3535 -0.8523
 5602SOL    HW217385   1.399   3.679   6.764 -1.3552  0.0007 -1.2255
 5603SOL     OW17386   8.124   4.395   7.729  0.5172 -0.4360  0.0692
 5603SOL    HW117387   8.130   4.437   7.814 -0.1910 -1.3484  0.5939
 5603SOL    HW217388   8.143   4.464   7.666 -0.1230  0.5348  0.9135
 5604SOL     OW17389   9.240   1.609   3.137  0.2741 -0.0352 -0.0604
 5604SOL    HW117390   9.165   1.606   3.197 -0.6997  0.3701 -1.2189
 5604SOL    HW217391   9.300   1.671   3.177  0.2933 -0.8178  1.2020
 5605SOL     OW17392   8.610   9.537   0.982 -0.2933  0.1218  0.2918
 5605SOL    HW117393   8.670   9.512   0.912 -0.0621  0.7070  0.2719
 5605SOL    HW217394   8.631   9.629   0.999 -1.1720  0.3240  0.2981
 5606SOL     OW17395   8.782   6.528   1.129 -0.3497 -0.0379 -0.4733
 5606SOL    HW117396   8.730   6.574   1.195 -0.7062 -0.1790 -0.6580
 5606SOL    HW217397   8.866   6.512   1.173 -1.3517 -2.2369  0.8294
 5607SOL     OW17398   8.290   7.538   0.256 -0.9754 -0.0023 -0.3270
 5607SOL    HW117399   8.345   7.592   0.199 -0.2520  0.2486  0.5914
 5607SOL    HW217400   8.214   7.593   0.275 -0.4815  0.5163  0.1958
 5608SOL     OW17401   7.627   5.664   1.730 -0.1693 -0.4512  0.1407
 5608SOL    HW117402   7.651   5.708   1.812 -0.6674 -0.5593  0.3502
 5608SOL    HW217403   7.695   5.598   1.717  1.9337  1.8207 -1.3783
 5609SOL     OW17404   4.700   5.392   4.049  0.1436 -0.8692 -0.2287
 5609SOL    HW117405   4.726   5.321   3.990  1.7537 -0.6655  0.2119
 5609SOL    HW217406   4.729   5.472   4.004  0.7543 -0.6704  0.4993
 5610SOL     OW17407   3.970   0.299   4.904  0.1508  0.1453  0.1042
 5610SOL    HW117408   3.923   0.339   4.831  1.9978 -0.2866 -1.3957
 5610SOL    HW217409   3.965   0.205   4.887 -0.2334 -0.0184  1.0869
 5611SOL     OW17410   1.576   0.948   7.936 -0.4839  0.5013 -1.0984
 5611SOL    HW117411   1.543   1.037   7.939 -1.4220  0.1418  0.9266
 5611SOL    HW217412   1.499   0.893   7.947  0.3274 -0.4764 -0.0131
 5612SOL     OW17413   6.831   2.206   6.778  0.7213 -0.7578 -0.1987
 5612SOL    HW117414   6.907   2.260   6.800  0.4935 -0.8265  0.7901
 5612SOL    HW217415   6.816   2.152   6.856 -2.0470  1.2094  0.7998
 5613SOL     OW17416   2.158   9.442   1.123 -0.4288  0.0457  0.1313
 5613SOL    HW117417   2.187   9.358   1.088 -0.4377  0.8880 -2.0389
 5613SOL    HW217418   2.239   9.493   1.135 -0.4485 -0.1317  1.1478
 5614SOL     OW17419   3.208   9.884   3.660 -0.3550  0.4641 -0.4466
 5614SOL    HW117420   3.292   9.921   3.632  0.5760 -0.6580  0.7815
 5614SOL    HW217421   3.185   9.934   3.738  0.8576 -1.3533  1.1619
 5615SOL     OW17422   5.949   1.842   9.306  0.2005  0.2855  0.6044
 5615SOL    HW117423   5.860   1.847   9.270  0.6817 -0.0280 -0.6920
 5615SOL    HW217424   5.995   1.783   9.247  1.0927 -0.1116  1.6687
 5616SOL     OW17425   2.465   0.411   3.512 -0.7517 -0.4585 -1.1693
 5616SOL    HW117426   2.548   0.439   3.474  0.2182  1.9729  2.2912
 5616SOL    HW217427   2.489   0.340   3.571 -1.4205 -0.8798 -1.3990
 5617SOL     OW17428   5.119   5.080   7.088  0.0063  0.2500 -0.5177
 5617SOL    HW117429   5.035   5.113   7.121  1.3060  2.3882  0.9202
 5617SOL    HW217430   5.096   5.029   7.011 -2.5427  1.8014 -0.9061
 5618SOL     OW17431   1.456   2.284   9.858  0.6308 -0.0978  0.4174
 5618SOL    HW117432   1.489   2.220   9.795  2.9380  1.9892 -0.6051
 5618SOL    HW217433   1.499   2.261   9.941  0.1780 -0.8040  0.4709
 5619SOL     OW17434   2.084   6.490   2.187 -0.1291 -0.2333 -0.0566
 5619SOL    HW117435   2.034   6.487   2.105  1.2723 -0.1009 -0.9446
 5619SOL    HW217436   2.155   6.427   2.174  0.5837  0.3820  0.7276
 5620SOL     OW17437   7.832   1.930   5.301  0.4742  0.0430  0.3898
 5620SOL    HW117438   7.887   1.957   5.374  0.6599 -0.6719  0.5214
 5620SOL    HW217439   7.837   2.003   5.239  2.8944 -0.6699 -0.3418
 5621SOL     OW17440   2.206   0.588   4.910 -0.1630  0.0223  0.1097
 5621SOL    HW117441   2.225   0.679   4.886  0.7273  0.2679  1.6124
 5621SOL    HW217442   2.120   0.592   4.952 -0.3015  0.0938 -0.1752
 5622SOL     OW17443   7.686   6.930   1.780  0.0188  0.3150 -0.3434
 5622SOL    HW117444   7.738   7.010   1.781  0.6972 -0.0498 -2.0023
 5622SOL    HW217445   7.660   6.920   1.688  1.8957 -2.5215 -0.7013
 5623SOL     OW17446   4.814   6.167   6.583 -0.2925  0.5245 -0.0980
 5623SOL    HW117447   4.812   6.186   6.489  1.3169  1.6834  0.0505
 5623SOL    HW217448   4.772   6.243   6.624  0.9665  1.0858  0.2056
 5624SOL     OW17449   5.501   7.338   0.841 -0.0849 -0.5266  0.2557
 5624SOL    HW117450   5.524   7.248   0.865  0.3954 -0.0850  1.5221
 5624SOL    HW217451   5.537   7.392   0.911  0.0990  0.7159 -0.7548
 5625SOL     OW17452   2.676   7.106   6.260  0.3568 -0.7686 -0.2129
 5625SOL    HW117453   2.716   7.154   6.333 -1.4785 -0.0947  0.4250
 5625SOL    HW217454   2.745   7.101   6.194  0.9829  1.9195  0.0964
 5626SOL     OW17455   9.326   1.307   6.809  0.3645  0.1926 -0.7608
 5626SOL    HW117456   9.272   1.260   6.746  1.3330 -0.9607 -0.7425
 5626SOL    HW217457   9.415   1.279   6.791  0.7188  0.2536  0.7557
 5627SOL     OW17458   2.012   6.219   4.207 -0.2852 -0.0677  0.5401
 5627SOL    HW117459   1.976   6.260   4.128 -1.4708 -0.0908  1.0542
 5627SOL    HW217460   2.046   6.292   4.259 -0.3490  0.0389  0.4313
 5628SOL     OW17461   8.558   8.879   9.391 -0.1901 -0.2185 -0.4109
 5628SOL    HW117462   8.597   8.929   9.463  2.0118 -0.8193 -1.1050
 5628SOL    HW217463   8.474   8.849   9.425  0.1521  0.7197  1.3825
 5629SOL     OW17464   3.896   1.176   7.141  0.5613  0.0138 -0.4267
 5629SOL    HW117465   3.990   1.193   7.139  0.7981 -1.2052 -0.5665
 5629SOL    HW217466   3.867   1.212   7.225  0.7489  2.2370 -1.2705
 5630SOL     OW17467   4.175   3.450   9.686 -0.3442  0.0572  0.0354
 5630SOL    HW117468   4.203   3.361   9.705  1.6456  0.8295  1.0257
 5630SOL    HW217469   4.138   3.483   9.768  1.2278  0.9097  0.4492
 5631SOL     OW17470   9.663   8.295   4.348 -0.0833 -0.5221  0.5456
 5631SOL    HW117471   9.730   8.320   4.412  0.8470  1.6048 -1.1306
 5631SOL    HW217472   9.708   8.236   4.288 -0.7735 -1.9948  1.4327
 5632SOL     OW17473   4.057   9.863   4.266 -0.0171 -0.5572 -0.4828
 5632SOL    HW117474   4.026   9.946   4.301 -0.5838 -1.3440  0.9755
 5632SOL    HW217475   3.991   9.838   4.201 -0.7824 -0.6971  0.3344
 5633SOL     OW17476   0.689   0.655   3.265 -0.2254  0.8022  0.4538
 5633SOL    HW117477   0.692   0.645   3.170  0.1913  0.1891  0.5226
 5633SOL    HW217478   0.624   0.591   3.294  0.8381 -0.1966  0.7108
 5634SOL     OW17479   4.436   5.069   1.766  0.3280 -0.1231  0.2833
 5634SOL    HW117480   4.458   5.060   1.859 -0.3342 -0.2256  0.4329
 5634SOL    HW217481   4.345   5.099   1.765  0.3260 -0.1327 -0.3307
 5635SOL     OW17482   4.181   0.813   9.908 -0.1561 -0.3542  0.1272
 5635SOL    HW117483   4.179   0.787  10.000 -3.0682 -1.2999 -0.1072
 5635SOL    HW217484   4.156   0.905   9.909 -1.1014 -0.6005  0.2608
 5636SOL     OW17485   7.363   6.317   6.467  0.2672 -0.3490 -0.6381
 5636SOL    HW117486   7.359   6.405   6.503  0.4505 -0.7925  0.5047
 5636SOL    HW217487   7.311   6.264   6.527 -0.4954 -0.8927 -1.7445
 5637SOL     OW17488   3.221   8.449   2.909 -0.3396 -0.2358  0.7322
 5637SOL    HW117489   3.298   8.397   2.884  0.0357  0.4506  0.4188
 5637SOL    HW217490   3.224   8.524   2.850 -1.4867 -0.4044  0.4462
 5638SOL     OW17491   1.107   1.706   2.742 -0.2833 -0.1244  0.1106
 5638SOL    HW117492   1.201   1.723   2.735 -0.3842  0.5634  0.3384
 5638SOL    HW217493   1.077   1.768   2.808 -0.5824 -1.5850  1.3984
 5639SOL     OW17494   7.789   3.826   8.333 -0.0686 -0.3846 -0.2812
 5639SOL    HW117495   7.851   3.758   8.306 -0.5005 -0.4285 -1.1903
 5639SOL    HW217496   7.788   3.821   8.429  1.4317 -0.2846 -0.2467
 5640SOL     OW17497   0.974   3.747   1.049  0.5392 -0.6653 -0.4577
 5640SOL    HW117498   1.043   3.690   1.015  1.4525  0.2754 -0.2105
 5640SOL    HW217499   1.018   3.805   1.111 -0.5486 -0.3131  0.0113
 5641SOL     OW17500   7.667   6.716   9.156 -0.3525 -0.2853 -0.5893
 5641SOL    HW117501   7.624   6.687   9.076  1.8588 -0.8080 -1.6941
 5641SOL    HW217502   7.699   6.635   9.197  2.6020  0.1756 -1.7306
 5642SOL     OW17503   6.875   4.138   6.482  0.5288 -0.0216 -0.2179
 5642SOL    HW117504   6.897   4.108   6.394  0.1482 -1.7284  0.2320
 5642SOL    HW217505   6.789   4.178   6.473  0.4366 -0.3032 -0.6098
 5643SOL     OW17506   2.106   3.442   1.213 -0.0151  0.2533  0.0747
 5643SOL    HW117507   2.136   3.377   1.149 -0.0094  0.2757  0.0545
 5643SOL    HW217508   2.180   3.451   1.273 -0.1502 -0.0198  0.2802
 5644SOL     OW17509   9.237   4.462   0.302  0.4077  0.4599 -0.0144
 5644SOL    HW117510   9.331   4.460   0.283  0.2074  1.6563 -1.3256
 5644SOL    HW217511   9.229   4.521   0.377  0.8663 -1.3741  1.5536
 5645SOL     OW17512   7.157   0.669   9.229  0.1977  0.4068 -0.1144
 5645SOL    HW117513   7.070   0.708   9.230  0.3903  0.8926 -1.2268
 5645SOL    HW217514   7.142   0.577   9.208 -0.0145  0.6280 -0.9725
 5646SOL     OW17515   3.978   2.182   7.442  0.5272 -0.4947  0.1828
 5646SOL    HW117516   4.041   2.118   7.409  1.7227  0.9494 -0.4374
 5646SOL    HW217517   3.940   2.221   7.363  0.0993 -0.1491  0.5491
 5647SOL     OW17518   8.012   8.725   7.713  0.0360 -0.7524  0.0553
 5647SOL    HW117519   8.053   8.745   7.797  0.8618 -1.0835 -0.2623
 5647SOL    HW217520   7.941   8.789   7.705  0.9471  0.3180  0.2753
 5648SOL     OW17521   2.831   7.717   0.598  0.4442  0.1930  0.1439
 5648SOL    HW117522   2.805   7.646   0.656  0.6188  1.0577  1.3130
 5648SOL    HW217523   2.821   7.681   0.510 -1.2171 -0.6868  0.6502
 5649SOL     OW17524   3.775   3.482   3.851  0.1393 -0.3751 -0.0984
 5649SOL    HW117525   3.809   3.569   3.830 -0.5476 -0.4006 -1.4274
 5649SOL    HW217526   3.840   3.422   3.816 -0.8134 -0.4110 -1.9262
 5650SOL     OW17527   2.916   0.280   1.784  0.1974  0.1697  0.5142
 5650SOL    HW117528   2.917   0.336   1.706 -1.3973 -0.0591  0.2959
 5650SOL    HW217529   2.876   0.334   1.852 -2.5789 -1.0327 -0.0348
 5651SOL     OW17530   0.139   1.070   8.078 -0.5283  0.8313 -0.4105
 5651SOL    HW117531   0.122   0.982   8.112 -1.9791  1.1221 -0.3033
 5651SOL    HW217532   0.085   1.076   7.999 -0.3045  1.5686 -0.5171
 5652SOL     OW17533   2.320   0.540   1.696 -0.0125  0.2874 -0.0756
 5652SOL    HW117534   2.354   0.575   1.613 -1.2355  0.8966 -0.3491
 5652SOL    HW217535   2.374   0.463   1.713  0.6985  0.5289 -1.0918
 5653SOL     OW17536   9.682   6.054   7.393  0.3261  0.2110  0.4575
 5653SOL    HW117537   9.607   6.104   7.361 -1.8781 -3.0837  0.0279
 5653SOL    HW217538   9.704   6.097   7.476 -1.5063  1.7925  0.2123
 5654SOL     OW17539   5.226   1.937   1.290  0.4056 -0.0191  0.2231
 5654SOL    HW117540   5.277   1.868   1.248  1.0537 -0.0717  1.0559
 5654SOL    HW217541   5.238   2.013   1.234 -0.1059 -0.5163 -0.5660
 5655SOL     OW17542   7.578   7.267   9.449 -0.1158 -0.0592  0.1545
 5655SOL    HW117543   7.541   7.178   9.450  1.8988 -0.9519  0.9881
 5655SOL    HW217544   7.533   7.312   9.520 -1.9671  0.0120 -0.9714
 5656SOL     OW17545   4.004   1.133   7.950  0.3233 -0.2096 -0.3402
 5656SOL    HW117546   4.062   1.104   7.879 -0.4526 -2.6786 -0.0552
 5656SOL    HW217547   3.947   1.198   7.909  1.3889  0.1166 -1.3645
 5657SOL     OW17548   8.805   2.408   9.260 -0.0921  0.4026  0.4065
 5657SOL    HW117549   8.861   2.476   9.221 -0.5898 -0.1121 -1.2939
 5657SOL    HW217550   8.856   2.375   9.334  0.8479  1.5124  0.2903
 5658SOL     OW17551   0.546   6.647   9.602  0.3242  0.5149  0.1600
 5658SOL    HW117552   0.545   6.552   9.608 -0.7426  0.5722  1.1092
 5658SOL    HW217553   0.516   6.677   9.688 -0.9279  1.6770 -0.6467
 5659SOL     OW17554   7.020   5.070   6.767  0.2400  0.5439  0.2364
 5659SOL    HW117555   6.950   5.071   6.701  0.9721  1.1624 -0.5425
 5659SOL    HW217556   7.021   4.979   6.798  0.5150  0.0080 -1.2906
 5660SOL     OW17557   0.789   5.072   8.239  0.3620  0.2470  0.2291
 5660SOL    HW117558   0.802   4.991   8.289  2.2117  1.2182  1.4301
 5660SOL    HW217559   0.783   5.140   8.306 -2.0766  1.0714 -0.7226
 5661SOL     OW17560   1.730   1.039   5.298 -0.0163 -0.0505 -0.0371
 5661SOL    HW117561   1.803   0.994   5.256 -0.0853 -0.9150  0.7565
 5661SOL    HW217562   1.752   1.132   5.290  2.5927 -0.2899  2.5857
 5662SOL     OW17563   6.647   5.683   4.368  0.0688  0.3797 -0.6405
 5662SOL    HW117564   6.574   5.650   4.316 -2.0380  0.2142  2.1686
 5662SOL    HW217565   6.719   5.623   4.348 -0.8874 -0.1885 -2.6329
 5663SOL     OW17566   6.176   9.153   8.871 -0.1706 -0.3173  0.4896
 5663SOL    HW117567   6.195   9.094   8.798  2.0454  0.6580  0.1969
 5663SOL    HW217568   6.178   9.097   8.948 -0.0494 -0.9360  0.0441
 5664SOL     OW17569   7.224   5.239   7.932  0.2531  0.7574 -0.1525
 5664SOL    HW117570   7.212   5.283   7.848 -2.2468 -1.2547 -0.9869
 5664SOL    HW217571   7.285   5.168   7.914  1.4487  1.6115  0.3399
 5665SOL     OW17572   8.252   5.068   0.234  0.1491  0.1388 -0.5546
 5665SOL    HW117573   8.272   5.121   0.157 -0.9115  0.3363 -0.7216
 5665SOL    HW217574   8.286   4.981   0.213  0.6139  0.3959 -0.8903
 5666SOL     OW17575   0.022   5.478   9.376  0.7658 -0.6167  0.1651
 5666SOL    HW117576  -0.013   5.514   9.458 -0.5954 -1.8355  0.1588
 5666SOL    HW217577   0.040   5.556   9.323 -1.2064  0.1569  0.4984
 5667SOL     OW17578   1.621   6.189   2.745  0.5188  0.1293  0.6088
 5667SOL    HW117579   1.542   6.173   2.795  1.3347  0.5979  2.0891
 5667SOL    HW217580   1.684   6.126   2.779  0.8303 -0.1868 -0.4991
 5668SOL     OW17581   2.128   2.119   4.263  0.6482  0.1034  0.5684
 5668SOL    HW117582   2.129   2.192   4.325  1.9258  0.5881  0.0031
 5668SOL    HW217583   2.035   2.105   4.244  0.3878  1.8691  0.3535
 5669SOL     OW17584   9.952   0.341   6.879  0.3791  0.0152  0.4799
 5669SOL    HW117585   9.902   0.268   6.914  0.8255 -0.3348  0.4057
 5669SOL    HW217586  10.042   0.325   6.908  0.4347  0.6856  0.6953
 5670SOL     OW17587   5.386   3.213   4.825  0.3567 -0.3793 -0.5305
 5670SOL    HW117588   5.412   3.263   4.902 -0.9147 -0.0751 -0.2663
 5670SOL    HW217589   5.408   3.270   4.751  1.2195 -0.5038 -0.3718
 5671SOL     OW17590   7.734   3.722   6.248  0.1961  0.0101 -0.3794
 5671SOL    HW117591   7.739   3.693   6.339 -2.0264  1.6775  0.3931
 5671SOL    HW217592   7.711   3.644   6.198 -0.0199 -0.6582  0.7366
 5672SOL     OW17593   5.133   8.191   7.762  0.2397 -0.3703  0.5517
 5672SOL    HW117594   5.175   8.105   7.770  1.7958  0.3785  0.7178
 5672SOL    HW217595   5.183   8.248   7.820 -1.3907  0.4514  1.2108
 5673SOL     OW17596   2.056   3.767   2.739  0.1252  0.0233 -0.2496
 5673SOL    HW117597   2.035   3.712   2.814  1.0560 -1.3060 -0.9107
 5673SOL    HW217598   1.974   3.773   2.689 -0.6362  1.3410  1.0784
 5674SOL     OW17599   6.361   6.954   9.102 -0.0870 -0.4143  0.1985
 5674SOL    HW117600   6.371   6.981   9.193 -0.5017  1.6036 -0.3110
 5674SOL    HW217601   6.300   6.880   9.106 -0.6488  0.0856  1.4980
 5675SOL     OW17602   0.423   8.897   5.916 -0.0613 -0.1611  0.1614
 5675SOL    HW117603   0.421   8.809   5.877 -0.0295 -0.8292  1.5821
 5675SOL    HW217604   0.514   8.910   5.941  0.0116  0.4575 -0.4147
 5676SOL     OW17605   7.002   0.201   0.631  0.1851 -0.4305 -0.3255
 5676SOL    HW117606   6.970   0.237   0.714 -0.9136 -2.0791  0.0071
 5676SOL    HW217607   6.942   0.129   0.611  1.5041 -1.2223 -1.6361
 5677SOL     OW17608   7.094   6.738   6.757 -0.1836  0.0232  0.3139
 5677SOL    HW117609   7.128   6.796   6.689  0.2845  0.7789  1.1638
 5677SOL    HW217610   7.149   6.659   6.752 -0.8925 -0.4073 -0.9177
 5678SOL     OW17611   9.489   3.221   1.580 -0.4328 -0.0934  0.4012
 5678SOL    HW117612   9.432   3.286   1.620 -0.1924  0.6166 -0.3831
 5678SOL    HW217613   9.487   3.241   1.486  0.1828 -0.7838  0.2274
 5679SOL     OW17614   3.770   8.854   8.843 -0.1085 -0.0331  0.0213
 5679SOL    HW117615   3.805   8.788   8.783  1.6141  0.8668 -0.0151
 5679SOL    HW217616   3.845   8.907   8.867 -1.2863  1.3651  0.7836
 5680SOL     OW17617   5.022   6.698   1.847 -0.0030 -0.1758 -0.1621
 5680SOL    HW117618   5.061   6.612   1.861  0.2587 -0.0612 -0.1793
 5680SOL    HW217619   5.088   6.746   1.797 -0.6226 -0.3422 -1.1768
 5681SOL     OW17620   7.736   4.902   0.528 -0.1631 -0.0638  0.0365
 5681SOL    HW117621   7.703   4.844   0.597  0.9990 -0.8254 -0.0339
 5681SOL    HW217622   7.706   4.989   0.555 -1.3688 -0.5876  0.4855
 5682SOL     OW17623   3.107   5.661   5.865 -0.3803  0.2613  0.0347
 5682SOL    HW117624   3.053   5.669   5.944 -0.9099 -1.7436 -0.0681
 5682SOL    HW217625   3.190   5.625   5.897 -0.4350 -0.1279 -0.2565
 5683SOL     OW17626   6.692   7.864   0.211 -0.0363 -0.0113 -0.3019
 5683SOL    HW117627   6.616   7.811   0.236 -1.0449  1.4003 -0.2506
 5683SOL    HW217628   6.659   7.954   0.209  1.7558  0.6988  0.1455
 5684SOL     OW17629   9.269   9.671   6.261 -0.1518 -0.1964 -0.2935
 5684SOL    HW117630   9.358   9.644   6.286 -0.2516 -0.5541 -0.3127
 5684SOL    HW217631   9.282   9.736   6.192  0.0789 -1.5012 -1.5418
 5685SOL     OW17632   7.951   0.821   6.706  0.3947  0.1204 -0.4531
 5685SOL    HW117633   7.976   0.897   6.758  0.4029  0.0937 -0.4178
 5685SOL    HW217634   8.030   0.767   6.703  0.4833  0.2667 -0.7518
 5686SOL     OW17635   1.222   9.558   1.652  0.0569 -0.5418  0.2558
 5686SOL    HW117636   1.301   9.611   1.638  0.9591 -2.0735 -0.7711
 5686SOL    HW217637   1.187   9.544   1.564 -0.4680 -1.1918  0.5561
 5687SOL     OW17638   0.017   6.543   3.168  0.0492  0.0029  0.4089
 5687SOL    HW117639   0.069   6.464   3.152 -0.6645 -0.3920  0.0202
 5687SOL    HW217640  -0.052   6.515   3.228  0.0504  0.4383  0.6193
 5688SOL     OW17641   7.908   7.528   4.016 -0.3372  0.0744 -0.3752
 5688SOL    HW117642   7.871   7.445   4.045 -0.5464  0.6070  0.9963
 5688SOL    HW217643   7.835   7.590   4.021  0.2722  0.7497  0.5845
 5689SOL     OW17644   2.173   0.003   7.184 -0.3189  0.1493  0.3651
 5689SOL    HW117645   2.190   0.086   7.230 -1.2645  0.0007  1.0173
 5689SOL    HW217646   2.256  -0.043   7.187  0.0075  0.7379  0.7194
 5690SOL     OW17647   7.013   6.459   2.208  0.3516  0.9177 -0.1341
 5690SOL    HW117648   7.000   6.414   2.291  1.1118 -1.3303 -1.1248
 5690SOL    HW217649   7.096   6.506   2.218 -0.6232  2.4479  1.0435
 5691SOL     OW17650   6.446   6.573   3.780 -0.1140 -0.0164 -0.7510
 5691SOL    HW117651   6.444   6.573   3.876  0.6330 -1.2942 -0.7080
 5691SOL    HW217652   6.415   6.660   3.755  0.8753  0.7900  0.6740
 5692SOL     OW17653   6.187   4.584   4.018  0.1774  0.3238  0.6923
 5692SOL    HW117654   6.244   4.577   3.942  1.2035  1.2540  1.3326
 5692SOL    HW217655   6.119   4.518   4.004  0.3303  0.4812 -1.0155
 5693SOL     OW17656   8.642   5.929   0.190 -0.3367 -0.3537  0.1603
 5693SOL    HW117657   8.602   5.903   0.273 -2.1750  0.1223 -0.5200
 5693SOL    HW217658   8.707   5.995   0.213 -1.4983  0.4886  1.1675
 5694SOL     OW17659   8.090   2.865   1.054 -0.0677  0.7265  0.1693
 5694SOL    HW117660   8.051   2.798   0.997  0.3894  0.8469 -0.2898
 5694SOL    HW217661   8.097   2.822   1.140 -1.5709  0.8312  0.3673
 5695SOL     OW17662   3.236   7.507   4.829 -0.4593 -0.4590 -0.3540
 5695SOL    HW117663   3.191   7.565   4.892  0.2580 -0.5222  0.2295
 5695SOL    HW217664   3.226   7.551   4.745 -1.1080 -0.1764 -0.1374
 5696SOL     OW17665   1.666   7.530   0.008 -0.0573 -0.1264 -0.1016
 5696SOL    HW117666   1.667   7.503   0.100  1.1795  1.4192  0.3642
 5696SOL    HW217667   1.691   7.451  -0.040  2.3104 -0.2222  1.1415
 5697SOL     OW17668   5.739   4.546   5.708 -0.5145 -0.3577  0.2614
 5697SOL    HW117669   5.647   4.550   5.681 -0.5703 -0.7879  0.3888
 5697SOL    HW217670   5.737   4.553   5.803 -0.3143  1.1907  0.1785
 5698SOL     OW17671   6.610   6.807   6.404 -0.1823 -0.6814  0.0364
 5698SOL    HW117672   6.659   6.772   6.479 -0.4184  1.3319  1.1839
 5698SOL    HW217673   6.645   6.759   6.329  3.0944  0.1455  0.8818
 5699SOL     OW17674   5.224   6.593   5.947 -0.0593  0.3067 -0.3626
 5699SOL    HW117675   5.190   6.640   5.871  1.0824 -0.3758 -1.3276
 5699SOL    HW217676   5.318   6.608   5.944  0.0913 -0.4445  0.4151
 5700SOL     OW17677   5.338   6.918   3.568 -0.0986 -0.9296 -0.3075
 5700SOL    HW117678   5.422   6.929   3.524 -1.0944  1.7158 -1.7732
 5700SOL    HW217679   5.277   6.971   3.517 -2.8266 -3.1619  0.3729
 5701SOL     OW17680   4.517   1.951   7.048 -0.0692  0.5127  0.0770
 5701SOL    HW117681   4.569   2.009   6.993 -1.5292  1.2870 -0.5306
 5701SOL    HW217682   4.487   1.882   6.989  2.4547 -1.5301  0.9781
 5702SOL     OW17683   6.617   0.281   7.895 -0.4588 -0.3228  0.5328
 5702SOL    HW117684   6.692   0.340   7.886 -1.6632  1.1946  0.0196
 5702SOL    HW217685   6.639   0.206   7.839 -0.3196  1.1711 -1.5345
 5703SOL     OW17686   8.637   0.423   6.763  0.4543  0.5180  0.3068
 5703SOL    HW117687   8.716   0.458   6.805  1.0908 -0.7501  0.2275
 5703SOL    HW217688   8.661   0.414   6.671 -0.3882  1.7558 -0.0508
 5704SOL     OW17689   1.189   3.345   6.766  0.1797  0.3902 -0.4397
 5704SOL    HW117690   1.124   3.379   6.827 -0.4058 -0.2035 -0.7208
 5704SOL    HW217691   1.174   3.394   6.685  1.4554  1.7183  0.0927
 5705SOL     OW17692   5.159   2.705   9.728 -0.0468 -0.4685 -0.0506
 5705SOL    HW117693   5.184   2.676   9.641  2.5289  0.7079  0.2140
 5705SOL    HW217694   5.187   2.633   9.786 -0.3395 -0.5809 -0.0463
 5706SOL     OW17695   9.581   9.075   7.903  0.1727  0.1383  0.2973
 5706SOL    HW117696   9.618   8.986   7.907  1.0807  0.5201  1.0575
 5706SOL    HW217697   9.646   9.129   7.950 -1.5167  0.8012  2.0079
 5707SOL     OW17698   0.970   4.378   8.613 -0.1498  0.5193  0.2350
 5707SOL    HW117699   0.926   4.319   8.552 -3.1424  1.4215  1.3208
 5707SOL    HW217700   0.990   4.455   8.561  0.6100 -0.0825 -0.3900
 5708SOL     OW17701   7.521   2.489   5.767  0.1792 -0.1004  0.8065
 5708SOL    HW117702   7.585   2.418   5.776  0.0689 -0.1842  0.9591
 5708SOL    HW217703   7.527   2.516   5.676 -0.8323 -1.3220  0.3498
 5709SOL     OW17704   1.854   5.995   6.744  0.2144  0.1017  0.6930
 5709SOL    HW117705   1.846   5.981   6.838 -1.5864  0.6950  0.6868
 5709SOL    HW217706   1.873   6.089   6.736  2.0161 -0.2528  0.4818
 5710SOL     OW17707   7.454   5.463   8.265  0.3841 -0.3926  0.0060
 5710SOL    HW117708   7.533   5.514   8.246  0.5809  0.2960  2.3296
 5710SOL    HW217709   7.479   5.410   8.341 -1.0171 -1.1308 -0.0286
 5711SOL     OW17710   1.012   5.159   7.818 -0.2665  0.4687  0.1066
 5711SOL    HW117711   0.971   5.114   7.892 -1.1942  0.6451 -0.2979
 5711SOL    HW217712   0.940   5.180   7.759  0.5200 -0.1049 -1.0946
 5712SOL     OW17713   2.444   9.100   8.752 -0.1170  0.3702 -0.0137
 5712SOL    HW117714   2.376   9.118   8.817 -2.3458 -1.6633 -1.6187
 5712SOL    HW217715   2.447   9.179   8.698  0.5329  1.3910  1.4432
 5713SOL     OW17716   9.497   4.010   5.355  0.1219 -0.3771 -0.2133
 5713SOL    HW117717   9.529   4.084   5.304 -0.3073 -0.1428 -0.1488
 5713SOL    HW217718   9.485   4.044   5.443  0.2272 -0.6056 -0.1095
 5714SOL     OW17719   1.984   2.117   7.816 -0.3169  0.5293 -0.2630
 5714SOL    HW117720   1.893   2.147   7.817 -0.7319 -0.5848  2.3652
 5714SOL    HW217721   1.988   2.059   7.740 -1.6928  0.9265 -0.6797
 5715SOL     OW17722   3.195   9.861   8.041  0.0695  0.6489 -0.0113
 5715SOL    HW117723   3.163   9.823   8.123 -2.5254 -0.4129 -1.4160
 5715SOL    HW217724   3.273   9.809   8.020 -1.0929 -1.2922  0.1802
 5716SOL     OW17725   9.544   7.549   3.330  0.0562  1.0024  0.1042
 5716SOL    HW117726   9.610   7.500   3.379 -0.0035  0.7660 -0.0527
 5716SOL    HW217727   9.553   7.519   3.240 -0.1207  1.1300  0.0427
 5717SOL     OW17728   4.009   2.057   0.725 -0.1636 -0.0320 -0.0563
 5717SOL    HW117729   4.054   2.003   0.660 -0.3949 -1.7758  1.1550
 5717SOL    HW217730   3.966   2.125   0.674  0.5063 -0.7255 -1.6197
 5718SOL     OW17731   4.896   2.505   1.595 -0.0614 -0.3004  0.6131
 5718SOL    HW117732   4.834   2.577   1.600  0.6575  0.4275 -0.4785
 5718SOL    HW217733   4.909   2.491   1.501  3.1297  1.1001  0.7063
 5719SOL     OW17734   9.728   2.996   1.052  0.0267 -0.4042  0.5650
 5719SOL    HW117735   9.750   2.932   1.119  0.6691 -0.3259  0.4329
 5719SOL    HW217736   9.686   3.067   1.100  0.3019 -0.4374  0.8614
 5720SOL     OW17737   1.235   4.927   7.892 -0.0105 -0.0967 -0.0967
 5720SOL    HW117738   1.266   4.995   7.832  1.5105 -1.0256 -0.4321
 5720SOL    HW217739   1.223   4.972   7.975 -1.6945  1.1254 -0.9417
 5721SOL     OW17740   7.052   1.605   3.424  0.9666  0.4728  0.3902
 5721SOL    HW117741   7.111   1.537   3.392  0.3063  1.2036 -2.6912
 5721SOL    HW217742   6.965   1.566   3.420  0.4819  1.5797 -2.1619
 5722SOL     OW17743   4.383   6.348   8.042 -0.0391 -0.0419  0.3621
 5722SOL    HW117744   4.410   6.273   8.095  0.4214  0.5182  0.9199
 5722SOL    HW217745   4.293   6.326   8.015  0.8115 -1.7630 -1.2592
 5723SOL     OW17746   2.474   2.512   0.959  0.4592 -0.3002  0.2868
 5723SOL    HW117747   2.511   2.549   0.879  0.0351  1.2946  0.8025
 5723SOL    HW217748   2.550   2.491   1.013  0.7233 -0.7278 -0.2398
 5724SOL     OW17749   3.404   3.834   9.805 -0.2791 -0.0925 -0.0990
 5724SOL    HW117750   3.409   3.841   9.710  0.2913 -1.9530 -0.2569
 5724SOL    HW217751   3.338   3.898   9.831  0.8462  1.7494 -1.5345
 5725SOL     OW17752   1.238   2.046   5.225  0.5399  0.3441 -0.3443
 5725SOL    HW117753   1.242   1.955   5.254  0.4165  0.1854 -0.8109
 5725SOL    HW217754   1.168   2.085   5.278  2.6049  1.0045  2.0943
 5726SOL     OW17755   0.061   1.122   9.525 -0.1479  0.0928  0.1113
 5726SOL    HW117756   0.016   1.041   9.548 -0.0891  0.1112  0.2895
 5726SOL    HW217757   0.021   1.189   9.581 -1.2063  0.4631 -1.0245
 5727SOL     OW17758   0.418   5.370   2.640 -0.5264  0.0652  0.0372
 5727SOL    HW117759   0.419   5.400   2.732  1.2813  1.5714 -0.4150
 5727SOL    HW217760   0.459   5.441   2.592  1.5565 -2.0619 -1.5220
 5728SOL     OW17761   5.488   1.730   3.933 -0.0385  0.1189 -0.1223
 5728SOL    HW117762   5.452   1.758   3.849 -2.7438 -3.8326 -0.5643
 5728SOL    HW217763   5.420   1.752   3.997  0.8749  0.7898  0.6478
 5729SOL     OW17764   8.644   9.872   7.307 -0.0847 -0.4284  0.2555
 5729SOL    HW117765   8.617   9.791   7.351 -1.4159  0.5634  1.3367
 5729SOL    HW217766   8.651   9.847   7.215  0.8425 -2.0818  0.7193
 5730SOL     OW17767   2.502   4.927   1.447  0.8465 -0.2983  0.2301
 5730SOL    HW117768   2.468   4.926   1.357  2.4674 -0.8232 -0.4147
 5730SOL    HW217769   2.427   4.902   1.501  0.0392 -0.7548 -1.0465
 5731SOL     OW17770   4.401   6.229   1.338 -0.1462 -0.4362 -0.0464
 5731SOL    HW117771   4.376   6.137   1.345 -0.1706 -0.3873  0.5704
 5731SOL    HW217772   4.433   6.252   1.426  1.0137 -0.1987 -0.5156
 5732SOL     OW17773   5.245   6.150   1.635 -0.6155  0.1211  0.5880
 5732SOL    HW117774   5.203   6.070   1.602  0.7792 -1.0636  1.5236
 5732SOL    HW217775   5.249   6.137   1.730  2.2124 -0.0910  0.5248
 5733SOL     OW17776   7.044   2.584   8.258  0.2027 -0.1995  0.3207
 5733SOL    HW117777   7.036   2.494   8.226 -1.0809 -0.6767  1.8944
 5733SOL    HW217778   7.119   2.582   8.318  0.1726 -0.2106  0.3576
 5734SOL     OW17779   4.707   0.157   4.046 -0.1442 -0.7041 -0.5026
 5734SOL    HW117780   4.664   0.161   4.132 -0.2863 -1.6958 -0.5136
 5734SOL    HW217781   4.800   0.165   4.066  0.0732 -3.6863  0.0680
 5735SOL     OW17782   4.307   9.385   3.044  0.1552  0.5947  0.0365
 5735SOL    HW117783   4.377   9.321   3.031 -1.8961 -1.9474  0.8360
 5735SOL    HW217784   4.333   9.432   3.124  0.6631 -0.7460  0.6942
 5736SOL     OW17785   8.938   8.375   8.660  0.1367 -0.0127 -0.4023
 5736SOL    HW117786   8.899   8.437   8.598 -0.6724  0.2711  0.3751
 5736SOL    HW217787   8.902   8.290   8.635 -2.8319  0.4778  1.6008
 5737SOL     OW17788   8.935   2.430   0.675  0.0592 -0.0368  0.5512
 5737SOL    HW117789   9.016   2.449   0.628  0.9818 -2.2359  1.1312
 5737SOL    HW217790   8.943   2.339   0.701 -2.8980 -0.5455  0.0796
 5738SOL     OW17791   7.205   0.503   0.021  0.4277  0.1499  0.3258
 5738SOL    HW117792   7.165   0.457  -0.052 -0.6565  0.3097  0.8081
 5738SOL    HW217793   7.145   0.490   0.094 -0.1559  2.6228  0.3855
 5739SOL     OW17794   5.141   0.805   1.400  0.6087 -0.2746  0.5347
 5739SOL    HW117795   5.169   0.842   1.484  1.5818 -1.2213  0.6567
 5739SOL    HW217796   5.101   0.721   1.424  0.5992 -0.3966  0.0864
 5740SOL     OW17797   3.785   7.980   6.335 -0.2872  0.5680  0.8727
 5740SOL    HW117798   3.810   7.889   6.347 -1.1177  0.3655  1.1386
 5740SOL    HW217799   3.742   7.982   6.249 -0.5943  0.6341  1.0262
 5741SOL     OW17800   3.332   5.516   4.253 -0.1908  0.2013  0.0427
 5741SOL    HW117801   3.332   5.425   4.224 -0.9082  0.8370 -2.1382
 5741SOL    HW217802   3.423   5.545   4.243 -0.2409  0.1223 -0.6870
 5742SOL     OW17803   3.234   8.876   8.822 -0.1066  0.2530 -0.0510
 5742SOL    HW117804   3.252   8.813   8.892  0.2237  1.4526  1.0015
 5742SOL    HW217805   3.242   8.961   8.865 -2.8939  1.0075 -0.8324
 5743SOL     OW17806   5.048   0.431   8.613 -0.2427 -0.0413  0.3452
 5743SOL    HW117807   5.122   0.479   8.574  1.4269 -2.7449 -0.0513
 5743SOL    HW217808   4.981   0.433   8.546  0.8461 -0.6089 -0.7982
 5744SOL     OW17809   1.857   1.250   9.692  0.1103 -0.1406  0.0391
 5744SOL    HW117810   1.875   1.336   9.655 -1.6990  0.5496  0.6520
 5744SOL    HW217811   1.923   1.239   9.760 -0.0143  1.0458  0.3680
 5745SOL     OW17812   5.099   4.421   1.014  0.5360  0.3540 -0.2691
 5745SOL    HW117813   5.082   4.343   0.961  1.2056 -0.0958  0.1765
 5745SOL    HW217814   5.049   4.407   1.094 -0.2507  0.9074 -0.6450
 5746SOL     OW17815   2.123   1.982   9.533 -0.2481 -0.0466 -0.0360
 5746SOL    HW117816   2.114   1.975   9.438 -0.7419 -0.8939  0.0582
 5746SOL    HW217817   2.101   2.073   9.553  0.1045  0.2025 -0.7547
 5747SOL     OW17818   2.136   9.187   0.836 -0.2985  0.5397  0.6316
 5747SOL    HW117819   2.096   9.271   0.813 -1.1355  0.0661  0.3541
 5747SOL    HW217820   2.141   9.188   0.931  1.6864  1.8113  0.5845
 5748SOL     OW17821   2.714   7.985   0.912 -0.1085 -0.0984 -0.2651
 5748SOL    HW117822   2.766   7.966   0.833 -0.9102 -1.0365 -0.5938
 5748SOL    HW217823   2.778   8.017   0.975  0.8974 -1.2296 -0.6554
 5749SOL     OW17824   2.148   6.571   9.765 -0.1868  0.6365  0.1480
 5749SOL    HW117825   2.194   6.500   9.809  0.0896  0.5741 -0.2370
 5749SOL    HW217826   2.171   6.562   9.673 -0.4215  1.0190  0.0466
 5750SOL     OW17827   8.947   1.529   0.212  0.6328  0.3095 -0.1754
 5750SOL    HW117828   8.904   1.594   0.158  0.7034  0.1272 -0.4519
 5750SOL    HW217829   8.914   1.445   0.180  1.8485  0.1145 -0.9877
 5751SOL     OW17830   2.371   8.842   8.026 -0.2630  0.1550 -0.9511
 5751SOL    HW117831   2.288   8.820   7.984 -0.2659 -1.0407 -0.3468
 5751SOL    HW217832   2.355   8.831   8.119  0.8916 -1.3207 -0.8898
 5752SOL     OW17833   2.606   5.804   4.960 -0.1496 -0.1447  0.4974
 5752SOL    HW117834   2.583   5.897   4.958  1.8439  0.4172  1.1647
 5752SOL    HW217835   2.546   5.766   5.024  0.7439  1.2729  2.2734
 5753SOL     OW17836   6.395   3.772   4.656 -0.2217 -0.0277 -0.8579
 5753SOL    HW117837   6.370   3.824   4.579  1.3393  1.5992 -0.3236
 5753SOL    HW217838   6.488   3.792   4.669 -0.1664 -1.1770  0.7755
 5754SOL     OW17839   2.120   4.634   4.181  0.4483  0.0687 -0.1209
 5754SOL    HW117840   2.115   4.710   4.240  0.6376  0.4598 -0.6051
 5754SOL    HW217841   2.194   4.653   4.124 -1.3580  1.0080 -2.2891
 5755SOL     OW17842   1.358   4.018   6.085 -0.3798  0.1312  0.0876
 5755SOL    HW117843   1.292   3.951   6.072  0.5860 -1.0685  1.1373
 5755SOL    HW217844   1.396   4.031   5.998 -0.2930 -0.9874 -0.0524
 5756SOL     OW17845   2.557   4.428   1.503  0.2268  0.6616  0.4010
 5756SOL    HW117846   2.630   4.476   1.462 -0.0735  0.9772  0.2287
 5756SOL    HW217847   2.566   4.448   1.596  1.1573 -0.3918  0.5565
 5757SOL     OW17848   5.373   6.825   0.856 -0.2479  0.2982 -0.1777
 5757SOL    HW117849   5.304   6.784   0.805 -0.3866  0.3997 -0.0748
 5757SOL    HW217850   5.345   6.916   0.865 -1.1327 -0.0915  1.5764
 5758SOL     OW17851   3.546   6.633   3.810  0.1382  0.4575 -0.3310
 5758SOL    HW117852   3.502   6.693   3.871 -0.3504  0.7397 -0.9472
 5758SOL    HW217853   3.638   6.635   3.837 -0.0999  0.4274  0.5176
 5759SOL     OW17854   5.921   2.177   1.938 -0.1798  0.4296 -0.4106
 5759SOL    HW117855   5.883   2.113   1.998 -1.5000 -1.2953 -2.9420
 5759SOL    HW217856   6.004   2.201   1.980 -0.7507 -1.0801  1.7999
 5760SOL     OW17857   5.607   2.335   5.196 -0.0004 -0.0221  0.4069
 5760SOL    HW117858   5.549   2.379   5.258  1.2315 -0.2488  1.7856
 5760SOL    HW217859   5.557   2.259   5.166  0.3548 -1.6637  3.4843
 5761SOL     OW17860   9.511   4.511   5.026  0.1710 -0.0384  0.4244
 5761SOL    HW117861   9.470   4.446   5.082  0.9491 -1.8315 -0.9828
 5761SOL    HW217862   9.447   4.582   5.020 -0.6460 -0.5854  2.1185
 5762SOL     OW17863   1.110   9.204   7.115  0.0646  0.2101  0.3252
 5762SOL    HW117864   1.188   9.165   7.076  1.0181  0.2312  2.1382
 5762SOL    HW217865   1.105   9.292   7.077  0.6879  0.0690 -0.0943
 5763SOL     OW17866   7.633   7.566   3.739 -0.3638 -0.4343 -0.2006
 5763SOL    HW117867   7.590   7.545   3.656 -0.1437 -0.3764 -0.3317
 5763SOL    HW217868   7.596   7.651   3.765  0.3081  0.0446 -0.7618
 5764SOL     OW17869   0.802   7.639   0.940 -0.1771  0.3597  0.0900
 5764SOL    HW117870   0.768   7.560   0.900 -0.0537  0.4978 -0.2866
 5764SOL    HW217871   0.813   7.701   0.868 -1.2819  1.0900  0.5204
 5765SOL     OW17872   1.813   2.573   6.578  0.0660  0.4128  0.4191
 5765SOL    HW117873   1.853   2.622   6.650  1.3581  1.2088 -0.7821
 5765SOL    HW217874   1.860   2.490   6.576 -0.8281 -0.1395  1.2487
 5766SOL     OW17875   2.914   7.124   5.579  0.6203  0.6476  0.2237
 5766SOL    HW117876   2.994   7.078   5.555  0.1496 -0.1674  0.1874
 5766SOL    HW217877   2.873   7.147   5.496  0.3776  0.2854  0.2434
 5767SOL     OW17878   2.493   6.041   5.358 -0.3962 -0.1945  0.0718
 5767SOL    HW117879   2.473   6.013   5.447 -0.1377 -1.8291 -0.3526
 5767SOL    HW217880   2.411   6.078   5.325 -1.1903 -1.7578  0.2119
 5768SOL     OW17881   4.308   4.900   4.866  0.0124  0.0724  0.2082
 5768SOL    HW117882   4.235   4.846   4.896 -0.0109 -0.4405 -0.7677
 5768SOL    HW217883   4.303   4.978   4.922 -1.0858 -0.0940  0.3751
 5769SOL     OW17884   1.807   5.091   8.660  0.2103 -0.0665  0.6631
 5769SOL    HW117885   1.813   5.186   8.649 -1.9733  0.1173  0.6584
 5769SOL    HW217886   1.895   5.059   8.640  0.9671  1.9341  0.5627
 5770SOL     OW17887   9.540   2.281   4.739  0.0088 -0.0486  0.4880
 5770SOL    HW117888   9.558   2.265   4.831  1.2390 -1.4006  0.0302
 5770SOL    HW217889   9.624   2.271   4.695 -0.4673  1.0372 -0.7402
 5771SOL     OW17890   3.787   3.031   1.865 -0.2073 -0.3427 -0.0978
 5771SOL    HW117891   3.745   3.014   1.950 -0.5090 -1.9934 -0.5618
 5771SOL    HW217892   3.876   3.000   1.876  0.3899  1.3501  0.2406
 5772SOL     OW17893   0.439   7.944   0.222 -0.4184  0.3027  0.2343
 5772SOL    HW117894   0.425   7.864   0.173 -0.6612  0.3873  0.1648
 5772SOL    HW217895   0.391   7.931   0.304  0.7112 -0.2034  0.8497
 5773SOL     OW17896   7.264   1.378   8.556  0.4833  0.1283  0.4952
 5773SOL    HW117897   7.348   1.423   8.563  1.3960 -0.9934 -1.9625
 5773SOL    HW217898   7.209   1.436   8.503 -0.2394  0.7123  1.8271
 5774SOL     OW17899   9.211   6.076   8.298  0.0954 -0.1423 -0.5462
 5774SOL    HW117900   9.175   6.034   8.220  0.5724 -0.7834 -0.4246
 5774SOL    HW217901   9.170   6.163   8.299 -0.0396 -0.1858 -1.4158
 5775SOL     OW17902   3.859   4.640   3.422  0.1411 -0.2238  0.7218
 5775SOL    HW117903   3.877   4.624   3.515 -0.8792 -2.1280  0.6294
 5775SOL    HW217904   3.802   4.568   3.396 -0.6150  0.9675 -1.0838
 5776SOL     OW17905   6.605   8.257   3.329  0.0883  0.1642  0.2475
 5776SOL    HW117906   6.585   8.224   3.417 -0.7628 -0.5470 -0.1962
 5776SOL    HW217907   6.653   8.338   3.344 -0.5957  0.3838  1.3694
 5777SOL     OW17908   4.557   2.078   5.866  0.2628 -0.1150  0.0384
 5777SOL    HW117909   4.552   2.102   5.959 -1.0905  0.3823 -0.1397
 5777SOL    HW217910   4.505   1.998   5.859  0.7091 -0.3806 -0.2128
 5778SOL     OW17911   0.728   0.192   7.936 -0.3981  0.1600  0.0148
 5778SOL    HW117912   0.717   0.287   7.944 -1.6923  0.0923 -0.6849
 5778SOL    HW217913   0.739   0.161   8.027 -1.6195  0.8040  0.4012
 5779SOL     OW17914   0.714   2.675   9.046  0.5820 -0.5467 -0.2497
 5779SOL    HW117915   0.754   2.653   9.130  1.8308  1.0358 -0.3992
 5779SOL    HW217916   0.636   2.725   9.069  0.4568 -0.8396 -0.0263
 5780SOL     OW17917   7.907   3.740   9.415 -0.1808  0.4163  0.4749
 5780SOL    HW117918   7.842   3.672   9.401 -2.2265  2.3343 -0.0301
 5780SOL    HW217919   7.988   3.706   9.377 -1.4742 -1.1506 -0.9708
 5781SOL     OW17920   1.703   2.934   9.610 -0.5552  0.5048 -0.1998
 5781SOL    HW117921   1.615   2.918   9.575 -0.1013  0.4904 -1.4086
 5781SOL    HW217922   1.715   2.867   9.677 -1.1939  0.0427 -0.5349
 5782SOL     OW17923   5.658   7.577   4.015  1.0698 -0.3169  0.0855
 5782SOL    HW117924   5.596   7.515   3.978  2.1669 -1.3951 -0.0084
 5782SOL    HW217925   5.608   7.626   4.081 -0.4824  0.5023 -1.6154
 5783SOL     OW17926   0.656   4.721   1.184 -0.3083 -0.3889 -0.3671
 5783SOL    HW117927   0.667   4.645   1.241  1.9726 -0.1231 -0.3590
 5783SOL    HW217928   0.592   4.776   1.229 -1.5218 -1.9823 -0.0615
 5784SOL     OW17929   5.911   9.337   9.254 -1.0520  0.1242 -0.4617
 5784SOL    HW117930   5.989   9.343   9.310 -2.1016 -0.5873  1.1782
 5784SOL    HW217931   5.920   9.253   9.209  0.5265  1.3535 -2.6006
 5785SOL     OW17932   5.942   8.733   4.247 -0.3134  0.4252 -0.2276
 5785SOL    HW117933   6.012   8.797   4.258 -0.8200  1.2661 -1.6730
 5785SOL    HW217934   5.918   8.708   4.336  1.9428 -0.0429  0.2913
 5786SOL     OW17935   0.273   5.129   6.399 -0.5514 -0.1559 -0.0491
 5786SOL    HW117936   0.335   5.076   6.449 -0.2852  1.5706  1.5496
 5786SOL    HW217937   0.324   5.204   6.368 -1.1510 -0.2673 -1.3923
 5787SOL     OW17938   8.143   0.345   3.585  0.3490 -0.4387 -0.2166
 5787SOL    HW117939   8.056   0.305   3.582  0.5133 -1.0870  2.0383
 5787SOL    HW217940   8.131   0.427   3.633  1.1793 -1.2410  1.4487
 5788SOL     OW17941   4.219   4.406   2.125  0.0750  0.6226  0.1784
 5788SOL    HW117942   4.309   4.378   2.107 -0.5515  0.1918 -2.7551
 5788SOL    HW217943   4.216   4.497   2.097 -0.2490  0.8464  0.9170
 5789SOL     OW17944   1.146   9.433   5.465  0.0244 -0.4582  0.4616
 5789SOL    HW117945   1.091   9.511   5.481  0.4584  0.2301 -1.2028
 5789SOL    HW217946   1.104   9.364   5.516  0.0448  1.0121  2.5996
 5790SOL     OW17947   7.178   8.314   8.563 -0.1775  0.5692  0.4164
 5790SOL    HW117948   7.256   8.269   8.595  0.4350  2.5449  1.8579
 5790SOL    HW217949   7.172   8.290   8.471  1.6136 -0.3213  0.5047
 5791SOL     OW17950   8.322   5.250   9.583 -0.7004 -0.1539 -0.1205
 5791SOL    HW117951   8.415   5.236   9.604 -0.3117 -0.8774 -2.1385
 5791SOL    HW217952   8.302   5.184   9.518 -2.3439  0.7370 -0.5686
 5792SOL     OW17953   7.643   3.765   7.323  0.5939  0.3240 -0.2567
 5792SOL    HW117954   7.569   3.704   7.318 -0.3999  1.5228 -1.0084
 5792SOL    HW217955   7.710   3.718   7.373 -1.0814 -0.3862  1.4505
 5793SOL     OW17956   9.511   6.893   9.788 -0.0576  0.6593  0.6090
 5793SOL    HW117957   9.567   6.917   9.714  0.8873  1.4229  1.5329
 5793SOL    HW217958   9.424   6.880   9.749  0.0934  2.4253 -0.4529
 5794SOL     OW17959   3.042   1.710   4.704  0.2270  0.0068  0.6066
 5794SOL    HW117960   3.099   1.727   4.779  0.9633  0.3346 -0.0170
 5794SOL    HW217961   3.031   1.796   4.662 -0.2619 -0.1547  0.3926
 5795SOL     OW17962   4.112   0.994   0.835  0.3261 -0.7497  0.1067
 5795SOL    HW117963   4.199   0.985   0.874  0.8146  0.0584 -0.7714
 5795SOL    HW217964   4.061   0.922   0.874  1.6879 -1.9341 -0.2164
 5796SOL     OW17965   0.872   0.299   1.475 -0.3837 -0.4738 -0.3756
 5796SOL    HW117966   0.858   0.363   1.405  0.2434 -1.2021 -1.1840
 5796SOL    HW217967   0.794   0.245   1.475 -1.5168  1.0358  1.1758
 5797SOL     OW17968   0.986   2.261   3.009  0.1772 -0.0682 -0.1079
 5797SOL    HW117969   1.023   2.172   3.012  0.2901  0.0139  1.7265
 5797SOL    HW217970   1.062   2.318   3.013  0.0821  0.1286 -0.9356
 5798SOL     OW17971   7.081   0.125   7.683  0.2070 -0.5165 -0.3659
 5798SOL    HW117972   7.172   0.144   7.708 -0.0908  0.2834  0.1548
 5798SOL    HW217973   7.077   0.150   7.590  0.8076 -1.6587 -0.7245
 5799SOL     OW17974   7.758   4.621   0.666  0.2673  0.6343  0.5210
 5799SOL    HW117975   7.671   4.615   0.627 -0.1721  0.3116  1.5101
 5799SOL    HW217976   7.742   4.654   0.755  1.0789 -0.0689  0.9447
 5800SOL     OW17977   1.595   3.935   1.758  0.2580 -0.2771 -0.0548
 5800SOL    HW117978   1.678   3.896   1.732  0.7738  1.2701 -0.8145
 5800SOL    HW217979   1.593   4.020   1.714 -0.9711  0.4406  1.2951
 5801SOL     OW17980   7.978   4.292   4.809  0.4497 -0.0779  0.0509
 5801SOL    HW117981   8.036   4.308   4.734  1.2666 -0.9115  0.4836
 5801SOL    HW217982   8.026   4.330   4.884 -0.1182  0.2806  0.2371
 5802SOL     OW17983   4.225   8.428   8.160  0.1625  0.1007  0.4975
 5802SOL    HW117984   4.141   8.390   8.186 -1.6372  1.8080 -2.3142
 5802SOL    HW217985   4.230   8.511   8.207  0.6518 -0.2892  1.1610
 5803SOL     OW17986   6.477   9.399   9.813 -0.1732  0.7212 -0.6508
 5803SOL    HW117987   6.471   9.455   9.890  0.1587  0.7251 -0.6244
 5803SOL    HW217988   6.397   9.416   9.764 -0.2982  0.8570 -0.3998
 5804SOL     OW17989   0.212   6.007   2.320  0.4940 -0.1240  0.5494
 5804SOL    HW117990   0.255   5.924   2.298  2.8523  0.0109  3.7763
 5804SOL    HW217991   0.143   5.982   2.382  1.0536  0.2682  1.3456
 5805SOL     OW17992   3.743   9.546   9.890 -0.0720 -0.3985 -0.4627
 5805SOL    HW117993   3.816   9.491   9.861  0.3563 -0.1037  0.0479
 5805SOL    HW217994   3.703   9.496   9.961 -0.4341 -0.6025 -0.8017
 5806SOL     OW17995   6.809   6.098   0.362 -0.6579 -0.3597 -0.0356
 5806SOL    HW117996   6.767   6.183   0.376 -1.1983 -0.3525 -1.5751
 5806SOL    HW217997   6.851   6.079   0.446  1.5368  2.5185 -0.3424
 5807SOL     OW17998   9.528   3.775   8.194  0.5704  0.6948 -0.3401
 5807SOL    HW117999   9.439   3.810   8.199 -1.2804 -3.4006 -0.4823
 5807SOL    HW218000   9.544   3.740   8.282  1.2408 -0.2085 -0.8096
 5808SOL     OW18001   7.210   9.507   7.435  0.4482  0.0144  0.3809
 5808SOL    HW118002   7.159   9.570   7.485 -0.0198 -2.0465  2.7242
 5808SOL    HW218003   7.294   9.549   7.421 -0.6467  2.0870 -0.4312
 5809SOL     OW18004   8.212   2.888   1.707 -0.0407  0.0364  0.4036
 5809SOL    HW118005   8.287   2.904   1.650 -0.2826  0.0833  0.0961
 5809SOL    HW218006   8.155   2.964   1.693 -0.0578  0.0930  0.7775
 5810SOL     OW18007   0.620   0.857   9.084 -0.6690 -0.2346  0.0287
 5810SOL    HW118008   0.584   0.923   9.025  0.9776 -0.0072 -0.7812
 5810SOL    HW218009   0.550   0.793   9.094 -1.3546  0.2609 -1.3511
 5811SOL     OW18010   2.954   9.600   7.411 -0.5930 -0.0731  0.2704
 5811SOL    HW118011   3.002   9.634   7.336 -1.0555 -0.2001 -0.0886
 5811SOL    HW218012   2.862   9.606   7.386 -0.7147 -0.9279  0.4737
 5812SOL     OW18013   4.016   6.607   3.853 -0.0625  0.3610 -0.0373
 5812SOL    HW118014   4.012   6.680   3.914 -0.6292 -0.5748  1.0898
 5812SOL    HW218015   4.005   6.529   3.908 -2.6786 -0.4456 -1.5240
 5813SOL     OW18016   7.893   1.098   1.884 -0.4930 -0.4512  0.8375
 5813SOL    HW118017   7.900   1.174   1.941  2.5154 -1.0973  1.5010
 5813SOL    HW218018   7.815   1.051   1.914 -1.7745  1.7546  1.1068
 5814SOL     OW18019   3.007   2.079   4.033 -1.0846  0.9160  0.1182
 5814SOL    HW118020   3.043   1.995   4.059 -1.6912 -0.0705 -1.9688
 5814SOL    HW218021   3.082   2.139   4.037 -0.9582  0.6625  2.9751
 5815SOL     OW18022   6.764   3.849   6.941 -0.2739 -0.4322 -0.6273
 5815SOL    HW118023   6.684   3.859   6.889  0.1064 -0.1616 -1.1693
 5815SOL    HW218024   6.755   3.913   7.011 -1.2620 -1.5006  0.2574
 5816SOL     OW18025   6.775   2.060   2.463 -0.3185  0.1879 -0.6140
 5816SOL    HW118026   6.850   2.076   2.406 -0.3811  0.1409 -0.7109
 5816SOL    HW218027   6.745   1.972   2.439 -1.0875  0.6374 -1.3628
 5817SOL     OW18028   7.369   7.702   7.345  0.4236 -0.7854  0.2515
 5817SOL    HW118029   7.426   7.775   7.369 -1.5586  0.4666  1.3921
 5817SOL    HW218030   7.352   7.656   7.427 -1.5345 -0.1130  0.2577
 5818SOL     OW18031   1.782   9.618   0.083  0.2630  0.0077 -0.3067
 5818SOL    HW118032   1.781   9.705   0.123 -0.9138 -0.4650  0.7823
 5818SOL    HW218033   1.750   9.560   0.152 -0.8068 -1.0261 -1.6207
 5819SOL     OW18034   1.748   4.047   3.747 -0.2943  0.0200  0.4569
 5819SOL    HW118035   1.754   4.047   3.842 -0.1555 -1.7445  0.4766
 5819SOL    HW218036   1.794   4.126   3.720  0.3519  0.1374  1.8130
 5820SOL     OW18037   5.761   8.736   4.531  0.1759  0.0123  0.2854
 5820SOL    HW118038   5.792   8.646   4.546  0.6402  0.2873  1.0207
 5820SOL    HW218039   5.706   8.755   4.607  0.4894  0.5259  0.3862
 5821SOL     OW18040   6.724   1.549   5.152 -0.1238 -0.0472 -0.0176
 5821SOL    HW118041   6.732   1.624   5.094 -0.8355  0.0764  0.0258
 5821SOL    HW218042   6.631   1.548   5.176 -0.0045 -0.5983  0.4395
 5822SOL     OW18043   9.814   6.150   3.063 -0.5858 -0.3444 -0.1390
 5822SOL    HW118044   9.774   6.072   3.101 -2.4046  0.3411 -0.5318
 5822SOL    HW218045   9.747   6.186   3.004  0.4636  1.1131 -0.5203
 5823SOL     OW18046   3.719   6.102   7.703  0.2585 -0.3816  0.2017
 5823SOL    HW118047   3.666   6.087   7.781 -1.5119 -0.5479 -0.9663
 5823SOL    HW218048   3.744   6.194   7.708  0.0385 -0.3538  0.8964
 5824SOL     OW18049   2.691   7.105   8.560 -0.3643 -0.5420 -0.3088
 5824SOL    HW118050   2.760   7.088   8.625 -0.8749  0.6492  0.5906
 5824SOL    HW218051   2.735   7.100   8.476  1.0178  0.8865  0.2694
 5825SOL     OW18052   5.549   6.989   8.898 -0.3168 -0.2286  0.2216
 5825SOL    HW118053   5.476   6.997   8.836 -1.4238  0.2820  1.5478
 5825SOL    HW218054   5.509   6.955   8.978  0.5379  1.7139  1.5594
 5826SOL     OW18055   8.592   5.646   7.070 -0.3157  0.4464 -0.2937
 5826SOL    HW118056   8.592   5.571   7.129 -1.0870 -1.4664 -2.5754
 5826SOL    HW218057   8.673   5.638   7.021 -0.8084  0.5914 -1.1487
 5827SOL     OW18058   5.761   5.298   1.919  0.0526 -0.8375 -0.0844
 5827SOL    HW118059   5.693   5.231   1.907 -0.6258 -0.0339 -0.9289
 5827SOL    HW218060   5.772   5.305   2.014 -1.1362 -0.9252  0.0780
 5828SOL     OW18061   1.329   1.941   2.756  0.0794  0.7512 -0.0849
 5828SOL    HW118062   1.370   1.881   2.694 -0.2683  0.3942  0.0289
 5828SOL    HW218063   1.259   1.983   2.707  0.3509  1.1014 -0.1777
 5829SOL     OW18064   3.668   5.767   6.198 -0.5167  0.5383 -0.4883
 5829SOL    HW118065   3.573   5.770   6.202 -0.4957 -0.1472  1.1670
 5829SOL    HW218066   3.695   5.736   6.285  1.2126  0.7522 -0.9143
 5830SOL     OW18067   6.615   0.179   3.211 -0.2477 -0.2993 -0.4226
 5830SOL    HW118068   6.699   0.177   3.163  0.4885  2.7000  0.5327
 5830SOL    HW218069   6.622   0.107   3.273  2.3923  0.7331  0.6702
 5831SOL     OW18070   8.279   1.014   5.349 -0.9992 -0.0489 -0.1206
 5831SOL    HW118071   8.257   0.944   5.287  0.1223  0.2380 -0.8704
 5831SOL    HW218072   8.331   1.076   5.298  3.6035 -1.7856  1.9482
 5832SOL     OW18073   8.639   6.095   1.160  0.0286 -0.1262 -0.1103
 5832SOL    HW118074   8.627   6.188   1.145  0.9655  0.0266  0.0443
 5832SOL    HW218075   8.653   6.087   1.254 -2.5019 -0.7127  0.2814
 5833SOL     OW18076   0.102   5.995   5.524  0.1513  0.2914  0.1214
 5833SOL    HW118077   0.033   6.048   5.564 -1.0717 -0.0088 -1.4548
 5833SOL    HW218078   0.094   5.909   5.566 -0.7911  0.1156 -0.3916
 5834SOL     OW18079   0.576   5.670   9.898 -0.2450  0.0372  0.2042
 5834SOL    HW118080   0.526   5.605   9.849 -0.3963  1.1765 -1.2216
 5834SOL    HW218081   0.511   5.711   9.956 -0.3076 -0.5590  0.5587
 5835SOL     OW18082   3.062   3.864   1.305 -0.3398  0.1111 -0.0787
 5835SOL    HW118083   2.996   3.912   1.355  0.5385  0.2249  1.0084
 5835SOL    HW218084   3.063   3.907   1.219 -1.0541  0.6693  0.1863
 5836SOL     OW18085   8.535   2.004   5.642 -0.7941  0.4058 -0.9377
 5836SOL    HW118086   8.590   1.939   5.686  0.1892 -1.5581 -4.6304
 5836SOL    HW218087   8.473   2.032   5.709  1.7892 -0.7087  2.1791
 5837SOL     OW18088   0.760   2.109   2.683  0.4837  0.2584 -0.0320
 5837SOL    HW118089   0.790   2.018   2.686  2.0833  0.7666  0.7671
 5837SOL    HW218090   0.665   2.103   2.671  0.4030 -1.5385  1.1137
 5838SOL     OW18091   6.919   0.816   2.465  0.8198  0.6422 -0.3246
 5838SOL    HW118092   6.921   0.779   2.553  3.2692  1.1717 -0.0947
 5838SOL    HW218093   7.002   0.791   2.426  0.0592  0.9829 -2.2792
 5839SOL     OW18094   0.035   4.596   1.745  0.0756 -0.4297 -0.6249
 5839SOL    HW118095   0.026   4.691   1.748  1.1928 -0.3229  0.9151
 5839SOL    HW218096   0.112   4.578   1.799  0.0980 -2.1869 -1.1829
 5840SOL     OW18097   1.057   4.839   1.999 -0.3110  0.0664  0.2525
 5840SOL    HW118098   1.127   4.878   1.946  0.1398 -0.5856  0.3511
 5840SOL    HW218099   1.101   4.771   2.050 -1.2551 -1.3277 -0.7179
 5841SOL     OW18100   8.219   2.357   2.440 -0.2021 -0.4552 -0.4797
 5841SOL    HW118101   8.266   2.439   2.423  0.3043 -0.5052  0.5893
 5841SOL    HW218102   8.275   2.310   2.502 -0.9223 -1.2234 -0.3955
 5842SOL     OW18103   0.828   6.888   9.558 -0.1253 -0.0303  0.2197
 5842SOL    HW118104   0.815   6.976   9.592 -2.2231 -0.5760  0.9444
 5842SOL    HW218105   0.806   6.895   9.465 -1.2243  0.0241  0.4779
 5843SOL     OW18106   7.761   1.218   5.054  0.2455  0.4474 -0.6197
 5843SOL    HW118107   7.715   1.278   4.995  0.8339  4.2944  2.3752
 5843SOL    HW218108   7.692   1.181   5.109  0.1023  0.2432 -0.9316
 5844SOL     OW18109   7.596   8.321   2.472 -0.1009 -0.4099  0.7300
 5844SOL    HW118110   7.564   8.256   2.409 -0.3687  0.9991 -0.6446
 5844SOL    HW218111   7.668   8.364   2.426  0.1152  0.2295  1.6458
 5845SOL     OW18112   2.817   8.746   4.843 -0.1653  0.4234 -0.0870
 5845SOL    HW118113   2.756   8.700   4.786  0.0647  1.3665 -1.1249
 5845SOL    HW218114   2.797   8.713   4.931  0.1878 -1.8250 -0.8089
 5846SOL     OW18115   3.764   1.793   4.350  0.0853 -0.2299  0.3366
 5846SOL    HW118116   3.795   1.731   4.283  1.1548  0.1104  0.4854
 5846SOL    HW218117   3.669   1.789   4.345  0.1482 -0.9071 -0.5616
 5847SOL     OW18118   8.744   0.100   1.170 -0.1449  0.0603  0.4476
 5847SOL    HW118119   8.747   0.083   1.264 -2.0076 -0.9504  0.3844
 5847SOL    HW218120   8.655   0.132   1.154 -0.4299 -1.3748 -1.1944
 5848SOL     OW18121   0.437   0.683   0.878 -0.1659 -0.2468  0.1428
 5848SOL    HW118122   0.455   0.610   0.938  0.8711 -0.2355 -0.1361
 5848SOL    HW218123   0.464   0.761   0.927 -2.1055  0.0632  0.7863
 5849SOL     OW18124   0.565   1.069   8.201  0.5828  0.1403 -0.5570
 5849SOL    HW118125   0.501   1.000   8.218 -0.0135  0.6072 -0.8555
 5849SOL    HW218126   0.512   1.149   8.190  1.1370  0.3786 -1.6910
 5850SOL     OW18127   6.866   6.272   2.928  1.0886  0.2630 -0.2189
 5850SOL    HW118128   6.848   6.218   3.005  1.2346  0.3795 -0.1035
 5850SOL    HW218129   6.868   6.361   2.962  1.3779  0.2943 -0.3201
 5851SOL     OW18130   1.069   4.596   4.427  0.3167  0.2727  0.2815
 5851SOL    HW118131   1.115   4.520   4.391 -3.4870 -1.4897 -1.4328
 5851SOL    HW218132   1.024   4.635   4.352 -4.8891 -1.2818  2.1027
 5852SOL     OW18133   9.869   0.746   4.430  0.0657  0.4307  0.7161
 5852SOL    HW118134   9.777   0.771   4.437 -0.0638 -0.0681  0.8413
 5852SOL    HW218135   9.906   0.768   4.516  0.4862  2.2679  0.1001
 5853SOL     OW18136   0.155   6.968   2.985 -0.2366 -0.7250 -0.0211
 5853SOL    HW118137   0.152   6.908   2.911 -0.1569 -0.8811  0.1002
 5853SOL    HW218138   0.088   6.935   3.046  1.3642 -2.0721  1.0771
 5854SOL     OW18139   6.185   9.195   5.494  0.4196  0.1129 -0.1940
 5854SOL    HW118140   6.129   9.121   5.518  1.6870 -0.5877  0.7043
 5854SOL    HW218141   6.147   9.269   5.541 -0.2280 -0.1740 -0.2412
 5855SOL     OW18142   6.897   6.098   2.547 -0.1036 -0.0871 -0.2343
 5855SOL    HW118143   6.802   6.109   2.540 -0.2810 -0.5524  1.0896
 5855SOL    HW218144   6.917   6.026   2.487 -0.9140 -1.3490  0.9522
 5856SOL     OW18145   8.500   1.136   9.115  0.2729 -0.4325 -0.9864
 5856SOL    HW118146   8.547   1.203   9.066 -0.1823  0.6323 -0.0285
 5856SOL    HW218147   8.568   1.078   9.149  0.9467  1.0341  0.2971
 5857SOL     OW18148   4.953   6.286   1.417  0.1476 -0.6327 -0.1596
 5857SOL    HW118149   5.031   6.230   1.426  0.5522 -0.3193 -1.4187
 5857SOL    HW218150   4.987   6.375   1.426 -0.0120 -0.4849 -0.9513
 5858SOL     OW18151   7.271   2.456   0.229 -0.2364 -0.5118  0.1938
 5858SOL    HW118152   7.280   2.466   0.134 -0.0606 -0.5889  0.2007
 5858SOL    HW218153   7.245   2.543   0.259 -1.7134 -0.8325 -0.0784
 5859SOL     OW18154   3.093   0.960   1.822 -0.3969 -0.4343  0.1446
 5859SOL    HW118155   3.109   0.920   1.737 -0.9548 -0.8191  0.2185
 5859SOL    HW218156   3.006   0.930   1.847 -0.8238  0.8260  0.2094
 5860SOL     OW18157   2.633   1.819   3.519 -0.0381  0.0750  0.3361
 5860SOL    HW118158   2.693   1.883   3.555 -0.9994 -0.1338  2.4820
 5860SOL    HW218159   2.554   1.869   3.499  0.1334  0.0032 -0.5602
 5861SOL     OW18160   3.160   1.195   3.699  0.3031  0.6234  0.3653
 5861SOL    HW118161   3.095   1.166   3.635  0.4029  0.3410  0.3904
 5861SOL    HW218162   3.178   1.117   3.751  1.2043  0.5180 -0.0984
 5862SOL     OW18163   5.225   5.916   4.768  0.3856 -0.5817 -0.0531
 5862SOL    HW118164   5.218   6.009   4.787  0.3216 -1.0243  2.4349
 5862SOL    HW218165   5.262   5.912   4.680 -0.2263  1.7683 -0.4725
 5863SOL     OW18166   5.837   5.911   9.395 -0.2472  0.1651  0.5623
 5863SOL    HW118167   5.886   5.873   9.321 -0.5464 -0.9224  0.9055
 5863SOL    HW218168   5.754   5.939   9.357 -0.2644 -0.0716  0.4253
 5864SOL     OW18169   2.520   6.292   1.453 -0.0408 -0.0082  0.2470
 5864SOL    HW118170   2.534   6.200   1.434  0.1422  0.3572 -1.5493
 5864SOL    HW218171   2.426   6.301   1.465 -0.0537 -0.4150  0.4614
 5865SOL     OW18172   5.849   9.063   9.160  0.3959 -0.2012 -0.3636
 5865SOL    HW118173   5.838   8.973   9.192  0.1530 -0.9595 -2.4177
 5865SOL    HW218174   5.780   9.073   9.094  1.3552  0.9749 -1.2217
 5866SOL     OW18175   6.930   1.898   4.354 -0.5095 -0.1960  0.1550
 5866SOL    HW118176   6.995   1.926   4.418  0.1717  0.5452 -0.8259
 5866SOL    HW218177   6.871   1.973   4.346 -0.6774 -0.3422  0.0115
 5867SOL     OW18178   2.837   8.301   8.355 -0.3063  0.5253  0.0776
 5867SOL    HW118179   2.906   8.268   8.412  0.2742  1.7055  0.0758
 5867SOL    HW218180   2.859   8.392   8.340 -0.8767  0.4468 -1.4144
 5868SOL     OW18181   5.613   5.159   4.405 -0.0985 -0.2685 -0.0344
 5868SOL    HW118182   5.522   5.146   4.379  0.1083  0.2467 -1.0718
 5868SOL    HW218183   5.661   5.168   4.323  0.9575 -0.8947  0.4832
 5869SOL     OW18184   3.300   0.126   9.617  0.8718  0.2131  0.5531
 5869SOL    HW118185   3.233   0.077   9.664 -0.1849 -0.4069 -1.4549
 5869SOL    HW218186   3.382   0.085   9.643  0.4787  0.6563  2.6805
 5870SOL     OW18187   2.178   9.603   9.141 -0.4204 -0.2597 -0.2247
 5870SOL    HW118188   2.161   9.691   9.174  0.3276 -0.5168  0.9368
 5870SOL    HW218189   2.253   9.573   9.192  1.2347 -0.4878 -2.6376
 5871SOL     OW18190   0.311   2.570   1.225 -0.2691  0.3842  0.5560
 5871SOL    HW118191   0.271   2.611   1.301 -2.4320  0.6318 -0.6450
 5871SOL    HW218192   0.327   2.642   1.164  0.8458  0.1006  0.4788
 5872SOL     OW18193   5.398   1.451   9.409  0.4767 -0.0610  0.3907
 5872SOL    HW118194   5.344   1.395   9.352  1.8367 -1.1215  0.0925
 5872SOL    HW218195   5.418   1.527   9.356  0.5870 -0.3995 -0.0583
 5873SOL     OW18196   5.484   7.781   2.066 -0.4247 -0.0947  0.4207
 5873SOL    HW118197   5.462   7.873   2.080 -1.0886 -0.2546  0.4667
 5873SOL    HW218198   5.500   7.747   2.154 -0.0593  0.0027  0.3938
 5874SOL     OW18199   4.085   9.974   1.167  0.2164 -0.3279  0.0101
 5874SOL    HW118200   4.035   9.907   1.213  1.6971 -1.8997 -0.5495
 5874SOL    HW218201   4.045   9.978   1.080  0.2235 -0.6101 -0.0063
 5875SOL     OW18202   0.976   2.599   4.977 -0.4167 -0.0917  0.6136
 5875SOL    HW118203   0.953   2.685   5.012  0.4308  0.9861 -1.3611
 5875SOL    HW218204   0.893   2.552   4.974 -0.9108  0.6687  1.6136
 5876SOL     OW18205   1.447   7.563   7.487  0.2800  0.3369  0.1938
 5876SOL    HW118206   1.401   7.627   7.435 -2.6717  0.2277  2.4178
 5876SOL    HW218207   1.481   7.499   7.424 -0.4788  1.7686 -1.7209
 5877SOL     OW18208   7.386   8.535   4.634  0.1409  0.8976 -0.1433
 5877SOL    HW118209   7.322   8.597   4.669  0.0396  0.9907 -0.4920
 5877SOL    HW218210   7.462   8.546   4.691 -0.5249 -0.0051  0.9636
 5878SOL     OW18211   4.640   6.851   1.794 -0.8415  0.7245 -0.1254
 5878SOL    HW118212   4.721   6.902   1.795  0.3623 -1.0845  1.4003
 5878SOL    HW218213   4.592   6.879   1.872 -0.9582  0.6891 -0.1834
 5879SOL     OW18214   3.213   8.572   0.494  0.0515  0.0268  0.0615
 5879SOL    HW118215   3.294   8.525   0.515 -0.0795 -0.5376 -0.6389
 5879SOL    HW218216   3.144   8.508   0.510 -0.3008  0.6379  1.0648
 5880SOL     OW18217   3.225   8.266   8.942 -0.3687 -0.0034 -0.3029
 5880SOL    HW118218   3.247   8.216   8.864 -1.7333 -1.0250 -0.0547
 5880SOL    HW218219   3.310   8.294   8.977  0.3824 -1.4294 -0.9098
 5881SOL     OW18220   8.364   8.091   6.015  0.3163  0.1189  0.6269
 5881SOL    HW118221   8.291   8.091   6.076 -0.7322 -2.0786 -0.4897
 5881SOL    HW218222   8.429   8.033   6.055 -0.4592 -1.4932 -0.3525
 5882SOL     OW18223   1.326   1.927   4.538  0.5383  0.2347  0.0222
 5882SOL    HW118224   1.338   1.978   4.618 -0.8145 -0.4671  0.7005
 5882SOL    HW218225   1.261   1.861   4.561  0.7524 -0.5179 -1.4238
 5883SOL     OW18226   2.225   7.909   2.835  0.1993 -1.0991 -0.4800
 5883SOL    HW118227   2.270   7.865   2.907  0.0815  1.3983  1.2606
 5883SOL    HW218228   2.148   7.855   2.817 -0.7653 -0.9190  2.5576
 5884SOL     OW18229   8.450   9.189   3.256 -0.0063  0.2618  0.3355
 5884SOL    HW118230   8.355   9.184   3.268 -0.1813  1.6911 -0.2767
 5884SOL    HW218231   8.473   9.106   3.215 -0.8494 -0.4759  1.2952
 5885SOL     OW18232   9.918   1.372   3.384 -0.0265 -0.3475  0.1924
 5885SOL    HW118233  10.011   1.390   3.376 -0.3315  0.4036 -2.4198
 5885SOL    HW218234   9.913   1.289   3.432  2.0792 -1.4723 -1.4217
 5886SOL     OW18235   3.429   8.523   8.101 -0.4308  0.3113  0.7388
 5886SOL    HW118236   3.481   8.444   8.113  2.2475  1.8931  0.3931
 5886SOL    HW218237   3.383   8.510   8.018 -1.9098 -1.7519  1.7824
 5887SOL     OW18238   6.100   7.712   4.818  0.4219  0.3187 -0.1513
 5887SOL    HW118239   6.181   7.677   4.855 -0.3019 -0.2090  0.9751
 5887SOL    HW218240   6.030   7.659   4.857 -0.4157 -0.0524 -2.0318
 5888SOL     OW18241   8.820   2.626   5.321  0.1679 -0.1573  0.3047
 5888SOL    HW118242   8.740   2.648   5.274  0.0646  0.7251  0.8715
 5888SOL    HW218243   8.802   2.540   5.360 -0.5135  0.0507  0.4520
 5889SOL     OW18244   7.064   7.498   5.209 -0.6813 -0.1479 -0.6098
 5889SOL    HW118245   7.001   7.559   5.246 -0.9775 -0.0143 -1.3318
 5889SOL    HW218246   7.011   7.434   5.162 -0.3862 -1.0465  0.2456
 5890SOL     OW18247   6.008   8.202   9.960 -0.5227  0.3432  0.7990
 5890SOL    HW118248   6.003   8.292   9.926  1.5152  0.2281  0.0438
 5890SOL    HW218249   6.100   8.191   9.983 -0.8486 -1.3964  1.3819
 5891SOL     OW18250   8.900   4.363   9.676 -0.1529 -0.2771 -0.2895
 5891SOL    HW118251   8.972   4.381   9.737  1.4216 -3.1637 -1.0849
 5891SOL    HW218252   8.937   4.381   9.589 -0.8375 -0.5155 -0.6403
 5892SOL     OW18253   7.068   7.494   2.764 -0.5865 -0.2600 -0.0306
 5892SOL    HW118254   7.068   7.400   2.780  1.0315  0.0508  2.3388
 5892SOL    HW218255   7.052   7.503   2.670  1.7434 -3.0070 -0.8236
 5893SOL     OW18256   5.148   9.805   7.532  0.5283  0.0293  0.5812
 5893SOL    HW118257   5.144   9.788   7.627 -2.4925  2.0454  0.9662
 5893SOL    HW218258   5.128   9.899   7.524 -0.4777 -0.3402 -2.1226
 5894SOL     OW18259   9.421   4.655   2.824  0.4862  0.6139 -0.0112
 5894SOL    HW118260   9.344   4.614   2.786 -0.1169  2.2199 -0.5950
 5894SOL    HW218261   9.423   4.623   2.915 -1.0198  0.7478  0.0953
 5895SOL     OW18262   5.203   2.541   1.031  0.3516  0.3574  0.2248
 5895SOL    HW118263   5.216   2.461   0.979  0.7773  1.0557 -0.7829
 5895SOL    HW218264   5.211   2.612   0.967  1.8269  1.3000  1.4020
 5896SOL     OW18265   4.823   3.847   1.455  0.0942  0.3791 -0.0761
 5896SOL    HW118266   4.749   3.906   1.463 -0.4342 -0.4764  2.5413
 5896SOL    HW218267   4.884   3.875   1.524 -0.0572 -1.8539  1.0695
 5897SOL     OW18268   5.369   8.647   1.255  0.5162 -0.0031  0.6216
 5897SOL    HW118269   5.414   8.562   1.257  1.0641  0.2757  0.5599
 5897SOL    HW218270   5.429   8.706   1.300  0.1906  0.3767  0.5623
 5898SOL     OW18271   7.721   1.191   4.527 -0.6596 -0.8716 -0.0569
 5898SOL    HW118272   7.682   1.272   4.560  0.2565 -0.2544 -0.4470
 5898SOL    HW218273   7.659   1.160   4.461 -0.4905  0.1340 -0.7226
 5899SOL     OW18274   2.466   0.231   7.128  0.3044 -0.1446  0.3445
 5899SOL    HW118275   2.523   0.295   7.085  0.6519  0.1797  1.2660
 5899SOL    HW218276   2.511   0.211   7.211  0.4162 -1.8920 -0.1016
 5900SOL     OW18277   2.542   8.754   9.969 -0.0447  0.0295  0.2766
 5900SOL    HW118278   2.602   8.693  10.010 -1.2503 -1.2749  0.1797
 5900SOL    HW218279   2.473   8.699   9.931 -0.2726  1.3304 -1.3447
 5901SOL     OW18280   8.823   0.180   4.643 -0.4390  0.0587  0.4309
 5901SOL    HW118281   8.906   0.138   4.620 -1.0063 -0.2927 -1.0838
 5901SOL    HW218282   8.758   0.138   4.587 -1.4087  1.3829  0.5062
 5902SOL     OW18283   8.402   3.755   4.191 -0.1328 -0.1188  0.3108
 5902SOL    HW118284   8.339   3.773   4.122  0.3379  1.0989  0.1808
 5902SOL    HW218285   8.351   3.711   4.259 -0.3054 -2.8593 -1.4226
 5903SOL     OW18286   5.269   2.253   9.377  0.0653  0.0376 -0.3574
 5903SOL    HW118287   5.200   2.316   9.357  0.3817 -0.0383 -1.7886
 5903SOL    HW218288   5.268   2.192   9.303  1.5887 -0.0361 -0.3389
 5904SOL     OW18289   4.542   9.933   4.179 -0.4698  0.5782 -0.1194
 5904SOL    HW118290   4.581   9.905   4.262 -0.3253 -1.3088 -0.7641
 5904SOL    HW218291   4.452   9.957   4.201 -0.7318 -0.8441  0.4664
 5905SOL     OW18292   9.841   1.606   8.613 -0.0795 -0.4164  0.3967
 5905SOL    HW118293   9.890   1.579   8.690  1.2924  0.9299  0.0476
 5905SOL    HW218294   9.906   1.609   8.543 -0.1853  3.0083  0.2530
 5906SOL     OW18295   4.098   6.008   2.473  0.6875  0.1303  0.1575
 5906SOL    HW118296   4.041   5.931   2.469  0.2080  0.5051 -0.3114
 5906SOL    HW218297   4.168   5.982   2.533  0.2138 -0.4614  0.4708
 5907SOL     OW18298   7.343   8.021   5.270  0.2737 -0.1586  0.9192
 5907SOL    HW118299   7.316   7.992   5.183  2.4062  0.2797  0.0365
 5907SOL    HW218300   7.262   8.029   5.320 -1.1312  0.6879 -1.3558
 5908SOL     OW18301   5.878   6.402   3.921  0.7295 -0.1734 -0.0613
 5908SOL    HW118302   5.834   6.359   3.994 -0.9299  0.6809 -0.4884
 5908SOL    HW218303   5.874   6.495   3.943 -0.1405  0.1323 -1.3760
 5909SOL     OW18304   8.669   3.964   1.760 -0.4906  0.0405  0.0882
 5909SOL    HW118305   8.720   4.044   1.768  0.4708 -0.6665  1.2936
 5909SOL    HW218306   8.646   3.941   1.850  1.9242 -2.6822  0.1420
 5910SOL     OW18307   9.366   2.754   1.606 -0.1984  0.1877  0.1856
 5910SOL    HW118308   9.284   2.725   1.647 -0.0932 -0.9295 -0.3514
 5910SOL    HW218309   9.403   2.817   1.668 -1.2871  0.4568  0.5953
 5911SOL     OW18310   0.586   3.141   7.967  0.1764 -0.0410  0.0377
 5911SOL    HW118311   0.511   3.117   7.912  0.8322  0.5036 -1.1291
 5911SOL    HW218312   0.641   3.194   7.910  1.1574  0.0811  1.0735
 5912SOL     OW18313   7.096   4.817   1.573  0.3652  0.1591  0.2705
 5912SOL    HW118314   7.060   4.831   1.486 -1.3223 -1.0743  0.6980
 5912SOL    HW218315   7.168   4.756   1.560 -0.2483 -0.4783 -0.2298
 5913SOL     OW18316   1.808   3.802   1.691 -0.3565  0.9191  0.1863
 5913SOL    HW118317   1.824   3.815   1.784  1.3574  1.0150 -0.0957
 5913SOL    HW218318   1.882   3.750   1.661 -1.1036  0.5327 -1.0499
 5914SOL     OW18319   5.590   3.086   0.185  0.4692  0.4714 -0.5679
 5914SOL    HW118320   5.599   3.018   0.251  0.7336 -0.3646 -1.4452
 5914SOL    HW218321   5.601   3.168   0.233 -0.9577 -0.0322  0.7001
 5915SOL     OW18322   4.177   1.540   5.362 -0.3787 -0.1483 -0.4288
 5915SOL    HW118323   4.087   1.508   5.356 -0.7473  0.8914 -0.6833
 5915SOL    HW218324   4.197   1.574   5.275  0.2634 -0.3392 -0.3676
 5916SOL     OW18325   7.289   8.365   1.114 -0.1078  0.1305  0.7490
 5916SOL    HW118326   7.283   8.269   1.120  0.5777  0.0654  0.4424
 5916SOL    HW218327   7.251   8.396   1.197 -1.4798 -0.3539  0.3303
 5917SOL     OW18328   2.000   2.671   7.989  0.2071  0.1044 -0.8103
 5917SOL    HW118329   2.040   2.666   7.903  0.9019 -0.1655 -0.4783
 5917SOL    HW218330   1.908   2.646   7.975 -0.2767  2.2023 -1.8374
 5918SOL     OW18331   4.195   7.038   5.850 -0.2224 -0.3080 -0.5596
 5918SOL    HW118332   4.169   6.987   5.927 -1.2962  0.0848 -0.6382
 5918SOL    HW218333   4.247   6.978   5.798  0.5856 -0.5617  0.5009
 5919SOL     OW18334   2.440   1.431   1.397  0.4517  0.1302 -0.0234
 5919SOL    HW118335   2.514   1.465   1.346 -0.4551  2.3319  0.0585
 5919SOL    HW218336   2.363   1.467   1.354 -0.7023 -2.7088 -0.5510
 5920SOL     OW18337   4.908   2.084   3.160  0.5041 -0.0635  0.1346
 5920SOL    HW118338   4.938   2.012   3.215 -0.8207 -0.4585  0.3741
 5920SOL    HW218339   4.882   2.042   3.077 -1.5765 -0.1056  0.7518
 5921SOL     OW18340   3.389   0.671   7.791  0.0288 -0.0150 -0.5303
 5921SOL    HW118341   3.457   0.604   7.781  0.1450 -0.0007  0.0849
 5921SOL    HW218342   3.378   0.679   7.886  0.1275  0.9518 -0.5971
 5922SOL     OW18343   4.083   6.518   7.644  0.7614  0.4300 -0.0518
 5922SOL    HW118344   4.093   6.608   7.613  2.1553  0.4930  0.4671
 5922SOL    HW218345   4.112   6.521   7.735  0.6931 -0.5204  0.0117
 5923SOL     OW18346   5.475   8.410   1.131  0.0885  0.2375 -0.1072
 5923SOL    HW118347   5.549   8.402   1.071  0.9055 -1.8993  1.0815
 5923SOL    HW218348   5.398   8.401   1.074  0.7646  0.6689 -1.1292
 5924SOL     OW18349   5.341   9.757   8.491  0.1938 -0.0606 -0.5027
 5924SOL    HW118350   5.339   9.738   8.584 -1.9076  0.9237 -0.2861
 5924SOL    HW218351   5.270   9.704   8.454  0.6203  0.0105 -1.4533
 5925SOL     OW18352   8.432   4.305   4.473 -0.1782 -0.1806 -0.0868
 5925SOL    HW118353   8.488   4.348   4.408 -0.5215 -0.5516 -0.6369
 5925SOL    HW218354   8.475   4.322   4.557  2.0273 -2.3953 -0.6555
 5926SOL     OW18355   0.837   7.795   4.215 -0.1794 -0.4863 -0.4546
 5926SOL    HW118356   0.756   7.754   4.184 -0.5471 -0.1443  0.0261
 5926SOL    HW218357   0.807   7.871   4.266  0.4920  0.7370 -1.8125
 5927SOL     OW18358   6.163   3.312   0.689  0.3319 -0.0066  0.6156
 5927SOL    HW118359   6.241   3.365   0.701  0.1415  1.0784 -2.1435
 5927SOL    HW218360   6.195   3.227   0.658  0.4751  0.1903  0.2126
 5928SOL     OW18361   1.403   9.108   6.590  0.3507 -0.3539  0.7207
 5928SOL    HW118362   1.427   9.167   6.661  0.9935 -0.7344  0.8234
 5928SOL    HW218363   1.484   9.097   6.539 -0.0087 -0.3751  0.1420
 5929SOL     OW18364   7.115   3.628   2.867  0.3849 -0.3164 -0.3471
 5929SOL    HW118365   7.155   3.543   2.849 -1.8625 -1.6931  0.7468
 5929SOL    HW218366   7.076   3.654   2.784  0.8318 -0.4890 -0.6146
 5930SOL     OW18367   5.742   7.768   7.851 -0.3079  0.0216 -0.2414
 5930SOL    HW118368   5.670   7.709   7.829  0.4454 -1.4585  1.0461
 5930SOL    HW218369   5.751   7.762   7.946 -0.5800  2.7298  0.0375
 5931SOL     OW18370   1.014   7.465   0.857 -0.5316 -0.6211  0.4524
 5931SOL    HW118371   1.044   7.398   0.918 -0.8095  0.7089  2.1202
 5931SOL    HW218372   0.975   7.533   0.912  0.3619  1.2680 -1.0936
 5932SOL     OW18373   6.438   4.150   2.000 -0.2660  0.0056  0.5342
 5932SOL    HW118374   6.424   4.137   2.094  0.9050 -0.6031  0.6511
 5932SOL    HW218375   6.371   4.213   1.974 -1.5059 -0.8498  1.4879
 5933SOL     OW18376   2.385   8.695   9.340  0.5024  0.3100 -0.4567
 5933SOL    HW118377   2.395   8.640   9.418  0.8849  1.4531  0.3207
 5933SOL    HW218378   2.468   8.742   9.333  0.4642  0.2281 -1.5532
 5934SOL     OW18379   2.206   2.180   3.002  0.8105 -0.4017  0.0945
 5934SOL    HW118380   2.287   2.137   2.974  1.2124 -0.5167  1.3766
 5934SOL    HW218381   2.235   2.263   3.040  0.3656 -0.5772  0.8332
 5935SOL     OW18382   4.546   9.138   2.570  0.2000 -0.7251  0.3631
 5935SOL    HW118383   4.549   9.046   2.545  0.9079 -0.7665  0.5730
 5935SOL    HW218384   4.454   9.156   2.587 -0.0460 -1.1933 -0.4300
 5936SOL     OW18385   7.168   0.150   4.898  0.1110  0.8889 -0.1380
 5936SOL    HW118386   7.072   0.143   4.898 -0.0185  2.3565  0.1405
 5936SOL    HW218387   7.188   0.214   4.967  1.3902 -0.3338  0.6740
 5937SOL     OW18388   6.772   8.571   2.045 -0.1272  0.0611 -0.5468
 5937SOL    HW118389   6.716   8.559   1.967  0.7328 -2.1846 -0.9213
 5937SOL    HW218390   6.860   8.552   2.013  0.2253 -1.0470  0.9786
 5938SOL     OW18391   0.284   8.236   3.661  0.5175 -0.4113  0.1279
 5938SOL    HW118392   0.355   8.292   3.630 -0.0305  0.7567  0.9252
 5938SOL    HW218393   0.296   8.154   3.613  2.2574 -0.1638  0.0818
 5939SOL     OW18394   4.219   7.442   7.562 -0.0473  0.0847 -0.4224
 5939SOL    HW118395   4.222   7.355   7.522  2.4536 -0.7264  1.3332
 5939SOL    HW218396   4.268   7.498   7.501  0.9072 -0.4149 -0.1277
 5940SOL     OW18397   6.897   4.345   2.035  0.1204  0.3255 -0.1075
 5940SOL    HW118398   6.935   4.258   2.044  2.0466  1.1423  0.1520
 5940SOL    HW218399   6.826   4.334   1.972 -1.6772 -1.9776  2.1462
 5941SOL     OW18400   1.357   5.626   3.846  0.3223  0.4642 -0.1269
 5941SOL    HW118401   1.308   5.677   3.910  2.1761  1.6972  0.3717
 5941SOL    HW218402   1.378   5.689   3.777  0.9125 -0.1228 -0.4895
 5942SOL     OW18403   8.311   3.129   8.513 -0.0033  0.3152 -0.1015
 5942SOL    HW118404   8.271   3.216   8.517  0.2314  0.4196  0.0111
 5942SOL    HW218405   8.403   3.144   8.532  0.4891  0.3442 -2.2120
 5943SOL     OW18406   1.743   2.721   3.210 -0.3560 -0.1817 -0.0719
 5943SOL    HW118407   1.794   2.801   3.198  0.3090 -0.2780  1.8023
 5943SOL    HW218408   1.705   2.704   3.124  1.7629  0.5946 -1.2400
 5944SOL     OW18409   3.094   9.511   6.701  0.1169 -0.4547 -0.1825
 5944SOL    HW118410   3.065   9.422   6.682 -0.5486 -0.0220 -1.3408
 5944SOL    HW218411   3.182   9.517   6.665  0.1219 -0.6220 -0.1957
 5945SOL     OW18412   6.121   8.405   5.750 -0.2278  0.1267  0.3489
 5945SOL    HW118413   6.148   8.495   5.764 -0.5061  0.4720 -1.2105
 5945SOL    HW218414   6.029   8.410   5.725 -0.4364 -0.6574  0.8897
 5946SOL     OW18415   6.250   5.315   1.556  0.4136 -0.3855  0.3850
 5946SOL    HW118416   6.275   5.228   1.586  1.8949 -0.5310 -1.1393
 5946SOL    HW218417   6.327   5.369   1.575  0.1237  0.2310 -0.1592
 5947SOL     OW18418   6.633   5.370   9.257 -0.2247  0.1155 -0.1120
 5947SOL    HW118419   6.711   5.319   9.278  0.5291  0.3687 -2.0809
 5947SOL    HW218420   6.573   5.307   9.218 -0.7485  0.0650  0.7424
 5948SOL     OW18421   4.839   6.736   9.765 -0.4837 -0.1984  0.6845
 5948SOL    HW118422   4.886   6.728   9.682  1.2286  2.5481  1.2749
 5948SOL    HW218423   4.763   6.790   9.744  0.5004  1.3836  1.0165
 5949SOL     OW18424   9.139   8.573   8.908 -0.2981 -0.4546  0.6259
 5949SOL    HW118425   9.087   8.637   8.957 -0.8042 -1.2763  1.1891
 5949SOL    HW218426   9.077   8.503   8.888 -1.1600  1.2623 -4.2403
 5950SOL     OW18427   2.402   8.824   2.868  0.0226  0.1789  0.3828
 5950SOL    HW118428   2.433   8.737   2.892  0.6413  0.3353  0.1574
 5950SOL    HW218429   2.328   8.840   2.928  0.7235  0.0292  1.3126
 5951SOL     OW18430   1.269   7.465   7.672  0.5523 -0.4832 -0.0342
 5951SOL    HW118431   1.265   7.555   7.705  1.8632 -0.4193  0.0136
 5951SOL    HW218432   1.334   7.468   7.602  0.5561 -1.3757 -0.0847
 5952SOL     OW18433   7.438   8.185   8.903 -0.4024 -0.3792 -0.0533
 5952SOL    HW118434   7.445   8.182   8.807 -0.7132 -1.1898 -0.0583
 5952SOL    HW218435   7.345   8.200   8.920 -0.2175  0.6063  0.1175
 5953SOL     OW18436   2.959   1.767   3.656  0.2522 -0.0829  0.1909
 5953SOL    HW118437   2.891   1.769   3.723 -0.1234  0.6360 -0.2004
 5953SOL    HW218438   2.963   1.857   3.623  0.4692 -0.4118 -0.7096
 5954SOL     OW18439   1.579   2.089   4.145  0.6249 -0.0424 -0.3109
 5954SOL    HW118440   1.491   2.113   4.117 -0.9085 -0.8139  3.2554
 5954SOL    HW218441   1.600   2.010   4.095 -1.5094 -0.8851  0.0557
 5955SOL     OW18442   2.618   3.148   4.138  0.2103 -0.4466  0.4195
 5955SOL    HW118443   2.702   3.190   4.120  0.4909 -0.3047  1.9858
 5955SOL    HW218444   2.568   3.213   4.187 -0.6477 -0.7173 -0.0676
 5956SOL     OW18445   7.624   2.625   4.081  0.4290  0.3078  0.2866
 5956SOL    HW118446   7.541   2.595   4.044 -0.8674  2.6604  1.0543
 5956SOL    HW218447   7.643   2.562   4.151 -0.8824 -0.0896  0.3096
 5957SOL     OW18448   6.515   9.926   0.421 -0.2204 -0.2196  0.1895
 5957SOL    HW118449   6.461  10.005   0.420 -1.1642 -0.8443  0.1545
 5957SOL    HW218450   6.605   9.958   0.421 -0.5877  0.8532  0.5056
 5958SOL     OW18451   1.497   8.434   9.736  0.3241 -0.5453  0.5761
 5958SOL    HW118452   1.546   8.423   9.654 -1.5284  2.9968 -1.2426
 5958SOL    HW218453   1.445   8.354   9.743 -0.0157 -0.6651 -2.1883
 5959SOL     OW18454   7.149   6.225   8.193 -0.0330 -0.4128 -0.0876
 5959SOL    HW118455   7.236   6.263   8.206  0.4147 -1.9215  1.6299
 5959SOL    HW218456   7.101   6.246   8.273 -0.4330 -1.7041  0.0285
 5960SOL     OW18457   7.222   5.661   3.926  0.2793 -0.0522 -0.2189
 5960SOL    HW118458   7.244   5.754   3.927  3.2189 -0.6319 -0.8292
 5960SOL    HW218459   7.208   5.641   3.833 -0.2009 -0.2498 -0.1066
 5961SOL     OW18460   6.572   0.182   8.749 -0.9493  0.4583  0.2795
 5961SOL    HW118461   6.631   0.164   8.676 -0.1435 -0.4839  1.1337
 5961SOL    HW218462   6.513   0.107   8.752 -0.3816  0.0242  1.1508
 5962SOL     OW18463   8.612   7.900   0.188  0.1587 -0.1347  0.2353
 5962SOL    HW118464   8.667   7.967   0.229  1.4545 -0.1160 -1.4217
 5962SOL    HW218465   8.564   7.948   0.120  1.0154 -0.8172 -0.8890
 5963SOL     OW18466   3.583   8.691   0.066 -0.0245  0.2099  0.3172
 5963SOL    HW118467   3.646   8.752   0.104 -0.7244  1.4389 -0.4531
 5963SOL    HW218468   3.537   8.655   0.142 -1.7427  3.0042  0.7239
 5964SOL     OW18469   3.657   3.315   8.649 -0.0942 -0.0634 -0.3324
 5964SOL    HW118470   3.699   3.392   8.688  1.3092  0.2825 -2.3351
 5964SOL    HW218471   3.708   3.241   8.681  1.0262  0.2147 -1.3870
 5965SOL     OW18472   4.807   0.909   7.724 -0.4838 -0.3225  0.3556
 5965SOL    HW118473   4.733   0.919   7.783 -1.2888 -1.1401 -0.4854
 5965SOL    HW218474   4.883   0.935   7.776 -1.2651 -0.2282  1.4743
 5966SOL     OW18475   4.010   5.424   5.970  0.1027 -0.1434  0.0403
 5966SOL    HW118476   4.064   5.486   6.018  1.1917 -0.2160 -1.0598
 5966SOL    HW218477   3.920   5.451   5.989  0.5333  0.6225  1.0503
 5967SOL     OW18478   4.553   9.792   8.054  0.3484 -0.7591 -0.2489
 5967SOL    HW118479   4.609   9.820   8.127 -1.5212 -0.8680  1.3327
 5967SOL    HW218480   4.512   9.712   8.086 -1.8586  0.1404 -0.6542
 5968SOL     OW18481   4.968   3.555   8.948 -0.0166  0.0649  0.5583
 5968SOL    HW118482   5.032   3.626   8.946  0.5417 -0.4426 -0.1617
 5968SOL    HW218483   4.888   3.596   8.980 -0.2095  1.4468 -1.4539
 5969SOL     OW18484   6.626   5.533   2.298  0.2844  0.6592  0.3094
 5969SOL    HW118485   6.592   5.444   2.292 -0.8027  1.1163 -0.7814
 5969SOL    HW218486   6.674   5.535   2.381  0.3184 -0.9205  0.3598
 5970SOL     OW18487   3.057   6.954   2.175  0.0546 -0.1599 -0.8966
 5970SOL    HW118488   3.019   6.866   2.172  0.3391 -0.2855 -0.8270
 5970SOL    HW218489   3.002   7.006   2.115  0.2329 -0.5197 -1.3761
 5971SOL     OW18490   5.018   8.500   9.775 -0.8999 -0.0619  0.1036
 5971SOL    HW118491   5.075   8.446   9.830 -1.5704  0.5428  1.4308
 5971SOL    HW218492   4.954   8.439   9.740 -1.1525 -0.2813  0.9253
 5972SOL     OW18493   9.182   0.260   8.268  0.3784  0.1179 -0.3094
 5972SOL    HW118494   9.130   0.332   8.304  1.6766  0.3906  1.1475
 5972SOL    HW218495   9.160   0.184   8.323  1.1144  0.1228  0.0134
 5973SOL     OW18496   9.996   8.807   3.063 -0.6919  0.0062 -0.6187
 5973SOL    HW118497   9.929   8.853   3.113 -0.3396  0.5060 -0.5966
 5973SOL    HW218498   9.950   8.732   3.025 -0.4784 -1.7329  2.3024
 5974SOL     OW18499   3.056   0.458   6.211 -0.3315 -0.1729  0.0724
 5974SOL    HW118500   3.123   0.526   6.201 -0.2727 -0.5219 -2.5287
 5974SOL    HW218501   2.975   0.506   6.225  0.0597  0.3398  0.6283
 5975SOL     OW18502   8.964   0.992   2.944 -0.0591  0.0452  0.4123
 5975SOL    HW118503   8.913   0.953   3.016  0.6672  0.4775  1.1797
 5975SOL    HW218504   9.007   1.068   2.984  0.3681  0.2865 -0.4859
 5976SOL     OW18505   9.021   7.508   8.255  0.1873 -0.1640  0.4077
 5976SOL    HW118506   8.929   7.536   8.256 -0.0716 -1.0004  1.1190
 5976SOL    HW218507   9.070   7.587   8.279 -0.4337  0.0355  1.0750
 5977SOL     OW18508   2.379   7.015   9.262 -0.2034  0.3347  0.0107
 5977SOL    HW118509   2.332   7.041   9.341  1.5313  0.1161  1.1719
 5977SOL    HW218510   2.427   6.936   9.288 -0.7136 -0.5964 -1.7038
 5978SOL     OW18511   2.539   1.874   4.779  0.8189 -0.0296  0.4652
 5978SOL    HW118512   2.489   1.952   4.802 -0.8706 -1.0337  0.3235
 5978SOL    HW218513   2.607   1.906   4.720  0.0489  1.3065  0.2670
 5979SOL     OW18514   5.957   2.724   8.329 -0.2088  0.1181  0.3120
 5979SOL    HW118515   5.927   2.652   8.274 -1.2001 -0.9837  2.2116
 5979SOL    HW218516   5.929   2.803   8.282 -0.4095 -0.7399 -1.0718
 5980SOL     OW18517   0.257   9.241   6.110 -0.2090  0.1542  0.5027
 5980SOL    HW118518   0.219   9.208   6.029  0.2261  0.2329  0.2589
 5980SOL    HW218519   0.184   9.279   6.158 -0.4216  0.3666  0.0142
 5981SOL     OW18520   9.274   5.692   4.383 -0.0614  0.8609  0.5401
 5981SOL    HW118521   9.254   5.606   4.420  1.2002  0.1324 -0.3964
 5981SOL    HW218522   9.265   5.680   4.288  0.4005  1.6830  0.3834
 5982SOL     OW18523   8.416   5.912   9.841 -0.4773 -0.8802  0.6869
 5982SOL    HW118524   8.388   5.983   9.784  3.6442  0.2710 -0.1895
 5982SOL    HW218525   8.405   5.833   9.788  0.1718 -0.2053 -0.4979
 5983SOL     OW18526   8.897   3.233   2.588  0.0663 -0.4558 -0.0849
 5983SOL    HW118527   8.930   3.201   2.672  2.3508  0.5229 -0.5408
 5983SOL    HW218528   8.829   3.296   2.612  1.0468  0.2222  1.1093
 5984SOL     OW18529   2.282   9.194   2.275  0.2290 -0.3214  0.1636
 5984SOL    HW118530   2.290   9.261   2.207  1.9485 -0.8543 -0.2018
 5984SOL    HW218531   2.227   9.126   2.235  0.3929 -0.1702 -0.3281
 5985SOL     OW18532   4.166   6.768   4.574 -0.5348  0.4215  0.1463
 5985SOL    HW118533   4.101   6.774   4.644  0.0439  0.2169  0.7105
 5985SOL    HW218534   4.241   6.817   4.607 -0.3507  0.5324 -0.4365
 5986SOL     OW18535   7.304   1.204   9.790 -0.1740 -0.0461  0.6299
 5986SOL    HW118536   7.280   1.249   9.871 -0.9855  0.6699  0.0047
 5986SOL    HW218537   7.274   1.114   9.803  0.7275 -0.2384  1.5642
 5987SOL     OW18538   0.413   8.211   9.728 -0.2768 -0.1715  0.4723
 5987SOL    HW118539   0.415   8.127   9.773  1.5735 -0.6227 -0.3554
 5987SOL    HW218540   0.376   8.191   9.642  0.8255 -0.3201  0.0107
 5988SOL     OW18541   7.805   9.041   8.763 -0.0896  0.4737  0.0356
 5988SOL    HW118542   7.745   9.075   8.696 -0.9960  1.0157  1.0935
 5988SOL    HW218543   7.837   9.119   8.808 -0.4318  0.0668  1.0156
 5989SOL     OW18544   9.216   3.975   5.628 -0.1156  0.3172 -0.6702
 5989SOL    HW118545   9.212   3.904   5.692 -0.2530  0.6901 -0.2601
 5989SOL    HW218546   9.193   3.934   5.545  0.0541 -0.1706 -0.4813
 5990SOL     OW18547   8.467   4.407   1.310 -0.0384  0.3156 -0.9316
 5990SOL    HW118548   8.422   4.332   1.350  1.9792 -1.4774 -1.8361
 5990SOL    HW218549   8.452   4.480   1.371 -1.1079 -1.0930  0.5676
 5991SOL     OW18550   3.580   8.679   8.960 -0.5033  0.7280 -0.0293
 5991SOL    HW118551   3.505   8.731   8.990  1.2168  2.3139  1.7645
 5991SOL    HW218552   3.641   8.744   8.924  0.1014 -0.5106 -1.3289
 5992SOL     OW18553   7.510   7.012   1.382  0.4142  0.0856 -0.2127
 5992SOL    HW118554   7.429   6.968   1.357 -0.7000  2.3673 -0.9577
 5992SOL    HW218555   7.579   6.959   1.343 -0.7533 -1.4294 -0.3341
 5993SOL     OW18556   7.382   2.488   6.551 -0.6051  0.0569  0.5329
 5993SOL    HW118557   7.449   2.476   6.484 -0.4185 -0.1581  0.7566
 5993SOL    HW218558   7.299   2.476   6.504 -0.5384  1.5190  0.0046
 5994SOL     OW18559   8.293   5.446   7.255  0.1878  0.0965 -0.3363
 5994SOL    HW118560   8.280   5.505   7.329  1.7146  0.7778 -0.5689
 5994SOL    HW218561   8.216   5.460   7.200 -1.0213 -0.4934  1.1205
 5995SOL     OW18562   3.022   1.166   1.528 -0.3126  0.0340 -0.7626
 5995SOL    HW118563   3.066   1.164   1.443  0.2064  0.6565 -0.5174
 5995SOL    HW218564   3.090   1.139   1.591 -0.4764  0.3036 -0.4664
 5996SOL     OW18565   0.477   1.208   3.267  0.4803  0.1676  0.2940
 5996SOL    HW118566   0.479   1.218   3.172  1.5217  0.0541  0.2976
 5996SOL    HW218567   0.543   1.269   3.299  0.2505  0.0846  0.9358
 5997SOL     OW18568   8.432   4.122   6.437  0.0917  0.1331  0.0020
 5997SOL    HW118569   8.512   4.101   6.389 -0.2999  2.3104 -1.7752
 5997SOL    HW218570   8.460   4.188   6.501  0.0438 -0.4877  0.6703
 5998SOL     OW18571   8.249   0.742   6.661 -0.5051  0.6940 -0.6111
 5998SOL    HW118572   8.267   0.659   6.704 -0.1265  0.4477 -1.2325
 5998SOL    HW218573   8.210   0.718   6.577 -0.0103  1.1271 -0.9750
 5999SOL     OW18574   5.790   8.293   7.936  0.0553 -0.0882  0.2528
 5999SOL    HW118575   5.861   8.242   7.896  0.5866  0.3288  0.6421
 5999SOL    HW218576   5.713   8.273   7.883  0.6577  0.1423 -0.7413
 6000SOL     OW18577   2.951   3.125   1.160 -0.0201 -0.2598 -0.3289
 6000SOL    HW118578   3.036   3.106   1.121 -0.2116  2.1113 -2.1470
 6000SOL    HW218579   2.900   3.164   1.089 -1.8482  0.4570  1.2788
 6001SOL     OW18580   9.476   7.882   0.898 -0.3328  0.0799 -0.0153
 6001SOL    HW118581   9.386   7.908   0.881 -0.4266 -0.2830 -0.0694
 6001SOL    HW218582   9.470   7.818   0.969 -0.1300 -0.0855 -0.1472
 6002SOL     OW18583   0.093   7.548   6.639 -0.1949  0.6418  0.0930
 6002SOL    HW118584   0.095   7.556   6.544 -0.3943  0.7835  0.0986
 6002SOL    HW218585   0.100   7.454   6.656 -2.5671  0.3597 -0.1500
 6003SOL     OW18586   2.081   7.062   7.006  0.3663  0.3215  0.4546
 6003SOL    HW118587   2.036   6.988   7.047 -1.3540  1.1083  0.0607
 6003SOL    HW218588   2.138   7.021   6.940  0.2285 -0.7026  0.9437
 6004SOL     OW18589   1.540   1.909   2.158 -0.1007 -0.0213  0.0424
 6004SOL    HW118590   1.618   1.925   2.212 -1.5779  0.8558  2.0383
 6004SOL    HW218591   1.482   1.982   2.179 -1.3171 -0.4331 -1.7300
 6005SOL     OW18592   4.470   4.909   7.077 -0.1228  0.2678 -0.5710
 6005SOL    HW118593   4.409   4.982   7.066 -1.3088 -0.3219  1.5202
 6005SOL    HW218594   4.554   4.951   7.094 -1.0385  1.2639  1.9879
 6006SOL     OW18595   0.294   0.680   7.453 -0.3562 -0.0208  0.8642
 6006SOL    HW118596   0.237   0.665   7.378  1.5480  1.8646 -1.1187
 6006SOL    HW218597   0.239   0.666   7.529 -3.1500  0.6743 -0.8980
 6007SOL     OW18598   2.912   1.388   2.757  0.5355  0.0699 -0.1641
 6007SOL    HW118599   2.927   1.295   2.777  1.9276  0.1325 -0.7787
 6007SOL    HW218600   2.884   1.389   2.666  0.4320  0.2429 -0.1303
 6008SOL     OW18601   6.504   2.472   1.646  0.0625 -0.0930 -0.4491
 6008SOL    HW118602   6.416   2.474   1.609 -0.5391 -1.0738  0.8562
 6008SOL    HW218603   6.534   2.382   1.634 -0.0750 -0.4004  1.1746
 6009SOL     OW18604   1.185   7.156   5.695 -0.6763 -0.5834 -0.0282
 6009SOL    HW118605   1.204   7.207   5.617 -0.9385 -0.8499 -0.2687
 6009SOL    HW218606   1.091   7.139   5.691 -1.0970  1.1332  1.4067
 6010SOL     OW18607   7.003   0.682   7.953  0.3008  0.5053  0.2806
 6010SOL    HW118608   6.978   0.774   7.954  1.5046  0.8520  0.0806
 6010SOL    HW218609   6.924   0.636   7.925 -0.5139  1.3978  1.0259
 6011SOL     OW18610   4.339   7.958   7.213 -0.2541  0.3388  0.1109
 6011SOL    HW118611   4.397   8.025   7.177  0.5080  0.0634  0.7974
 6011SOL    HW218612   4.308   7.910   7.136  2.0005 -0.7674 -0.2019
 6012SOL     OW18613   2.835   7.307   1.378  0.2828  0.4014 -0.5849
 6012SOL    HW118614   2.902   7.331   1.314  0.5326  1.4403  0.0544
 6012SOL    HW218615   2.877   7.243   1.434 -0.0158 -0.7138 -1.5912
 6013SOL     OW18616   9.229   1.069   8.919 -0.2353 -0.5015 -0.5521
 6013SOL    HW118617   9.146   1.023   8.906 -0.0620 -0.6670 -1.0619
 6013SOL    HW218618   9.273   1.066   8.834 -1.0570  2.2382 -1.1957
 6014SOL     OW18619   1.185   5.362   9.679  0.3434 -0.0828  0.0500
 6014SOL    HW118620   1.218   5.381   9.767 -1.1126  1.6362  0.2764
 6014SOL    HW218621   1.139   5.442   9.652 -2.2982 -1.7581 -0.8138
 6015SOL     OW18622   9.810   0.110   7.007  0.0194  0.3202  0.1161
 6015SOL    HW118623   9.759   0.148   6.935  1.7630 -2.1870 -2.7134
 6015SOL    HW218624   9.750   0.109   7.082 -2.1684  2.4365 -1.4540
 6016SOL     OW18625   0.210   9.725   0.673 -0.1981 -0.6374  0.2267
 6016SOL    HW118626   0.269   9.800   0.667 -2.6570  1.3907 -0.3317
 6016SOL    HW218627   0.192   9.702   0.581  2.1660 -3.4658  0.3029
 6017SOL     OW18628   2.817   1.358   6.705 -0.2215 -0.0843 -0.4814
 6017SOL    HW118629   2.845   1.289   6.765 -1.0871 -0.7045 -0.7662
 6017SOL    HW218630   2.889   1.366   6.642 -0.8612 -2.0241 -1.5282
 6018SOL     OW18631   3.533   9.755   0.297 -0.4482  0.1507 -0.1260
 6018SOL    HW118632   3.591   9.819   0.338 -1.5221  1.3190 -0.3551
 6018SOL    HW218633   3.548   9.765   0.203 -0.5730  0.0206 -0.1614
 6019SOL     OW18634   0.858   9.202   2.854  0.2791 -0.5067 -0.5821
 6019SOL    HW118635   0.881   9.132   2.914  1.8122 -0.4526 -1.0744
 6019SOL    HW218636   0.810   9.265   2.908  2.3349 -0.0522  0.8425
 6020SOL     OW18637   5.690   8.523   7.088  0.3625 -0.2970 -0.0193
 6020SOL    HW118638   5.729   8.466   7.021  0.6519 -0.2711  0.1271
 6020SOL    HW218639   5.736   8.501   7.168  0.0024 -0.3402  0.1806
 6021SOL     OW18640   2.591   7.827   0.610 -0.5850 -0.1845 -0.5621
 6021SOL    HW118641   2.687   7.822   0.606 -0.3999  1.2625  0.7967
 6021SOL    HW218642   2.570   7.909   0.564 -0.8070  1.3914  2.1641
 6022SOL     OW18643   0.223   8.700   3.240  0.5631  0.6925 -0.0942
 6022SOL    HW118644   0.162   8.753   3.189 -0.9031  2.1127  2.8829
 6022SOL    HW218645   0.289   8.762   3.271  1.0907 -0.0142  0.2215
 6023SOL     OW18646   9.906   6.469   0.601 -0.1247 -0.3870  0.1984
 6023SOL    HW118647   9.822   6.427   0.581 -0.6915  0.4328  0.7883
 6023SOL    HW218648   9.912   6.541   0.538  0.5084 -0.9015 -0.3436
 6024SOL     OW18649   6.025   5.588   1.891 -0.2641 -0.1411  0.3186
 6024SOL    HW118650   5.935   5.568   1.864 -0.3454 -0.4308  0.8025
 6024SOL    HW218651   6.041   5.531   1.966  0.3560 -0.1531  0.1805
 6025SOL     OW18652   4.263   8.791   6.002  0.1019  0.2237  0.0728
 6025SOL    HW118653   4.185   8.769   5.952  0.4426 -2.1796  0.4918
 6025SOL    HW218654   4.304   8.862   5.953 -1.8526  0.9652 -0.6079
 6026SOL     OW18655   9.414   4.183   6.994 -0.2843 -0.0508  0.0420
 6026SOL    HW118656   9.498   4.223   6.971  0.1286 -1.0409 -0.1855
 6026SOL    HW218657   9.360   4.196   6.915  0.2394 -0.9973 -0.4764
 6027SOL     OW18658   9.769   3.422   6.645 -0.4890  0.0551  0.0631
 6027SOL    HW118659   9.729   3.478   6.711  1.8779  2.3941 -0.3175
 6027SOL    HW218660   9.810   3.352   6.696  0.9522  1.5923  1.1468
 6028SOL     OW18661   0.833   6.270   5.431  0.6194 -0.1089 -0.3468
 6028SOL    HW118662   0.903   6.230   5.379 -0.4978 -1.4527 -0.8947
 6028SOL    HW218663   0.875   6.343   5.476  2.9797 -2.2346  1.2180
 6029SOL     OW18664   2.357   5.718   1.930 -0.4343 -0.1564  0.0456
 6029SOL    HW118665   2.448   5.701   1.909 -0.5720 -1.3648  0.3637
 6029SOL    HW218666   2.335   5.654   1.999 -1.0684  1.1654  1.1227
 6030SOL     OW18667   4.396   9.917   6.058  0.7666 -0.2192 -0.3346
 6030SOL    HW118668   4.334   9.866   6.110  1.5247 -0.7478  0.0672
 6030SOL    HW218669   4.450   9.963   6.123 -1.1985  2.8222 -0.6251
 6031SOL     OW18670   6.435   5.394   3.132  0.3426  0.2135 -0.0850
 6031SOL    HW118671   6.441   5.488   3.148 -1.5843  0.7462 -2.0139
 6031SOL    HW218672   6.488   5.380   3.053 -1.1060  0.1250 -1.0817
 6032SOL     OW18673   8.828   0.945   4.437 -0.1241 -0.0668  0.1987
 6032SOL    HW118674   8.791   0.971   4.521 -0.6642  0.0676 -0.0716
 6032SOL    HW218675   8.904   1.002   4.425  0.3365 -0.5261  0.8852
 6033SOL     OW18676   7.992   2.230   1.792  0.4003 -0.1792 -0.5913
 6033SOL    HW118677   8.001   2.177   1.712  0.2949 -2.6291  0.9247
 6033SOL    HW218678   8.081   2.256   1.814  0.7753 -1.7426 -0.1289
 6034SOL     OW18679   3.008   2.452   0.500 -0.6067  0.0315 -0.3890
 6034SOL    HW118680   3.033   2.381   0.440 -0.0306 -0.9649  0.9830
 6034SOL    HW218681   3.072   2.521   0.484  1.1308 -1.2276  0.8159
 6035SOL     OW18682   6.466   0.828   5.997  0.0280 -0.6230  0.5152
 6035SOL    HW118683   6.372   0.828   5.977  0.3165  2.3862 -1.6262
 6035SOL    HW218684   6.474   0.887   6.071  0.3874  1.7152 -1.2708
 6036SOL     OW18685   3.935   6.860   6.008 -0.2060  0.5375 -0.2626
 6036SOL    HW118686   3.906   6.779   6.051 -2.1431  1.6123  0.5794
 6036SOL    HW218687   3.963   6.917   6.080 -0.0278  1.0678 -0.7423
 6037SOL     OW18688   8.578   2.130   8.339  0.0940  0.3649  0.3589
 6037SOL    HW118689   8.625   2.048   8.358 -1.2526  0.0290  2.4710
 6037SOL    HW218690   8.488   2.114   8.367 -0.0310  2.8418  1.6133
 6038SOL     OW18691   3.504   4.784   2.000  0.2028 -0.1160  0.2305
 6038SOL    HW118692   3.540   4.716   1.944 -1.1539  0.1477 -1.0145
 6038SOL    HW218693   3.561   4.784   2.078 -0.2877 -3.3089  0.7183
 6039SOL     OW18694   7.741   2.736   3.828 -0.2143 -0.7321  0.0186
 6039SOL    HW118695   7.708   2.710   3.914  0.1210 -0.7320  0.1487
 6039SOL    HW218696   7.663   2.759   3.778 -0.4757 -1.5170  0.0629
 6040SOL     OW18697   8.506   4.405   7.494  0.2196 -0.2746 -0.0707
 6040SOL    HW118698   8.517   4.372   7.583 -0.6414  1.2780  0.6682
 6040SOL    HW218699   8.411   4.408   7.481  0.2504  1.6601 -0.1457
 6041SOL     OW18700   5.077   6.426   9.850  0.1196 -0.0033 -0.0364
 6041SOL    HW118701   4.984   6.448   9.858  0.2165  1.5351 -2.2754
 6041SOL    HW218702   5.123   6.507   9.875  0.8786 -0.6843  0.8544
 6042SOL     OW18703   1.956   1.385   3.224 -0.5737 -0.7378 -0.6179
 6042SOL    HW118704   2.027   1.323   3.241  0.8279  1.0063  0.2341
 6042SOL    HW218705   1.935   1.423   3.309 -0.8987  0.4470 -1.1949
 6043SOL     OW18706   2.212   7.885   5.807  0.0640  0.5213 -0.0486
 6043SOL    HW118707   2.151   7.922   5.744 -1.4901  0.8318  1.5476
 6043SOL    HW218708   2.298   7.919   5.781 -0.4522  0.3779 -2.1296
 6044SOL     OW18709   3.863   5.761   8.207 -0.5548  0.6718 -0.6026
 6044SOL    HW118710   3.771   5.757   8.231 -0.2998  1.8296  0.6873
 6044SOL    HW218711   3.878   5.680   8.158 -2.1903  0.3553 -0.6418
 6045SOL     OW18712   8.031   9.440   4.071  0.0463  0.2423 -0.1600
 6045SOL    HW118713   8.070   9.357   4.098 -0.5729 -0.3173 -0.9365
 6045SOL    HW218714   8.073   9.506   4.127 -0.9685 -0.8105  1.9856
 6046SOL     OW18715   8.289   3.223   2.749  0.8779 -0.4190  0.1700
 6046SOL    HW118716   8.328   3.293   2.697  0.3413 -0.5812 -0.4664
 6046SOL    HW218717   8.300   3.144   2.695 -0.8802 -0.3646 -0.3327
 6047SOL     OW18718   6.069   4.685   1.135  0.2064  0.2378 -0.8097
 6047SOL    HW118719   6.072   4.642   1.049 -0.0028  0.2402 -0.8191
 6047SOL    HW218720   5.976   4.684   1.159  0.5875 -3.3469  1.2164
 6048SOL     OW18721   5.206   9.554   1.833 -0.7960  0.6123  0.2227
 6048SOL    HW118722   5.237   9.533   1.921  0.1308  0.6675 -0.0762
 6048SOL    HW218723   5.277   9.604   1.794 -0.7437 -0.3069 -0.9137
 6049SOL     OW18724   0.808   6.377   0.132 -0.1620 -0.0330 -0.5795
 6049SOL    HW118725   0.802   6.469   0.105  2.1091  0.0543 -0.9379
 6049SOL    HW218726   0.768   6.329   0.059 -0.8804  0.6209 -0.6374
 6050SOL     OW18727   5.048   7.596   9.743  0.0446  0.0284  0.2547
 6050SOL    HW118728   5.000   7.585   9.826  0.2802  0.1017  0.4017
 6050SOL    HW218729   4.996   7.547   9.679  0.1664 -0.5168  0.5617
 6051SOL     OW18730   1.241   5.130   4.060 -0.1844 -0.2422  0.5594
 6051SOL    HW118731   1.228   5.220   4.090  0.0619 -0.5582  1.6684
 6051SOL    HW218732   1.161   5.084   4.086 -0.6776 -0.1703 -0.7651
 6052SOL     OW18733   2.676   7.306   7.515  0.4502  0.0371  0.6207
 6052SOL    HW118734   2.646   7.242   7.580  1.2762 -0.0045  0.9682
 6052SOL    HW218735   2.661   7.391   7.557 -1.1094  0.1291 -0.0321
 6053SOL     OW18736   3.248   4.237   7.552  0.4902  0.3018 -0.0407
 6053SOL    HW118737   3.321   4.232   7.614 -1.6458 -0.8472  2.5718
 6053SOL    HW218738   3.178   4.281   7.600  0.0897  3.7435 -3.2764
 6054SOL     OW18739   6.159   5.795   7.969  0.6485  0.7082  0.4633
 6054SOL    HW118740   6.112   5.752   7.898  0.3271  0.0988  1.0338
 6054SOL    HW218741   6.171   5.885   7.939 -0.2509  0.6863 -0.0001
 6055SOL     OW18742   3.851   4.388   4.137 -0.4141  0.3311 -0.5843
 6055SOL    HW118743   3.930   4.430   4.104 -0.0113 -0.2774 -0.4106
 6055SOL    HW218744   3.821   4.332   4.066  0.0568 -0.4388 -0.1933
 6056SOL     OW18745   7.160   7.395   8.141 -0.1965 -0.0134 -0.2924
 6056SOL    HW118746   7.165   7.403   8.046 -1.9418  0.2889 -0.3798
 6056SOL    HW218747   7.166   7.485   8.174  1.3335 -0.1758 -0.0228
 6057SOL     OW18748   9.180   0.119   9.253  0.1762  0.1357 -0.5147
 6057SOL    HW118749   9.240   0.063   9.203 -1.1382 -0.8510 -1.0480
 6057SOL    HW218750   9.164   0.194   9.196  1.1075  0.5583 -0.2442
 6058SOL     OW18751   0.059   9.001   6.534  0.3916  0.2527 -0.4575
 6058SOL    HW118752   0.070   8.922   6.586  0.4362  0.1530 -0.6159
 6058SOL    HW218753   0.145   9.017   6.496  0.2419  0.0439 -0.8950
 6059SOL     OW18754   8.939   0.968   5.022  0.3423 -0.3920 -0.3690
 6059SOL    HW118755   9.007   0.989   4.959  0.8288 -0.4041  0.1402
 6059SOL    HW218756   8.879   0.911   4.975  0.6615 -0.3394 -0.8394
 6060SOL     OW18757   2.244   5.175   4.142 -0.2374  0.1051 -0.0689
 6060SOL    HW118758   2.176   5.197   4.078 -0.1869  0.2179 -0.0851
 6060SOL    HW218759   2.197   5.167   4.225 -0.1316  1.2529  0.1262
 6061SOL     OW18760   9.221   6.925   2.457 -0.5842  0.2978  0.0144
 6061SOL    HW118761   9.152   6.868   2.422 -0.7869  0.6711 -0.2044
 6061SOL    HW218762   9.266   6.871   2.521 -0.7759 -0.1095 -0.1862
 6062SOL     OW18763   1.060   0.302   5.138 -0.7753 -0.6763  0.2211
 6062SOL    HW118764   1.066   0.390   5.101 -0.6310 -1.2029 -1.0532
 6062SOL    HW218765   1.150   0.274   5.149 -0.7652  0.0164  2.4107
 6063SOL     OW18766   1.772   6.463   5.558  0.3515  0.0059 -0.5987
 6063SOL    HW118767   1.830   6.521   5.607 -0.9602  0.7849  0.0821
 6063SOL    HW218768   1.744   6.397   5.621  3.2386 -2.5995 -1.7751
 6064SOL     OW18769   4.720   5.817   3.056 -0.5045 -0.3808 -0.3898
 6064SOL    HW118770   4.699   5.737   3.008 -1.4768  0.7118 -1.8518
 6064SOL    HW218771   4.810   5.803   3.086  0.4604 -0.8537 -3.1737
 6065SOL     OW18772   3.520   8.419   2.796 -0.2319 -0.1726  0.1885
 6065SOL    HW118773   3.532   8.481   2.724 -2.7600 -1.2843 -1.3675
 6065SOL    HW218774   3.548   8.335   2.760 -1.4163 -0.7218  0.4766
 6066SOL     OW18775   8.763   1.918   6.778  0.0887  0.1875  0.2345
 6066SOL    HW118776   8.772   1.829   6.813  0.2155  0.9804  2.3641
 6066SOL    HW218777   8.825   1.970   6.828  2.2836  1.0364 -3.0331
 6067SOL     OW18778   0.428   3.992   2.537 -0.3464 -0.1447  0.0568
 6067SOL    HW118779   0.518   3.987   2.570 -0.3032 -1.0708 -0.1713
 6067SOL    HW218780   0.396   4.076   2.568  0.3663 -0.1186  0.7586
 6068SOL     OW18781   2.005   3.850   5.682 -0.1339 -0.2949  0.0886
 6068SOL    HW118782   2.097   3.823   5.683  0.1030  0.4939  0.0936
 6068SOL    HW218783   2.000   3.916   5.613 -0.8035 -0.6820 -0.2489
 6069SOL     OW18784   0.873   6.489   4.885 -0.2594 -0.3895  0.0467
 6069SOL    HW118785   0.902   6.519   4.799  3.6350 -0.3091  1.2052
 6069SOL    HW218786   0.850   6.397   4.872  1.4287 -0.7096 -0.9032
 6070SOL     OW18787   6.931   8.217   1.886  0.0594  0.2980 -0.1265
 6070SOL    HW118788   6.843   8.195   1.916  1.0941 -2.4679  1.2917
 6070SOL    HW218789   6.944   8.162   1.808  0.3722  1.0498 -0.6123
 6071SOL     OW18790   4.499   6.873   9.911  0.2285  0.2627 -0.1462
 6071SOL    HW118791   4.526   6.921   9.833 -0.5340  0.7879 -0.1009
 6071SOL    HW218792   4.560   6.902   9.980  0.7544 -0.0276 -0.4820
 6072SOL     OW18793   7.282   7.262   8.488  0.0593 -0.4205 -0.1956
 6072SOL    HW118794   7.327   7.277   8.405 -0.1403 -0.4584 -0.3111
 6072SOL    HW218795   7.242   7.347   8.509 -0.5447 -0.6131 -0.5333
 6073SOL     OW18796   5.795   5.917   5.317  0.1633  0.4146 -0.5016
 6073SOL    HW118797   5.880   5.872   5.315 -0.1394 -0.1196 -1.3351
 6073SOL    HW218798   5.818   6.010   5.320  0.8166  0.4343 -3.4909
 6074SOL     OW18799   7.390   2.833   1.280  0.0362  0.2880  0.5053
 6074SOL    HW118800   7.309   2.803   1.322 -2.0156 -0.9612 -3.7359
 6074SOL    HW218801   7.458   2.777   1.316 -1.5498 -0.8255  1.9343
 6075SOL     OW18802   7.448   9.639   2.000  0.6041 -0.1014  0.0508
 6075SOL    HW118803   7.479   9.555   1.966  1.3506  0.2623 -0.1803
 6075SOL    HW218804   7.405   9.617   2.083 -0.1990 -0.8457 -0.5337
 6076SOL     OW18805   2.934   1.010   5.640 -0.0853 -0.5417 -0.4100
 6076SOL    HW118806   2.891   0.995   5.724 -0.1736 -1.0836 -0.5545
 6076SOL    HW218807   2.868   1.053   5.586 -0.3457 -1.0942 -0.5300
 6077SOL     OW18808   5.741   2.033   2.431  0.1338  0.3496 -0.1607
 6077SOL    HW118809   5.653   1.996   2.423 -0.3404  1.2777  0.5938
 6077SOL    HW218810   5.792   1.965   2.475  0.2758 -0.8856 -2.0735
 6078SOL     OW18811   7.714   0.486   2.604 -0.0673 -0.6483 -0.2415
 6078SOL    HW118812   7.687   0.400   2.635  1.8801 -1.5517 -0.8713
 6078SOL    HW218813   7.703   0.482   2.509  0.0487 -0.2057 -0.2788
 6079SOL     OW18814   6.187   3.053   6.429 -0.3334 -0.2326 -0.0765
 6079SOL    HW118815   6.209   3.068   6.521  0.0559 -1.0530 -0.0221
 6079SOL    HW218816   6.095   3.027   6.431  0.0846 -1.8218  0.2855
 6080SOL     OW18817   6.848   9.725   0.760 -0.1791  0.0849  0.2997
 6080SOL    HW118818   6.839   9.766   0.674 -1.0588 -0.3845  0.1567
 6080SOL    HW218819   6.926   9.766   0.798 -0.5214  1.2227 -0.1891
 6081SOL     OW18820   8.552   8.040   1.159 -0.9644  0.3734 -0.4158
 6081SOL    HW118821   8.479   8.082   1.113 -0.8030 -0.3419 -1.3547
 6081SOL    HW218822   8.515   8.015   1.244 -1.4865  1.0203 -0.4367
 6082SOL     OW18823   9.432   0.058   2.611 -0.2784  0.4367 -0.1080
 6082SOL    HW118824   9.435   0.126   2.543 -0.3938  0.1425 -0.4076
 6082SOL    HW218825   9.442   0.106   2.693 -0.2509  0.8070 -0.3264
 6083SOL     OW18826   8.453   5.169   8.721 -0.3176 -0.0855  0.0939
 6083SOL    HW118827   8.416   5.170   8.809 -1.6149  0.6698 -0.4467
 6083SOL    HW218828   8.495   5.255   8.712 -1.0745  0.2360 -0.3882
 6084SOL     OW18829   3.118   4.640   9.001  0.4232 -0.1514  0.1237
 6084SOL    HW118830   3.120   4.655   8.906 -0.8089  0.2800  0.1487
 6084SOL    HW218831   3.105   4.727   9.038 -0.2727 -0.4677  0.6297
 6085SOL     OW18832   6.667   1.322   2.694 -0.5779 -0.6223  0.0478
 6085SOL    HW118833   6.679   1.229   2.715  1.6905 -0.1075  1.3477
 6085SOL    HW218834   6.734   1.340   2.628 -0.7885  0.1578  0.0402
 6086SOL     OW18835   9.038   0.453   8.398 -0.0064  0.3033  0.2676
 6086SOL    HW118836   9.001   0.528   8.445 -2.1479 -0.5641  0.1116
 6086SOL    HW218837   9.007   0.377   8.447 -0.2549 -0.5431 -1.1523
 6087SOL     OW18838   7.232   4.319   1.180 -0.1256 -0.3337  0.4328
 6087SOL    HW118839   7.157   4.350   1.231 -0.7911 -1.5978  0.2617
 6087SOL    HW218840   7.306   4.324   1.240 -0.7989 -1.2975  1.3817
 6088SOL     OW18841   4.966   2.069   1.714 -0.2792 -0.2597  0.5395
 6088SOL    HW118842   5.003   1.983   1.731 -0.1622 -0.0461  1.4061
 6088SOL    HW218843   5.041   2.123   1.690 -0.5082 -0.6930 -1.3326
 6089SOL     OW18844   7.853   0.934   6.285  0.2477  0.0009 -0.5119
 6089SOL    HW118845   7.875   0.864   6.223  0.9949  0.7436 -1.1202
 6089SOL    HW218846   7.826   1.007   6.229  1.6983  0.9514 -0.0271
 6090SOL     OW18847   1.446   3.117   5.594 -0.3652 -0.3870  0.0346
 6090SOL    HW118848   1.365   3.154   5.629  0.0938  0.1623  0.5361
 6090SOL    HW218849   1.472   3.178   5.525 -0.4661 -0.6642 -0.2555
 6091SOL     OW18850   4.890   8.155   3.034 -0.2834 -0.2863  0.4231
 6091SOL    HW118851   4.849   8.170   3.119  0.9943 -0.8447  1.1630
 6091SOL    HW218852   4.982   8.175   3.047  0.2274 -1.9320 -0.3913
 6092SOL     OW18853   2.330   4.876   2.327  0.0297  0.1277  0.0719
 6092SOL    HW118854   2.279   4.932   2.385  0.0410  0.9882 -0.7229
 6092SOL    HW218855   2.421   4.891   2.353 -0.0645 -2.5328  2.5087
 6093SOL     OW18856   8.563   0.817   8.887  0.3244  0.0006 -0.4413
 6093SOL    HW118857   8.606   0.888   8.934 -0.1272  0.2105 -0.3335
 6093SOL    HW218858   8.476   0.853   8.865  0.1497 -0.4657 -0.5158
 6094SOL     OW18859   7.196   7.485   0.011  0.7982  0.4543 -0.4453
 6094SOL    HW118860   7.282   7.501   0.050  0.5626  0.8219 -0.0627
 6094SOL    HW218861   7.134   7.525   0.072  0.3948  0.7581 -1.0407
 6095SOL     OW18862   0.610   4.797   4.984  0.3850  0.3760  0.2430
 6095SOL    HW118863   0.601   4.760   4.896 -0.0389 -1.8933  1.1791
 6095SOL    HW218864   0.577   4.886   4.976 -0.2617  0.0060 -1.7481
 6096SOL     OW18865   9.013   0.627   0.947 -0.2441 -0.3980  0.3374
 6096SOL    HW118866   9.104   0.628   0.920  0.4974 -0.5438  2.5906
 6096SOL    HW218867   8.977   0.710   0.915  1.0017  0.1887  0.3886
 6097SOL     OW18868   9.221   7.955   7.300  0.3700 -0.4192 -0.2099
 6097SOL    HW118869   9.179   8.030   7.342  0.3662 -0.3478 -0.3410
 6097SOL    HW218870   9.240   7.984   7.211 -1.0414 -1.0808 -0.7551
 6098SOL     OW18871   9.299   6.437   8.131 -0.5818  0.4432 -0.3492
 6098SOL    HW118872   9.226   6.479   8.085  0.0262  1.5783 -0.3227
 6098SOL    HW218873   9.345   6.509   8.173 -0.3976 -0.4455  1.0213
 6099SOL     OW18874   9.271   6.624   1.517 -0.1194  0.3613  0.2817
 6099SOL    HW118875   9.239   6.674   1.591 -2.1584 -0.8043  0.2565
 6099SOL    HW218876   9.325   6.555   1.556 -0.6815  0.1238  0.6462
 6100SOL     OW18877   2.702   4.213   7.358 -0.5638 -0.1300  0.5711
 6100SOL    HW118878   2.638   4.142   7.365  0.4305 -1.4035 -2.0193
 6100SOL    HW218879   2.655   4.284   7.314 -0.6580 -0.4776  0.1004
 6101SOL     OW18880   0.573   5.821   8.784  0.3556  0.2836 -0.0397
 6101SOL    HW118881   0.565   5.910   8.817 -1.5216 -0.4833  1.8323
 6101SOL    HW218882   0.494   5.807   8.731  0.5009 -0.3265 -0.1059
 6102SOL     OW18883   9.570   3.972   8.450 -0.0762  0.0464 -0.0102
 6102SOL    HW118884   9.478   3.981   8.424  0.1544  3.0165 -0.1131
 6102SOL    HW218885   9.619   3.981   8.369  0.3568 -0.9511  0.1254
 6103SOL     OW18886   9.340   7.843   9.938  0.5159 -1.1311  0.1282
 6103SOL    HW118887   9.391   7.848  10.019  1.0775  2.6531 -0.2845
 6103SOL    HW218888   9.395   7.886   9.873 -0.8385 -2.1657 -1.7632
 6104SOL     OW18889   8.621   2.944   6.533 -0.0470 -0.0996  0.4678
 6104SOL    HW118890   8.611   3.039   6.545  1.1504 -0.0211  0.9959
 6104SOL    HW218891   8.681   2.936   6.459 -1.3945 -0.4946 -0.6242
 6105SOL     OW18892   8.156   5.838   4.596 -0.5153 -0.0163 -0.0629
 6105SOL    HW118893   8.248   5.855   4.577 -0.1730  0.3121  1.6702
 6105SOL    HW218894   8.108   5.878   4.524  0.6713  0.1331 -0.7950
 6106SOL     OW18895   7.554   1.268   3.132 -0.0548  0.5195 -0.0491
 6106SOL    HW118896   7.594   1.356   3.131  2.8437 -0.5953  1.7921
 6106SOL    HW218897   7.614   1.214   3.081 -2.1932 -0.3335 -1.7926
 6107SOL     OW18898   4.541   2.397   3.124  0.3250 -0.1425  0.9293
 6107SOL    HW118899   4.479   2.465   3.096  0.2616  1.1646  3.8730
 6107SOL    HW218900   4.518   2.321   3.071 -0.5890  1.6794 -1.4569
 6108SOL     OW18901   0.961   5.319   2.919 -0.2657 -0.0760 -0.0390
 6108SOL    HW118902   0.924   5.328   2.831  0.0422  0.5973 -0.1125
 6108SOL    HW218903   0.887   5.292   2.974 -0.5057 -0.2966 -0.4674
 6109SOL     OW18904   7.346   8.009   1.414 -0.0777  0.3227  0.3307
 6109SOL    HW118905   7.340   7.955   1.494  1.1427 -0.0419  0.1964
 6109SOL    HW218906   7.366   8.097   1.447  0.4917  0.1596  0.4338
 6110SOL     OW18907   0.273   7.289   2.713  0.1597  0.0954 -0.5782
 6110SOL    HW118908   0.271   7.355   2.783  0.6828 -0.0848 -0.3858
 6110SOL    HW218909   0.356   7.305   2.667  0.0189 -0.0622 -0.8898
 6111SOL     OW18910   3.750   5.432   0.994  0.2149 -0.7493  0.4659
 6111SOL    HW118911   3.712   5.476   1.070  0.1815 -1.3720  0.8178
 6111SOL    HW218912   3.814   5.494   0.959 -2.6975  1.3858 -1.5675
 6112SOL     OW18913   0.550   5.964   1.599 -0.1716 -0.2482  0.2758
 6112SOL    HW118914   0.609   5.986   1.528  0.4747 -1.0704  0.5361
 6112SOL    HW218915   0.566   6.031   1.665 -1.2157  0.8740 -0.5769
 6113SOL     OW18916   5.829   9.952   3.536  0.0520  0.0459  0.8823
 6113SOL    HW118917   5.763   9.941   3.468  0.2056  0.0753  0.7257
 6113SOL    HW218918   5.781   9.980   3.614 -0.1166  0.0762  0.7658
 6114SOL     OW18919   1.404   4.575   3.300  0.4478 -0.3504  0.4308
 6114SOL    HW118920   1.419   4.656   3.349  3.1455  0.1475 -1.0427
 6114SOL    HW218921   1.342   4.600   3.231  2.6872  1.1222 -1.2172
 6115SOL     OW18922   6.760   9.674   6.682  0.6434  0.3442 -0.4331
 6115SOL    HW118923   6.664   9.679   6.676  0.5269 -1.6492 -0.9664
 6115SOL    HW218924   6.782   9.731   6.756 -0.8023  1.8427 -1.0696
 6116SOL     OW18925   7.800   7.877   6.034 -0.4775 -0.1248  0.0507
 6116SOL    HW118926   7.879   7.894   6.085  0.6633 -1.6661 -1.1018
 6116SOL    HW218927   7.801   7.945   5.966  0.2816 -0.5858 -0.4097
 6117SOL     OW18928   2.115   8.204   9.828  0.3571  0.4143 -0.3257
 6117SOL    HW118929   2.151   8.127   9.785  1.3523 -0.3063  1.6553
 6117SOL    HW218930   2.103   8.268   9.758 -1.1352 -1.7244 -2.1389
 6118SOL     OW18931   0.794   2.418   7.898  0.0846  0.5347  0.3097
 6118SOL    HW118932   0.786   2.323   7.909 -2.0906  0.5150 -0.7721
 6118SOL    HW218933   0.750   2.436   7.815  1.3355  2.3973 -0.0041
 6119SOL     OW18934   1.427   1.308   5.861  0.3988  0.5319 -0.3205
 6119SOL    HW118935   1.498   1.281   5.803 -1.0750 -1.8915 -1.1092
 6119SOL    HW218936   1.435   1.251   5.937 -3.4300 -3.4490 -2.4870
 6120SOL     OW18937   1.526   6.020   6.257 -0.0613 -0.0590  0.5528
 6120SOL    HW118938   1.556   6.003   6.168  0.8959  1.8482  0.4545
 6120SOL    HW218939   1.568   5.953   6.310  0.2957 -0.5038 -0.2768
 6121SOL     OW18940   9.634   2.440   5.320 -0.1208 -0.3184  0.5050
 6121SOL    HW118941   9.543   2.439   5.288  0.3788  1.2274 -1.0854
 6121SOL    HW218942   9.683   2.394   5.253  0.5917  0.7968  0.2400
 6122SOL     OW18943   4.282   0.310   9.474 -0.4657  0.1369  0.1232
 6122SOL    HW118944   4.251   0.396   9.446  0.0380  0.1854 -0.3062
 6122SOL    HW218945   4.370   0.303   9.436 -1.3248 -1.4642 -1.7685
 6123SOL     OW18946   5.217   6.506   1.327 -0.5160  0.3457 -0.3170
 6123SOL    HW118947   5.146   6.563   1.356  0.6790  1.8428 -0.2381
 6123SOL    HW218948   5.295   6.561   1.330  0.7022 -1.3250 -0.1732
 6124SOL     OW18949   6.840   7.461   5.698 -0.3218  0.0382  0.2910
 6124SOL    HW118950   6.856   7.527   5.629 -0.6301  0.3580  0.5226
 6124SOL    HW218951   6.862   7.506   5.779 -1.6318  0.2373  0.5506
 6125SOL     OW18952   7.787   0.960   4.631  0.2207  0.1995  0.1387
 6125SOL    HW118953   7.767   1.051   4.610 -0.7315 -0.6803 -3.5535
 6125SOL    HW218954   7.806   0.960   4.725  0.9120  4.2547  0.1619
 6126SOL     OW18955   0.454   0.264   4.974  0.0570 -0.7544  0.0360
 6126SOL    HW118956   0.485   0.177   4.948 -1.3370 -1.5671  0.9090
 6126SOL    HW218957   0.437   0.256   5.068  0.8611  0.7853  0.3402
 6127SOL     OW18958   1.742   5.585   7.081 -0.0659 -0.1072 -0.0197
 6127SOL    HW118959   1.653   5.550   7.093 -0.0025  0.4611  2.7710
 6127SOL    HW218960   1.738   5.674   7.114  1.4573  0.0738 -0.2379
 6128SOL     OW18961   8.184   5.526   9.098  0.4630  0.4213  0.4580
 6128SOL    HW118962   8.174   5.446   9.150 -0.3102 -0.4289 -0.9579
 6128SOL    HW218963   8.107   5.579   9.118  0.7144  0.5983  0.9895
 6129SOL     OW18964   3.642   9.445   7.111 -0.3369 -0.2543 -0.7591
 6129SOL    HW118965   3.715   9.503   7.088 -0.9659  0.5965 -0.6478
 6129SOL    HW218966   3.678   9.389   7.180  0.2730  0.0072 -0.8508
 6130SOL     OW18967   4.296   5.468   9.430 -0.2637 -0.1747  0.1889
 6130SOL    HW118968   4.208   5.469   9.393  0.3511  0.7901 -1.3818
 6130SOL    HW218969   4.283   5.473   9.525 -1.8849 -0.2128 -0.0091
 6131SOL     OW18970   7.962   9.857   6.691 -0.4404 -0.5937  0.0062
 6131SOL    HW118971   8.037   9.838   6.635 -0.9094  1.3979 -1.4185
 6131SOL    HW218972   7.993   9.924   6.751 -0.7382 -0.6555  0.2333
 6132SOL     OW18973   7.798   9.086   5.525  0.2560  0.3930 -0.1425
 6132SOL    HW118974   7.829   9.027   5.456  1.2303  1.0837 -0.3122
 6132SOL    HW218975   7.784   9.029   5.601 -0.5576 -0.3296 -0.8200
 6133SOL     OW18976   6.275   9.549   4.728  0.2919  0.1863  0.7785
 6133SOL    HW118977   6.363   9.513   4.717  0.0028 -0.1663 -0.5633
 6133SOL    HW218978   6.286   9.643   4.715  0.2174 -0.0417 -1.3387
 6134SOL     OW18979   8.351   5.764   5.451  0.2102  0.3276 -0.3545
 6134SOL    HW118980   8.360   5.694   5.515  1.3301  0.1147 -0.7114
 6134SOL    HW218981   8.345   5.844   5.502  3.0287  0.3850  0.0865
 6135SOL     OW18982   4.786   4.330   1.376  0.0684  0.2147 -0.1900
 6135SOL    HW118983   4.865   4.370   1.341 -0.7004  0.8367 -1.2891
 6135SOL    HW218984   4.817   4.261   1.434  1.4082  0.7331 -0.2597
 6136SOL     OW18985   5.085   1.529   0.343 -0.0272  0.1854  0.0607
 6136SOL    HW118986   5.002   1.548   0.388  0.0042 -0.5100  0.4275
 6136SOL    HW218987   5.079   1.578   0.260 -1.3866 -0.8957 -0.5205
 6137SOL     OW18988   9.949   0.105   5.772  0.1125  0.3723  0.2041
 6137SOL    HW118989   9.937   0.126   5.680  0.1706  2.2168  0.5702
 6137SOL    HW218990   9.952   0.191   5.816 -0.6934 -0.4660  2.0121
 6138SOL     OW18991   3.231   8.450   4.459  0.4031 -0.6900  0.1331
 6138SOL    HW118992   3.213   8.368   4.506 -0.3842 -0.9079 -0.5350
 6138SOL    HW218993   3.165   8.453   4.391  0.3679  0.5599  0.2126
 6139SOL     OW18994   5.639   9.553   1.036  0.3875 -0.5305 -0.1227
 6139SOL    HW118995   5.732   9.553   1.060  0.4826  0.1346 -0.4631
 6139SOL    HW218996   5.596   9.602   1.107 -0.1561 -3.2066  1.5686
 6140SOL     OW18997   2.399   3.989   2.819 -0.0252  0.0861 -0.2756
 6140SOL    HW118998   2.344   3.913   2.837 -0.9496  0.4579 -1.3849
 6140SOL    HW218999   2.452   3.964   2.743  0.6468  0.0675  0.1990
 6141SOL     OW19000   1.224   8.208   0.992  0.0050  0.0948 -0.0205
 6141SOL    HW119001   1.210   8.276   1.059 -0.7909 -1.1931  1.1676
 6141SOL    HW219002   1.148   8.151   0.999  0.2347 -0.4573 -1.6117
 6142SOL     OW19003   1.831   4.142   6.600  0.3887 -0.0436  0.3324
 6142SOL    HW119004   1.814   4.120   6.508  0.6336 -0.5741  0.4109
 6142SOL    HW219005   1.802   4.065   6.649  1.4106 -0.2751  0.5963
 6143SOL     OW19006   2.846   4.540   2.810 -0.2128  0.1903  0.1549
 6143SOL    HW119007   2.843   4.449   2.781 -1.3740  0.3515 -0.2960
 6143SOL    HW219008   2.925   4.545   2.864  0.2334 -0.9124 -0.3493
 6144SOL     OW19009   9.899   5.525   2.191 -0.0924 -0.0373  0.0207
 6144SOL    HW119010   9.926   5.452   2.135 -0.8172  0.4326 -0.9787
 6144SOL    HW219011   9.804   5.518   2.195 -0.1602  0.7587  0.0398
 6145SOL     OW19012   9.589   3.939   6.252 -0.4831  0.1176 -0.0766
 6145SOL    HW119013   9.562   3.960   6.162  0.1526 -1.1935 -0.5941
 6145SOL    HW219014   9.512   3.899   6.292 -0.5713  0.1327 -0.2307
 6146SOL     OW19015   3.232   9.087   3.507 -0.2701 -0.1649  0.5062
 6146SOL    HW119016   3.208   9.152   3.573  0.1431 -1.5353  2.0929
 6146SOL    HW219017   3.310   9.044   3.543  0.2171 -0.7025 -1.0826
 6147SOL     OW19018   4.184   9.502   2.631  0.0946 -0.6235  0.3720
 6147SOL    HW119019   4.157   9.413   2.654 -1.7026  0.3788  2.4940
 6147SOL    HW219020   4.170   9.552   2.711  4.0789  1.0091  0.2978
 6148SOL     OW19021   3.813   2.533   5.413 -0.2148 -0.4454  0.1326
 6148SOL    HW119022   3.840   2.600   5.475  0.7489 -1.2283  0.5914
 6148SOL    HW219023   3.884   2.530   5.349 -1.4897  0.8080 -1.4283
 6149SOL     OW19024   0.384   0.705   3.746 -0.0233 -0.1698 -0.1147
 6149SOL    HW119025   0.331   0.751   3.812 -0.6818  0.7325 -1.2341
 6149SOL    HW219026   0.326   0.639   3.709  0.7511 -1.5964  1.0912
 6150SOL     OW19027   9.834   7.243   2.906 -0.3032 -0.2866  0.2300
 6150SOL    HW119028   9.841   7.186   2.830 -1.4831  1.3778 -1.2252
 6150SOL    HW219029   9.923   7.277   2.918 -0.3583  0.5501 -1.3794
 6151SOL     OW19030   9.171   5.882   2.848 -0.0948 -0.4262 -0.5288
 6151SOL    HW119031   9.091   5.923   2.814  0.7855  0.9811 -0.9389
 6151SOL    HW219032   9.228   5.954   2.870 -0.1478 -1.2713  2.9690
 6152SOL     OW19033   6.702   6.466   4.823 -0.1160  0.1017  0.5391
 6152SOL    HW119034   6.776   6.443   4.766 -0.3753 -2.7531  1.2252
 6152SOL    HW219035   6.740   6.471   4.911 -0.3822  0.8448  0.6198
 6153SOL     OW19036   1.464   4.301   9.151 -0.1843 -0.1760  0.6263
 6153SOL    HW119037   1.530   4.327   9.215 -0.3253 -0.2144  0.7889
 6153SOL    HW219038   1.484   4.209   9.132 -0.0056 -0.0994  0.4459
 6154SOL     OW19039   3.898   7.354   8.437  0.4733 -0.0863  0.2383
 6154SOL    HW119040   3.893   7.354   8.532 -0.7652 -0.3077  0.1900
 6154SOL    HW219041   3.815   7.315   8.408  0.0651  1.5456 -0.9599
 6155SOL     OW19042   1.606   8.323   3.471 -0.0982 -0.1548  0.1916
 6155SOL    HW119043   1.651   8.340   3.554  1.1801 -1.8960 -0.1056
 6155SOL    HW219044   1.517   8.298   3.498  0.5428 -1.5595  1.1372
 6156SOL     OW19045   7.660   3.436   8.948  0.3832  0.4359  0.0204
 6156SOL    HW119046   7.632   3.377   8.879 -2.0299  2.8502 -1.2647
 6156SOL    HW219047   7.641   3.389   9.029 -1.3595 -0.6009 -0.9310
 6157SOL     OW19048   3.080   6.285   3.729 -0.3335 -0.5775 -0.4296
 6157SOL    HW119049   3.060   6.326   3.645  0.2868 -1.6922 -1.1552
 6157SOL    HW219050   3.111   6.357   3.784 -2.9756  0.5994 -0.3359
 6158SOL     OW19051   9.866   5.742   0.098  0.1163  0.3936 -0.7621
 6158SOL    HW119052   9.816   5.812   0.140  1.1794  0.4093  0.5532
 6158SOL    HW219053   9.919   5.787   0.033 -1.4946  0.3808 -2.1453
 6159SOL     OW19054   0.483   7.748   6.989  0.3744  0.7461  0.2674
 6159SOL    HW119055   0.426   7.675   7.015  1.6137 -0.8103 -1.1572
 6159SOL    HW219056   0.480   7.808   7.063 -0.7781 -0.6967  1.4646
 6160SOL     OW19057   1.075   2.733   1.063  0.4767 -0.2159 -0.5241
 6160SOL    HW119058   0.981   2.750   1.055  0.3903  0.4888  1.4641
 6160SOL    HW219059   1.114   2.820   1.073  0.9414 -0.6505  1.9025
 6161SOL     OW19060   3.971   9.505   8.780  0.2664 -0.4247  0.9366
 6161SOL    HW119061   3.900   9.567   8.764 -0.7328 -1.4540  1.2005
 6161SOL    HW219062   4.016   9.539   8.857 -0.9690 -0.6088  1.7704
 6162SOL     OW19063   9.377   7.952   7.736 -0.2140  0.6760 -0.1393
 6162SOL    HW119064   9.401   8.029   7.683 -0.0785  0.5962 -0.1938
 6162SOL    HW219065   9.460   7.913   7.760 -0.2598 -1.3907 -2.8945
 6163SOL     OW19066   6.636   9.725   2.418 -0.0543  0.5127 -0.5377
 6163SOL    HW119067   6.592   9.687   2.494  0.6634  0.1934 -0.2742
 6163SOL    HW219068   6.566   9.767   2.368 -0.5024  0.9131  0.4103
 6164SOL     OW19069   5.973   7.294   4.905  0.1033 -0.1674 -0.3218
 6164SOL    HW119070   5.958   7.315   4.997 -0.5934 -0.5982 -0.3330
 6164SOL    HW219071   6.066   7.315   4.891  0.0835  0.3936  0.3357
 6165SOL     OW19072   1.336   7.192   7.281 -0.3996 -0.0663 -0.2001
 6165SOL    HW119073   1.415   7.212   7.331  0.4739 -0.3741 -1.4109
 6165SOL    HW219074   1.318   7.271   7.231 -0.1536 -0.4040 -0.8323
 6166SOL     OW19075   5.780   7.564   6.537  0.2027 -0.6058  0.4596
 6166SOL    HW119076   5.742   7.574   6.450 -1.4324 -0.4769  1.1334
 6166SOL    HW219077   5.824   7.647   6.554 -1.2415  0.1889  0.5280
 6167SOL     OW19078   7.638   7.010   6.422 -0.2360 -0.4226  0.5803
 6167SOL    HW119079   7.603   7.014   6.511 -0.1385  2.9935  0.5741
 6167SOL    HW219080   7.722   6.966   6.431 -1.4123 -2.6360  1.6457
 6168SOL     OW19081   2.333   9.777   9.953 -0.0139 -0.0239  0.2698
 6168SOL    HW119082   2.335   9.820  10.038 -0.0245  1.4533 -0.4427
 6168SOL    HW219083   2.240   9.758   9.938 -0.0084 -0.3145  0.5986
 6169SOL     OW19084   8.837   0.804   8.717 -0.0551  0.2862 -0.3197
 6169SOL    HW119085   8.752   0.800   8.760  0.3090  0.6961  0.4589
 6169SOL    HW219086   8.900   0.783   8.786  0.5376  0.8770 -0.6679
 6170SOL     OW19087   9.165   6.802   2.163  0.4057  0.4081 -0.3530
 6170SOL    HW119088   9.261   6.798   2.171  0.4089  1.1461  0.0800
 6170SOL    HW219089   9.150   6.834   2.075  0.5858  1.3565 -0.0466
 6171SOL     OW19090   0.542   7.097   6.606 -0.3245  0.2442 -1.0037
 6171SOL    HW119091   0.580   7.014   6.636  0.4974  1.2673  1.0359
 6171SOL    HW219092   0.448   7.080   6.603 -0.3651 -0.2943  1.2416
 6172SOL     OW19093   6.644   3.015   3.217  0.0968 -0.1919  0.6174
 6172SOL    HW119094   6.688   2.956   3.157 -2.0071 -0.2677 -0.9507
 6172SOL    HW219095   6.590   3.070   3.161 -0.5432  0.9881  2.3177
 6173SOL     OW19096   8.843   9.144   7.715 -0.3097 -0.0440 -0.7603
 6173SOL    HW119097   8.854   9.234   7.683 -1.2360 -0.1592 -1.4361
 6173SOL    HW219098   8.899   9.139   7.793 -0.9423  1.3851 -0.1891
 6174SOL     OW19099   0.162   5.793   8.943  0.1992 -0.1892 -0.3391
 6174SOL    HW119100   0.253   5.823   8.941  0.2441 -0.2637 -2.7944
 6174SOL    HW219101   0.166   5.704   8.979  1.0565 -0.0956 -0.1911
 6175SOL     OW19102   2.741   3.673   9.991  0.1140 -0.2029  0.8332
 6175SOL    HW119103   2.709   3.753   9.948 -0.4265  0.1850  1.9375
 6175SOL    HW219104   2.686   3.604   9.954  0.3557 -0.0342  0.1250
 6176SOL     OW19105   8.011   7.865   6.206 -0.3844  0.5329  0.1430
 6176SOL    HW119106   7.966   7.883   6.288 -1.0144  0.2245 -0.1300
 6176SOL    HW219107   8.041   7.775   6.213  0.0234  0.6727  0.2416
 6177SOL     OW19108   6.389   9.468   5.807 -0.2670 -0.1467  0.0567
 6177SOL    HW119109   6.420   9.485   5.895 -0.4378  0.8810 -0.0659
 6177SOL    HW219110   6.455   9.412   5.768  0.3222  0.2234  0.5143
 6178SOL     OW19111   5.864   0.205   1.238 -0.1345 -0.8873  0.2079
 6178SOL    HW119112   5.811   0.128   1.217  0.4194 -1.5046  1.0160
 6178SOL    HW219113   5.908   0.227   1.156 -0.3465 -1.3963 -0.0460
 6179SOL     OW19114   6.018   4.973   5.402 -0.5315  0.4661  0.2370
 6179SOL    HW119115   6.110   4.951   5.388 -0.7669 -0.5224  0.1482
 6179SOL    HW219116   5.975   4.948   5.320 -0.6168  2.6275 -0.4175
 6180SOL     OW19117   0.088   7.771   8.903 -0.3262  0.1195  0.3274
 6180SOL    HW119118   0.075   7.770   8.998  0.0066 -0.8876  0.3718
 6180SOL    HW219119   0.001   7.792   8.867  0.0138  3.0009  0.8922
 6181SOL     OW19120   7.086   9.048   2.627  0.5924 -0.0725 -0.0272
 6181SOL    HW119121   7.122   9.136   2.637  0.9740 -0.1835 -0.4296
 6181SOL    HW219122   7.124   8.999   2.699 -0.2128  0.2756  0.6537
 6182SOL     OW19123   7.679   2.856   7.126  0.5960  0.6610 -0.1061
 6182SOL    HW119124   7.739   2.891   7.191  0.7960  0.6236 -0.2710
 6182SOL    HW219125   7.717   2.881   7.041  0.1927  0.9495 -0.2042
 6183SOL     OW19126   9.577   5.051   7.033 -1.1781  0.7031 -0.7092
 6183SOL    HW119127   9.603   5.103   7.109  1.0049 -0.0888 -0.8326
 6183SOL    HW219128   9.659   5.037   6.984 -2.1791 -0.4684 -2.1539
 6184SOL     OW19129   3.291   7.112   4.294  0.5901 -0.0586  0.0130
 6184SOL    HW119130   3.220   7.092   4.232  0.7956  0.6433 -0.4580
 6184SOL    HW219131   3.360   7.050   4.272 -0.3425 -1.6472  1.3355
 6185SOL     OW19132   6.329   7.912   1.167  0.1679 -0.0261 -0.0076
 6185SOL    HW119133   6.302   7.884   1.080  0.9081  0.0079 -0.2553
 6185SOL    HW219134   6.405   7.969   1.152  1.2270 -1.1930  0.7276
 6186SOL     OW19135   2.117   9.781   6.366 -0.5031  0.0744 -0.0979
 6186SOL    HW119136   2.129   9.687   6.379 -1.1111  0.0121  0.0314
 6186SOL    HW219137   2.098   9.815   6.454  2.1566  0.7123  0.3110
 6187SOL     OW19138   2.667   8.946   7.735 -0.5585 -0.5433 -0.3552
 6187SOL    HW119139   2.665   8.854   7.709 -2.1941 -0.6209 -0.0733
 6187SOL    HW219140   2.598   8.954   7.801 -1.8838  1.2737 -1.8415
 6188SOL     OW19141   2.179   0.636   7.663  0.2334  0.1077  0.1767
 6188SOL    HW119142   2.088   0.643   7.692  0.3426 -1.4953  1.0131
 6188SOL    HW219143   2.230   0.674   7.735  0.2337  1.7176 -0.6184
 6189SOL     OW19144   4.109   7.301   3.643  0.8010 -0.1422 -0.4457
 6189SOL    HW119145   4.201   7.291   3.669  0.5349  0.4723  0.7875
 6189SOL    HW219146   4.072   7.212   3.650  1.1301 -0.2681 -0.2852
 6190SOL     OW19147   2.525   7.342   9.912 -0.5258  0.3101 -0.1481
 6190SOL    HW119148   2.534   7.365  10.005 -0.5320  2.2632 -0.5990
 6190SOL    HW219149   2.499   7.250   9.913  1.8411 -0.4286  1.7135
 6191SOL     OW19150   6.478   7.624   2.413  0.1447  0.1567 -0.2069
 6191SOL    HW119151   6.426   7.543   2.405 -0.8810  0.4343  2.5749
 6191SOL    HW219152   6.529   7.612   2.493  1.7491  1.3736 -0.9907
 6192SOL     OW19153   6.816   2.143   1.542 -0.1220 -0.2632 -0.2844
 6192SOL    HW119154   6.879   2.209   1.572  1.8337 -1.9577 -0.4417
 6192SOL    HW219155   6.846   2.120   1.454 -0.1805 -2.0280  0.1267
 6193SOL     OW19156   2.125   5.774   5.636 -0.0711 -0.1664  0.1161
 6193SOL    HW119157   2.087   5.838   5.697 -0.8212 -0.3280 -0.1820
 6193SOL    HW219158   2.173   5.714   5.692 -1.3801 -0.7544  0.6350
 6194SOL     OW19159   6.885   1.728   0.801  0.4728 -0.1507 -0.0596
 6194SOL    HW119160   6.903   1.797   0.737 -0.7156 -1.5728 -2.0261
 6194SOL    HW219161   6.972   1.695   0.825  1.0103  1.3540  0.2130
 6195SOL     OW19162   9.064   9.458   6.261  0.4201 -0.5523 -0.0777
 6195SOL    HW119163   9.077   9.437   6.169 -3.8519  2.3905 -1.6931
 6195SOL    HW219164   9.118   9.535   6.276  0.8128 -0.7961 -0.2190
 6196SOL     OW19165   3.006   5.990   4.858 -0.0624  0.2911 -0.0504
 6196SOL    HW119166   2.943   5.919   4.844  0.0952  0.3857 -1.3749
 6196SOL    HW219167   3.083   5.964   4.807 -0.0595  1.4630 -0.6684
 6197SOL     OW19168   6.248   8.294   1.183 -0.5182  0.6562 -0.4211
 6197SOL    HW119169   6.261   8.359   1.252 -0.4667  0.4924 -0.2733
 6197SOL    HW219170   6.224   8.214   1.230  2.1269 -0.2113 -0.3571
 6198SOL     OW19171   6.322   1.167   3.979  0.1413  0.2464 -0.7486
 6198SOL    HW119172   6.408   1.208   3.988  0.5298 -0.0826 -2.6213
 6198SOL    HW219173   6.323   1.095   4.042  1.1098  0.4471 -0.5204
 6199SOL     OW19174   8.122   5.100   1.057  0.3120  0.0686 -0.3250
 6199SOL    HW119175   8.057   5.131   1.119 -0.1150  0.2023 -0.8312
 6199SOL    HW219176   8.093   5.135   0.972  0.6663 -0.4280 -0.6587
 6200SOL     OW19177   7.254   1.546   6.154  0.0245  0.0281 -0.4294
 6200SOL    HW119178   7.230   1.454   6.143 -0.3767  0.2454 -1.4567
 6200SOL    HW219179   7.194   1.578   6.222  0.8554 -0.7171  0.6785
 6201SOL     OW19180   6.052   5.916   2.853 -0.3684 -0.1225  0.4426
 6201SOL    HW119181   6.078   5.976   2.923  0.6287  0.1482 -0.1339
 6201SOL    HW219182   6.128   5.912   2.796 -0.8850 -0.9544 -0.2135
 6202SOL     OW19183   0.261   3.585   0.452 -0.1208 -0.5246  0.2719
 6202SOL    HW119184   0.289   3.505   0.406 -1.1196 -0.9313  0.3454
 6202SOL    HW219185   0.186   3.557   0.504 -1.2317  0.7247 -0.6077
 6203SOL     OW19186   9.863   7.165   5.956  0.3166  0.0750 -0.1672
 6203SOL    HW119187   9.804   7.240   5.961 -0.0511 -0.1377 -1.0321
 6203SOL    HW219188   9.915   7.169   6.036  0.2417  1.1976 -0.1617
 6204SOL     OW19189   8.363   7.799   7.285  0.0573  0.0887  0.2009
 6204SOL    HW119190   8.359   7.870   7.349 -1.8794 -0.0895  0.3536
 6204SOL    HW219191   8.390   7.723   7.336 -0.9417  0.0677  0.7366
 6205SOL     OW19192   4.707   9.635   9.240  0.0262  0.2913  0.8927
 6205SOL    HW119193   4.616   9.656   9.218  0.1575 -1.1585 -1.4278
 6205SOL    HW219194   4.757   9.708   9.204 -0.0914 -0.0188  0.0637
 6206SOL     OW19195   1.307   8.776   5.247  0.3062  0.0714 -0.3494
 6206SOL    HW119196   1.300   8.722   5.168 -0.1707 -0.3467 -0.0320
 6206SOL    HW219197   1.335   8.862   5.215 -2.4597  0.7175 -1.3055
 6207SOL     OW19198   5.978   9.036   0.729  0.2529 -0.2532 -0.6074
 6207SOL    HW119199   5.982   9.117   0.677  0.4019  0.1458  0.0232
 6207SOL    HW219200   5.942   9.063   0.813  0.1658 -0.8747 -0.4401
 6208SOL     OW19201   9.903   6.028   7.219 -0.1158 -0.1514  0.2638
 6208SOL    HW119202   9.837   6.044   7.286 -0.2268 -0.0040  0.1229
 6208SOL    HW219203   9.858   5.976   7.153 -0.8657  1.9577 -1.0171
 6209SOL     OW19204   1.629   7.220   5.119 -0.0090  0.6949  0.0127
 6209SOL    HW119205   1.562   7.205   5.053  1.0472 -1.8087 -0.6094
 6209SOL    HW219206   1.709   7.234   5.069  0.4440  0.8214  0.7580
 6210SOL     OW19207   5.958   3.826   7.760 -0.5488  0.7376 -0.3140
 6210SOL    HW119208   6.051   3.806   7.770 -0.7653 -0.9757 -1.1975
 6210SOL    HW219209   5.952   3.867   7.673 -0.7669 -0.5055 -0.9075
 6211SOL     OW19210   9.082   3.550   4.452 -0.1761 -0.1360  0.5089
 6211SOL    HW119211   8.993   3.568   4.421  0.2395  0.7660 -0.2189
 6211SOL    HW219212   9.132   3.534   4.372 -0.0967 -2.8057  0.9926
 6212SOL     OW19213   2.881   8.306   9.754  0.1654 -0.0709 -0.4806
 6212SOL    HW119214   2.814   8.241   9.732 -0.0059  0.1310 -0.5600
 6212SOL    HW219215   2.963   8.256   9.757  0.0054 -0.3261 -0.3343
 6213SOL     OW19216   3.412   9.146   9.000  0.2042 -0.1431 -0.1926
 6213SOL    HW119217   3.427   9.240   9.009 -0.2069 -0.0188 -0.7541
 6213SOL    HW219218   3.486   9.115   8.947  0.0945 -0.0584 -0.3945
 6214SOL     OW19219   6.522   9.892   9.087 -0.3387  0.8160  0.8828
 6214SOL    HW119220   6.495   9.863   9.174  1.3443  2.0493  1.8717
 6214SOL    HW219221   6.461   9.963   9.065 -0.7344  0.5361  1.0770
 6215SOL     OW19222   8.003   9.926   2.573 -0.1129  0.0704  0.0269
 6215SOL    HW119223   8.088   9.897   2.540  0.0914 -0.5807  1.0598
 6215SOL    HW219224   7.975   9.995   2.512  1.5493  0.8943  0.1352
 6216SOL     OW19225   7.629   7.436   1.514 -0.1373 -0.2230  0.2059
 6216SOL    HW119226   7.662   7.526   1.523 -0.8573 -0.0195  0.9629
 6216SOL    HW219227   7.537   7.446   1.492  0.3171 -0.7866 -2.3038
 6217SOL     OW19228   6.816   9.575   8.882  0.0675  0.1926 -0.2157
 6217SOL    HW119229   6.794   9.486   8.854  1.7081 -0.5812  0.8352
 6217SOL    HW219230   6.757   9.593   8.955  0.0177 -0.1838 -0.1638
 6218SOL     OW19231   8.232   6.545   1.731  0.3313  0.5729  0.0421
 6218SOL    HW119232   8.137   6.551   1.743  0.3014  2.6790 -0.7650
 6218SOL    HW219233   8.243   6.497   1.650  0.0049 -0.3816  0.5470
 6219SOL     OW19234   8.371   0.575   1.400  0.0650 -0.2966  0.2269
 6219SOL    HW119235   8.456   0.533   1.413  0.5056  0.6999  0.6793
 6219SOL    HW219236   8.358   0.628   1.479  0.9219  2.7575 -1.5131
 6220SOL     OW19237   8.173   1.462   0.580 -0.3459  0.1216  0.1040
 6220SOL    HW119238   8.202   1.467   0.671  0.5367  3.6289 -0.1817
 6220SOL    HW219239   8.250   1.431   0.532 -0.8156 -1.7392  0.5059
 6221SOL     OW19240   9.638   9.426   8.282 -0.0878 -0.3162  0.0029
 6221SOL    HW119241   9.732   9.432   8.299  0.1051  0.4576 -1.1796
 6221SOL    HW219242   9.602   9.506   8.321 -0.0876 -0.0700 -0.4924
 6222SOL     OW19243   6.659   5.480   7.150 -0.0253 -0.0011 -0.0837
 6222SOL    HW119244   6.668   5.438   7.065 -2.3487 -1.0746  0.1241
 6222SOL    HW219245   6.571   5.517   7.150 -0.3431 -0.5857  2.0541
 6223SOL     OW19246   2.908   2.313   4.751  0.5241  0.0388 -0.3018
 6223SOL    HW119247   2.862   2.250   4.806  1.5930 -0.1751  0.3817
 6223SOL    HW219248   2.852   2.324   4.674 -0.0074 -1.2084 -0.1111
 6224SOL     OW19249   0.175   6.018   3.940 -0.2306 -0.2130  0.0621
 6224SOL    HW119250   0.138   6.047   4.023  0.5676 -2.1548  1.1733
 6224SOL    HW219251   0.221   6.095   3.906 -2.1021  1.1546  0.4538
 6225SOL     OW19252   1.781   0.298   6.048  0.1730  0.1210  0.1150
 6225SOL    HW119253   1.867   0.339   6.039 -0.3047  1.0440 -0.4152
 6225SOL    HW219254   1.732   0.359   6.102  0.1547 -0.9128  1.3160
 6226SOL     OW19255   8.269   6.716   8.042  0.0479 -0.1129 -0.0443
 6226SOL    HW119256   8.308   6.801   8.063  0.7538 -0.7443  1.3650
 6226SOL    HW219257   8.196   6.737   7.984 -1.8809  1.8365  2.8246
 6227SOL     OW19258   8.433   2.905   1.526  0.1283 -0.3851  0.4093
 6227SOL    HW119259   8.504   2.862   1.573  0.3553  1.7676  2.1803
 6227SOL    HW219260   8.464   2.909   1.435  0.4458 -3.0508  0.3327
 6228SOL     OW19261   3.262   0.141   3.292  0.2595  0.5743 -0.5389
 6228SOL    HW119262   3.219   0.110   3.372 -0.9475  1.2938 -0.8803
 6228SOL    HW219263   3.300   0.063   3.253  0.1001  0.0752  0.2841
 6229SOL     OW19264   0.828   5.563   2.771 -0.3910 -0.5705  0.2580
 6229SOL    HW119265   0.834   5.599   2.859 -0.1969  1.0807 -0.3808
 6229SOL    HW219266   0.918   5.538   2.750 -0.1461  0.4495  0.0056
 6230SOL     OW19267   4.943   3.569   1.568  0.1174 -0.1945 -0.2348
 6230SOL    HW119268   4.902   3.483   1.562 -0.3227 -0.1565  1.5104
 6230SOL    HW219269   4.894   3.624   1.507 -1.8745 -0.3905  1.0638
 6231SOL     OW19270   0.431   9.850   3.626 -0.0992  0.2165  0.1666
 6231SOL    HW119271   0.482   9.787   3.576  1.4502  2.0441 -0.7177
 6231SOL    HW219272   0.448   9.829   3.718  1.8323  0.4228 -0.1157
 6232SOL     OW19273   8.933   8.377   8.946  0.0230 -0.2329 -0.9824
 6232SOL    HW119274   8.893   8.371   8.859 -0.4034  5.1350 -1.5386
 6232SOL    HW219275   8.860   8.400   9.004  1.0275  1.8548 -0.4492
 6233SOL     OW19276   9.306   8.854   7.328 -0.5523  0.4042 -0.2995
 6233SOL    HW119277   9.294   8.876   7.236 -3.6004  0.3833 -0.0214
 6233SOL    HW219278   9.265   8.769   7.338  2.6259 -1.1758  0.5321
 6234SOL     OW19279   3.943   0.321   1.264  0.1606  0.5062 -0.0238
 6234SOL    HW119280   3.972   0.275   1.185 -1.3945  0.9955 -0.9253
 6234SOL    HW219281   3.922   0.251   1.326  2.4652  0.1244  0.4245
 6235SOL     OW19282   4.670   2.463   4.033  0.4587 -0.1287 -0.4200
 6235SOL    HW119283   4.672   2.482   3.939  2.0501 -0.3528 -0.4473
 6235SOL    HW219284   4.642   2.546   4.073  1.3336  0.4623 -0.9898
 6236SOL     OW19285   7.324   7.715   2.127  0.2975  0.0305  0.5307
 6236SOL    HW119286   7.286   7.796   2.162  0.4848  1.2663 -1.9208
 6236SOL    HW219287   7.385   7.685   2.195  0.0313  1.8063  1.5999
 6237SOL     OW19288   7.635   6.748   0.014  0.2834  0.0330  0.1714
 6237SOL    HW119289   7.649   6.653   0.020  1.6684  0.2372  0.7298
 6237SOL    HW219290   7.601   6.772   0.100 -1.6028 -0.1545 -0.4880
 6238SOL     OW19291   8.065   8.697   2.304 -0.5087 -0.3129  0.1043
 6238SOL    HW119292   8.113   8.744   2.236 -2.1358  2.8971  0.9414
 6238SOL    HW219293   7.973   8.715   2.286 -1.0535 -0.4620  2.3524
 6239SOL     OW19294   3.097   3.950   7.796 -0.6224  0.1009 -0.2404
 6239SOL    HW119295   3.149   3.884   7.843 -0.3198  0.3965 -0.1486
 6239SOL    HW219296   3.149   4.031   7.805 -1.2073  0.4527  0.0444
 6240SOL     OW19297   4.379   0.992   2.456 -0.5383 -0.2478 -0.0576
 6240SOL    HW119298   4.463   0.946   2.457  0.4372  1.2228 -2.7572
 6240SOL    HW219299   4.317   0.930   2.419 -0.0026 -0.4790 -0.5753
 6241SOL     OW19300   4.372   4.802   5.539  0.5653  0.2089 -0.0851
 6241SOL    HW119301   4.325   4.781   5.458  0.9020 -1.0021  0.0076
 6241SOL    HW219302   4.378   4.718   5.585  0.4144  0.8662  1.1811
 6242SOL     OW19303   9.063   5.528   1.072 -0.0327 -0.2397 -0.4879
 6242SOL    HW119304   9.088   5.595   1.007 -0.1854 -0.2786 -0.5875
 6242SOL    HW219305   8.993   5.479   1.029  1.9167 -2.2636 -1.5697
 6243SOL     OW19306   8.634   2.401   0.827  0.3820  0.3738  0.1598
 6243SOL    HW119307   8.704   2.417   0.890 -1.2555  1.6897  1.7728
 6243SOL    HW219308   8.582   2.330   0.865 -0.5436  1.0775  0.2455
 6244SOL     OW19309   2.742   0.313   6.114 -0.0865  0.4244 -0.3188
 6244SOL    HW119310   2.679   0.320   6.042 -0.2118 -2.6040 -0.6109
 6244SOL    HW219311   2.713   0.236   6.164 -0.1210  2.4638  3.1719
 6245SOL     OW19312   5.113   1.690   2.554 -0.2311 -0.0178  0.0627
 6245SOL    HW119313   5.173   1.764   2.551 -0.8739  0.6193  1.5907
 6245SOL    HW219314   5.028   1.728   2.574 -1.3115 -0.8520 -2.5629
 6246SOL     OW19315   6.600   1.210   5.259 -0.2087 -0.2101  0.5702
 6246SOL    HW119316   6.668   1.275   5.279 -0.2688 -0.5532  1.9649
 6246SOL    HW219317   6.626   1.173   5.174 -0.5643  2.1079 -0.6179
 6247SOL     OW19318   2.148   4.051   4.801  0.0193 -0.3163  0.0850
 6247SOL    HW119319   2.230   4.012   4.771  0.5465  0.3898  0.5756
 6247SOL    HW219320   2.140   4.132   4.751  0.7637  0.7285  1.5770
 6248SOL     OW19321   5.980   5.305   5.813 -0.4515 -0.3042  0.4078
 6248SOL    HW119322   6.011   5.389   5.848 -0.2071  0.7984 -2.2687
 6248SOL    HW219323   6.059   5.260   5.783 -0.7804 -0.6087 -0.0072
 6249SOL     OW19324   7.189   3.002   7.782 -0.0218  1.0698  0.1461
 6249SOL    HW119325   7.123   3.065   7.811  1.5613  2.7154  0.3362
 6249SOL    HW219326   7.242   3.050   7.719 -0.1705 -0.8238 -1.5230
 6250SOL     OW19327   7.794   8.022   6.633 -0.5474 -0.3454 -0.6905
 6250SOL    HW119328   7.863   8.063   6.582 -0.0064  0.5051  0.6683
 6250SOL    HW219329   7.768   7.946   6.582 -1.0335  1.2230 -2.9205
 6251SOL     OW19330   0.081   4.313   1.258  0.2554 -0.4510  0.3004
 6251SOL    HW119331   0.093   4.383   1.322  0.0314  0.6872 -0.8659
 6251SOL    HW219332   0.163   4.264   1.261  0.0396 -0.7814  1.8439
 6252SOL     OW19333   9.843   6.203   5.350 -0.3312  0.0712 -0.1107
 6252SOL    HW119334   9.881   6.223   5.436  0.7198 -2.9418  0.2376
 6252SOL    HW219335   9.789   6.126   5.365 -0.7198 -0.0885 -2.0385
 6253SOL     OW19336   3.566   0.535   1.460 -0.3001 -0.1814 -0.4557
 6253SOL    HW119337   3.560   0.494   1.546 -1.5064  3.0466  1.1620
 6253SOL    HW219338   3.635   0.600   1.468 -2.3609  2.2308 -0.8312
 6254SOL     OW19339   7.144   2.909   1.713 -0.0764 -0.4422  0.3431
 6254SOL    HW119340   7.180   2.847   1.650  1.0065 -1.2585  1.7101
 6254SOL    HW219341   7.220   2.939   1.763 -0.8812  0.3111  1.1548
 6255SOL     OW19342   7.041   8.799   6.083  0.3643 -0.1136  0.2731
 6255SOL    HW119343   7.030   8.886   6.123  1.0279 -0.5013  1.3642
 6255SOL    HW219344   6.964   8.750   6.111  0.5804 -0.2314  0.6710
 6256SOL     OW19345   5.247   7.896   0.047 -0.2498 -0.5055 -0.2825
 6256SOL    HW119346   5.153   7.903   0.058 -0.2211 -0.4047 -0.1036
 6256SOL    HW219347   5.276   7.845   0.122  0.0071  0.5679  0.3545
 6257SOL     OW19348   4.489   0.361   6.674 -0.3241  0.2345  0.2270
 6257SOL    HW119349   4.500   0.455   6.662  0.4076  0.0594 -0.6303
 6257SOL    HW219350   4.576   0.325   6.660 -0.2972 -0.4540  2.0132
 6258SOL     OW19351   6.743   7.806   6.983 -0.5573 -0.0341 -0.1038
 6258SOL    HW119352   6.824   7.775   7.022 -2.0008 -0.2225  2.9879
 6258SOL    HW219353   6.710   7.731   6.933  0.8434 -0.1194 -0.9581
 6259SOL     OW19354   5.771   9.025   2.637  0.8660 -0.2939 -0.0844
 6259SOL    HW119355   5.788   9.032   2.731  0.6692  0.3863 -0.0927
 6259SOL    HW219356   5.851   9.056   2.595  1.0405 -0.8181 -0.1478
 6260SOL     OW19357   4.083   4.690   4.906 -0.2651 -0.1584 -0.5075
 6260SOL    HW119358   4.016   4.685   4.975  0.5683  1.4545  0.4686
 6260SOL    HW219359   4.117   4.601   4.900 -0.8904 -0.5003  0.6205
 6261SOL     OW19360   8.952   2.110   6.987  0.2036  0.5287  0.7165
 6261SOL    HW119361   9.014   2.099   6.915  0.7438  0.3631  1.1986
 6261SOL    HW219362   8.980   2.191   7.030 -0.0001  0.5277  0.8522
 6262SOL     OW19363   1.678   1.123   8.594 -0.3481  0.1981 -0.2310
 6262SOL    HW119364   1.622   1.182   8.545  0.0063 -0.9519 -2.1334
 6262SOL    HW219365   1.667   1.038   8.551  2.3508 -0.1939 -0.3306
 6263SOL     OW19366   4.172   2.088   5.941 -0.4650  0.0907  0.0387
 6263SOL    HW119367   4.138   2.103   5.852 -0.6594 -0.5099  0.0109
 6263SOL    HW219368   4.168   1.993   5.953  0.2984  0.1007  0.3999
 6264SOL     OW19369   0.203   4.051   3.272 -0.6785 -0.1152  0.1901
 6264SOL    HW119370   0.192   3.961   3.241 -0.0091 -0.4837  0.9999
 6264SOL    HW219371   0.284   4.050   3.322 -0.0250  1.2216 -0.7945
 6265SOL     OW19372   6.070   4.531   2.743 -0.2232  0.0301  0.2812
 6265SOL    HW119373   5.988   4.482   2.735 -0.5141  0.7159 -1.3865
 6265SOL    HW219374   6.044   4.618   2.772 -0.0266  0.1084  0.2262
 6266SOL     OW19375   3.651   1.924   0.854 -0.2626  0.0107 -0.1176
 6266SOL    HW119376   3.594   1.850   0.834 -0.9376  0.1274  1.2541
 6266SOL    HW219377   3.740   1.888   0.850 -0.4985 -0.4940 -0.9626
 6267SOL     OW19378   4.426   1.587   1.976 -0.2000  0.9699  0.2484
 6267SOL    HW119379   4.354   1.650   1.978 -1.5855 -0.5631  1.6669
 6267SOL    HW219380   4.383   1.502   1.968  1.2795 -0.1978  3.3063
 6268SOL     OW19381   6.799   5.517   2.541  0.1044 -0.4294 -0.6369
 6268SOL    HW119382   6.855   5.494   2.615 -0.8746 -0.0979  0.2414
 6268SOL    HW219383   6.858   5.524   2.467  1.5290  1.7197  0.5988
 6269SOL     OW19384   2.556   6.889   1.986 -0.7314 -0.1264  0.8193
 6269SOL    HW119385   2.587   6.974   2.017 -1.2220  0.0718  0.7688
 6269SOL    HW219386   2.483   6.910   1.928 -1.6837 -0.6369  1.7959
 6270SOL     OW19387   0.641   6.233   1.729  0.5562  0.4184  0.0361
 6270SOL    HW119388   0.713   6.186   1.772  0.4409  0.4712  0.2879
 6270SOL    HW219389   0.632   6.314   1.778 -2.0785 -1.1136  2.4303
 6271SOL     OW19390   5.253   9.099   7.474  1.1265 -0.2866 -0.1336
 6271SOL    HW119391   5.267   9.090   7.568  0.3370 -0.4909 -0.0285
 6271SOL    HW219392   5.339   9.082   7.435  1.7580  1.0400  0.6038
 6272SOL     OW19393   9.767   0.489   8.038  0.0270  0.7437 -0.3221
 6272SOL    HW119394   9.690   0.529   8.079  0.8623  0.4305  1.6672
 6272SOL    HW219395   9.732   0.412   7.993 -0.8854  0.8456  0.1790
 6273SOL     OW19396   3.745   9.432   4.174 -0.1102 -0.4377  0.2049
 6273SOL    HW119397   3.660   9.477   4.177  1.3397  2.6898 -1.1536
 6273SOL    HW219398   3.776   9.435   4.265  0.8172  3.4266 -0.0956
 6274SOL     OW19399   7.784   2.038   2.381 -0.5212 -0.4955 -0.4241
 6274SOL    HW119400   7.858   2.096   2.400 -0.7609  0.3712 -2.0382
 6274SOL    HW219401   7.804   1.958   2.430  1.4767 -0.2668 -0.7786
 6275SOL     OW19402   3.579   5.782   5.334  0.7557  0.3679  0.2248
 6275SOL    HW119403   3.621   5.696   5.326  0.4419  0.3340 -1.2964
 6275SOL    HW219404   3.576   5.816   5.245  2.6338  2.8395  1.0159
 6276SOL     OW19405   4.589   9.397   7.509 -0.0138 -0.2667  0.5085
 6276SOL    HW119406   4.513   9.453   7.528  1.0688  0.5990  2.6693
 6276SOL    HW219407   4.642   9.450   7.450 -0.0205  0.0817  0.8092
 6277SOL     OW19408   4.449   9.619   7.451  0.4578 -0.4250  0.3601
 6277SOL    HW119409   4.498   9.643   7.373  0.3898  0.4821  0.5853
 6277SOL    HW219410   4.389   9.692   7.465  0.3725 -0.6400  1.1828
 6278SOL     OW19411   3.451   0.779   0.208  0.6196 -0.1290 -0.1027
 6278SOL    HW119412   3.483   0.776   0.299 -2.0086 -1.2542  0.9004
 6278SOL    HW219413   3.465   0.869   0.180 -1.9562  1.3952  2.8863
 6279SOL     OW19414   8.892   8.024   7.416  0.1978 -0.0116  0.1210
 6279SOL    HW119415   8.907   7.930   7.430  2.3800  0.0547 -1.3985
 6279SOL    HW219416   8.874   8.058   7.504 -0.9469 -1.8487  0.6856
 6280SOL     OW19417   7.643   1.808   7.703 -0.2697  0.3820  0.0595
 6280SOL    HW119418   7.726   1.771   7.732 -0.5757  1.1090  2.0522
 6280SOL    HW219419   7.577   1.744   7.728 -0.4883  0.7581  0.4749
 6281SOL     OW19420   6.222   1.618   1.839 -0.4173 -0.1966 -0.3491
 6281SOL    HW119421   6.182   1.700   1.868 -2.5458 -0.5421 -2.0716
 6281SOL    HW219422   6.288   1.599   1.906 -1.5276  1.6545  1.4045
 6282SOL     OW19423   2.655   2.525   6.472 -0.6170  0.1361 -0.1448
 6282SOL    HW119424   2.741   2.553   6.441 -0.1984  0.6763  1.4299
 6282SOL    HW219425   2.648   2.434   6.442 -0.2277  0.5927 -1.7171
 6283SOL     OW19426   5.462   6.598   5.499 -0.2220 -0.2457  0.2061
 6283SOL    HW119427   5.550   6.578   5.468  0.3708  1.1671  0.8772
 6283SOL    HW219428   5.438   6.524   5.554  1.2422  0.1119  1.3719
 6284SOL     OW19429   8.607   2.565   4.031 -0.7948  0.2729  0.1628
 6284SOL    HW119430   8.634   2.652   4.063  0.2711  0.0036  0.0496
 6284SOL    HW219431   8.514   2.560   4.051 -1.0525  1.7509 -0.5200
 6285SOL     OW19432   8.426   3.756   6.990 -0.0932 -0.0733  0.8963
 6285SOL    HW119433   8.338   3.734   6.961  0.0175  1.0171 -0.4100
 6285SOL    HW219434   8.414   3.816   7.064 -0.4686  0.4557  0.4130
 6286SOL     OW19435   3.284   2.083   4.969 -0.3104 -0.5322  0.3365
 6286SOL    HW119436   3.241   2.040   5.043 -0.0132 -0.2793  0.6606
 6286SOL    HW219437   3.366   2.115   5.004  0.3287 -1.3391 -0.3737
 6287SOL     OW19438   8.013   3.129   0.166 -0.0936  0.1345  0.0564
 6287SOL    HW119439   8.063   3.190   0.111  1.1947 -0.0417  0.9750
 6287SOL    HW219440   7.981   3.183   0.239 -1.4961  0.2971 -0.6545
 6288SOL     OW19441   2.408   0.106   9.561  0.2271 -0.0285 -0.0630
 6288SOL    HW119442   2.327   0.077   9.520  0.8677 -1.3587 -0.4575
 6288SOL    HW219443   2.399   0.079   9.653  0.4388 -0.6847 -0.2285
 6289SOL     OW19444   3.204   1.917   6.980 -0.4999 -0.0301 -0.3109
 6289SOL    HW119445   3.148   1.967   6.920 -0.3991 -0.9605 -1.1964
 6289SOL    HW219446   3.293   1.945   6.958 -0.5595  1.8426  1.4483
 6290SOL     OW19447   4.316   5.603   5.562 -0.8576 -0.1186 -0.3305
 6290SOL    HW119448   4.255   5.546   5.515  0.1018 -2.8827  1.4548
 6290SOL    HW219449   4.401   5.559   5.554  0.1422  1.5504  0.4399
 6291SOL     OW19450   0.014   8.617   6.958 -0.2486 -0.0888 -0.7501
 6291SOL    HW119451   0.029   8.594   7.049  1.3189 -0.2176 -1.0173
 6291SOL    HW219452  -0.017   8.708   6.961 -1.2955 -0.4481 -0.0429
 6292SOL     OW19453   2.938   3.602   2.732  0.4511 -0.1108  0.0227
 6292SOL    HW119454   2.913   3.650   2.653  2.1354  1.1292  0.1916
 6292SOL    HW219455   2.953   3.513   2.701  0.1336  0.1220 -0.8535
 6293SOL     OW19456   7.252   4.747   7.098 -0.9114  0.1405 -0.0387
 6293SOL    HW119457   7.276   4.656   7.079  4.1133  1.2297 -0.2274
 6293SOL    HW219458   7.264   4.757   7.192 -2.0674  0.4967  0.0855
 6294SOL     OW19459   0.498   4.247   0.083  0.1732  0.1807  0.2946
 6294SOL    HW119460   0.460   4.325   0.042  0.9714 -0.2931 -1.4224
 6294SOL    HW219461   0.578   4.230   0.033 -0.9119 -2.8279 -0.6181
 6295SOL     OW19462   0.962   3.992   0.456 -0.3226  0.3475 -0.4946
 6295SOL    HW119463   1.034   3.936   0.428 -1.4044 -1.4447  0.1455
 6295SOL    HW219464   0.884   3.953   0.418 -1.3257  0.3291  1.4367
 6296SOL     OW19465   2.835   0.283   7.718  0.2942  0.3306 -0.0279
 6296SOL    HW119466   2.741   0.268   7.714  0.4944 -0.7051 -1.2746
 6296SOL    HW219467   2.843   0.374   7.746 -1.0688  0.4334  0.1005
 6297SOL     OW19468   4.618   7.407   3.414 -0.0699  0.3888 -0.2625
 6297SOL    HW119469   4.660   7.493   3.411 -1.5366  1.2118  1.4438
 6297SOL    HW219470   4.533   7.420   3.372  0.1312 -0.5342 -0.9966
 6298SOL     OW19471   6.608   0.058   5.944 -0.1369  0.0936  0.1302
 6298SOL    HW119472   6.555   0.138   5.945  1.2801  1.0670  0.8582
 6298SOL    HW219473   6.651   0.059   5.858  0.7248  0.7300  0.5484
 6299SOL     OW19474   2.581   8.127   2.264 -0.2981  0.0715 -0.1714
 6299SOL    HW119475   2.665   8.173   2.260 -0.5423  0.8627  2.2321
 6299SOL    HW219476   2.603   8.040   2.297 -0.4146  0.3105  0.5516
 6300SOL     OW19477   5.963   5.961   0.524  0.6238  0.2363 -0.4076
 6300SOL    HW119478   5.952   6.040   0.471 -0.0803  0.7153  0.4153
 6300SOL    HW219479   6.023   5.989   0.594 -1.7470  0.9005  1.4792
 6301SOL     OW19480   2.866   4.294   1.040 -0.6526 -0.5298 -0.1847
 6301SOL    HW119481   2.948   4.257   1.008 -0.8455  1.5646 -3.6796
 6301SOL    HW219482   2.811   4.218   1.060  1.6971 -1.9671  1.1673
 6302SOL     OW19483   5.213   1.328   3.938  0.1590  0.1946 -0.0249
 6302SOL    HW119484   5.122   1.322   3.911  0.5148 -1.6816 -0.9524
 6302SOL    HW219485   5.209   1.339   4.033 -1.0385  2.9252 -0.3071
 6303SOL     OW19486   4.488   4.369   3.452 -0.4088  0.0760 -0.1833
 6303SOL    HW119487   4.493   4.411   3.367  1.2649 -1.9479 -1.1713
 6303SOL    HW219488   4.506   4.276   3.435  1.7416 -0.1500  2.5211
 6304SOL     OW19489   2.960   0.525   1.638 -0.4984  0.0488 -0.0916
 6304SOL    HW119490   3.047   0.547   1.603 -0.1876 -0.6475  0.2030
 6304SOL    HW219491   2.927   0.607   1.673  0.0810  0.3128 -0.1395
 6305SOL     OW19492   1.502   2.073   9.245  0.0810 -0.0584  0.4768
 6305SOL    HW119493   1.516   1.980   9.262  0.2220  0.1570  1.6536
 6305SOL    HW219494   1.582   2.115   9.274 -0.6700  0.5974  1.6976
 6306SOL     OW19495   1.317   8.264   5.320 -0.6553  0.4330 -0.2879
 6306SOL    HW119496   1.373   8.341   5.318 -1.5378  1.1031  0.1065
 6306SOL    HW219497   1.376   8.191   5.303  0.7507  0.8672  2.2429
 6307SOL     OW19498   4.350   8.324   9.344  0.3304  0.2372  0.8294
 6307SOL    HW119499   4.309   8.382   9.408 -2.1522  0.2274 -0.6040
 6307SOL    HW219500   4.416   8.276   9.393 -0.0403  1.6820  2.8718
 6308SOL     OW19501   5.012   2.475   9.574  0.2379 -0.2586 -0.0990
 6308SOL    HW119502   5.050   2.458   9.488  0.1009  0.6624 -0.3463
 6308SOL    HW219503   5.004   2.570   9.579 -1.4440 -0.3839  0.1983
 6309SOL     OW19504   4.448   7.272   4.854 -0.5901  0.6106  0.0858
 6309SOL    HW119505   4.411   7.329   4.787 -1.4003 -0.3270 -0.2806
 6309SOL    HW219506   4.382   7.270   4.923 -0.5314  0.1838  0.1322
 6310SOL     OW19507   1.061   6.470   0.566  0.5504 -0.0953  0.3245
 6310SOL    HW119508   1.029   6.381   0.583  2.3093 -0.7138  0.5737
 6310SOL    HW219509   1.088   6.503   0.651  3.5790 -0.8504 -0.2406
 6311SOL     OW19510   5.231   0.110   7.789  0.8348  0.3126 -0.3426
 6311SOL    HW119511   5.182   0.139   7.866 -0.9771  0.6847 -1.5815
 6311SOL    HW219512   5.267   0.025   7.814  0.0656  0.3159  0.8280
 6312SOL     OW19513   2.782   6.813   6.387  0.0451  0.0711  0.1100
 6312SOL    HW119514   2.725   6.803   6.464 -1.3426  0.5725 -0.8033
 6312SOL    HW219515   2.732   6.773   6.316  0.2747  1.6075 -0.9651
 6313SOL     OW19516   1.931   9.124   4.476 -0.4962 -0.4371  0.2149
 6313SOL    HW119517   1.956   9.135   4.384  0.8331 -1.7301  0.3839
 6313SOL    HW219518   1.835   9.121   4.474 -0.5898  1.6683 -0.8415
 6314SOL     OW19519   4.742   1.334   4.957  0.7387 -0.4379 -0.8453
 6314SOL    HW119520   4.776   1.411   5.002 -1.4629 -0.0266  0.2597
 6314SOL    HW219521   4.737   1.267   5.025  0.2007 -0.7524 -1.1912
 6315SOL     OW19522   6.344   3.002   6.223  0.0295  0.0186  0.2634
 6315SOL    HW119523   6.271   3.025   6.280 -0.0084  3.0563 -0.8180
 6315SOL    HW219524   6.419   3.049   6.260  0.5272  0.1167 -0.8133
 6316SOL     OW19525   6.034   6.790   0.280 -0.0001 -0.0232 -0.0797
 6316SOL    HW119526   6.074   6.845   0.346  1.3663 -1.7832  0.6491
 6316SOL    HW219527   6.076   6.815   0.197  0.7816 -0.1176  0.2813
 6317SOL     OW19528   4.287   3.618   0.332  0.0741 -0.0227 -0.1934
 6317SOL    HW119529   4.227   3.674   0.282 -0.7225 -1.8489 -1.3934
 6317SOL    HW219530   4.303   3.543   0.275  2.6644 -0.1265  0.5690
 6318SOL     OW19531   3.629   1.061   9.839 -0.0541  0.2515 -0.3235
 6318SOL    HW119532   3.590   1.136   9.794 -0.0265  1.2499  1.2744
 6318SOL    HW219533   3.718   1.056   9.803 -0.2614  0.5703 -0.9010
 6319SOL     OW19534   4.900   7.152   5.593  0.2091  0.3384 -0.2418
 6319SOL    HW119535   4.816   7.108   5.603 -0.5135  1.4597 -1.0745
 6319SOL    HW219536   4.937   7.115   5.513  1.5305 -1.6771  1.2135
 6320SOL     OW19537   3.604   5.947   4.538  0.1868  0.2527  0.0393
 6320SOL    HW119538   3.564   5.864   4.565  2.6024 -0.9082  0.3573
 6320SOL    HW219539   3.624   5.934   4.445  2.8561 -0.6288  0.6473
 6321SOL     OW19540   3.461   8.768   1.271 -0.1884 -0.7774  0.0652
 6321SOL    HW119541   3.413   8.711   1.331  0.5186  1.3020  2.8329
 6321SOL    HW219542   3.530   8.807   1.325  0.6015  1.1356 -2.1634
 6322SOL     OW19543   2.772   6.401   1.518  0.2283 -0.4839 -0.2214
 6322SOL    HW119544   2.689   6.371   1.480  0.4620  0.0624 -1.1999
 6322SOL    HW219545   2.749   6.427   1.607 -0.3658 -1.6458 -0.0070
 6323SOL     OW19546   4.577   3.077   0.714  0.3277 -0.2744 -0.3516
 6323SOL    HW119547   4.606   3.117   0.796 -0.2881  0.5498 -0.5231
 6323SOL    HW219548   4.482   3.070   0.724  0.1278  0.7771 -1.4004
 6324SOL     OW19549   3.334   3.432   0.540 -0.5660 -0.4671 -0.4730
 6324SOL    HW119550   3.313   3.515   0.582 -1.6187  0.3294 -2.4260
 6324SOL    HW219551   3.254   3.380   0.545 -0.3021 -0.8702 -0.3621
 6325SOL     OW19552   1.272   4.866   7.498 -0.5301 -0.0089  0.1414
 6325SOL    HW119553   1.255   4.825   7.583 -2.0881 -1.4552 -0.7961
 6325SOL    HW219554   1.220   4.947   7.500  0.0472  0.3523  0.8348
 6326SOL     OW19555   7.234   9.091   7.815  0.0709 -0.0805 -0.0203
 6326SOL    HW119556   7.322   9.071   7.783 -0.4511 -1.9003 -0.4365
 6326SOL    HW219557   7.177   9.082   7.738 -0.6253  0.0166  0.4702
 6327SOL     OW19558   6.473   8.056   6.939  0.2730  0.0413 -0.5195
 6327SOL    HW119559   6.388   8.011   6.931  0.1526  0.5569 -2.8253
 6327SOL    HW219560   6.450   8.148   6.950  0.5476  0.1389 -0.7781
 6328SOL     OW19561   9.118   8.609   8.450 -0.7842  0.3349  0.5976
 6328SOL    HW119562   9.119   8.703   8.432 -1.2077 -0.0267 -1.6803
 6328SOL    HW219563   9.027   8.590   8.472 -0.9089  0.3226  0.0886
 6329SOL     OW19564   1.679   5.357   6.704  0.2509  0.2550 -0.8237
 6329SOL    HW119565   1.688   5.347   6.799  2.5942 -1.3719 -1.1212
 6329SOL    HW219566   1.658   5.269   6.673 -0.0260  0.6736 -1.8652
 6330SOL     OW19567   9.009   0.854   8.298 -0.2824  0.9169 -0.2698
 6330SOL    HW119568   8.953   0.831   8.224  0.9292 -0.3758 -0.8439
 6330SOL    HW219569   9.041   0.942   8.278 -0.0742  0.6297 -1.2439
 6331SOL     OW19570   6.301   8.337   5.558 -0.2177  0.6806 -0.2442
 6331SOL    HW119571   6.227   8.381   5.598 -0.5823  0.6132 -0.8249
 6331SOL    HW219572   6.290   8.245   5.580  0.5231  0.8558  0.9356
 6332SOL     OW19573   5.277   1.216   0.821  0.1219  0.1449  0.4838
 6332SOL    HW119574   5.230   1.228   0.904  1.2684 -0.7160  1.2860
 6332SOL    HW219575   5.281   1.304   0.783 -1.6473  0.3248  0.6372
 6333SOL     OW19576   4.769   6.269   0.396  0.1254 -0.3401 -0.8844
 6333SOL    HW119577   4.762   6.361   0.423  0.7113 -1.1029  2.3405
 6333SOL    HW219578   4.861   6.247   0.410 -0.1584 -1.5972 -0.8919
 6334SOL     OW19579   4.867   3.543   1.937 -0.1155  0.1239 -0.0422
 6334SOL    HW119580   4.959   3.548   1.911  0.0312 -1.8776 -0.0424
 6334SOL    HW219581   4.860   3.601   2.013  1.7589 -1.5557  1.5238
 6335SOL     OW19582   3.714   6.722   2.353  0.0613 -0.4740  0.5700
 6335SOL    HW119583   3.774   6.688   2.420  0.7253 -2.5984 -1.0120
 6335SOL    HW219584   3.661   6.787   2.400  0.3130 -2.0246  3.2186
 6336SOL     OW19585   7.890   4.084   2.187 -0.0733 -0.0061 -0.5658
 6336SOL    HW119586   7.819   4.100   2.124  0.1218  0.0910 -0.7642
 6336SOL    HW219587   7.970   4.104   2.138  0.2767 -2.3891 -1.1183
 6337SOL     OW19588   5.369   8.805   1.759 -0.2667  0.3461  0.3619
 6337SOL    HW119589   5.369   8.857   1.679  1.5242 -2.1599 -1.4227
 6337SOL    HW219590   5.454   8.822   1.800  1.0654 -2.1239 -1.0889
 6338SOL     OW19591   6.916   5.007   8.897 -0.1953 -0.2943  0.2118
 6338SOL    HW119592   6.846   5.046   8.846 -0.2915 -1.4281 -0.5577
 6338SOL    HW219593   6.872   4.952   8.962 -0.0502  0.3886  0.8996
 6339SOL     OW19594   3.581   3.829   8.283  0.1768  0.1272 -0.0321
 6339SOL    HW119595   3.637   3.786   8.349  0.3999  1.3660  0.6122
 6339SOL    HW219596   3.534   3.757   8.242  1.9755 -0.9418 -0.3424
 6340SOL     OW19597   1.553   2.141   2.514 -0.4797 -0.1289 -0.5854
 6340SOL    HW119598   1.555   2.098   2.600 -1.4751 -1.1889 -1.0656
 6340SOL    HW219599   1.642   2.130   2.480  0.4654  1.8780  1.0123
 6341SOL     OW19600   8.110   8.558   4.758 -0.2382 -0.5042 -0.4814
 6341SOL    HW119601   8.167   8.530   4.686  1.1985 -1.0508  0.8047
 6341SOL    HW219602   8.154   8.526   4.837 -0.6837  1.7819  0.7908
 6342SOL     OW19603   1.693   6.667   8.202  0.1026 -0.3876  0.2479
 6342SOL    HW119604   1.758   6.684   8.271 -1.0375  0.5238  1.1446
 6342SOL    HW219605   1.611   6.654   8.250 -0.7134  0.2122 -0.9457
 6343SOL     OW19606   8.508   6.924   7.707  0.3342 -0.4552  0.0415
 6343SOL    HW119607   8.530   6.913   7.614  0.2682  0.1645 -0.0553
 6343SOL    HW219608   8.494   6.835   7.739 -0.9496 -0.6105 -0.8606
 6344SOL     OW19609   9.161   6.412   0.597 -0.6489  0.1214  0.2227
 6344SOL    HW119610   9.208   6.489   0.563 -0.9938 -0.7719 -2.4494
 6344SOL    HW219611   9.213   6.385   0.673  2.4317  0.0518 -1.7330
 6345SOL     OW19612   8.138   3.102   3.653  0.0287 -0.0113 -0.2018
 6345SOL    HW119613   8.139   3.098   3.748 -0.4392  0.6881 -0.1510
 6345SOL    HW219614   8.170   3.190   3.632 -2.0331  0.7133 -0.5727
 6346SOL     OW19615   3.026   5.305   4.981 -0.7564 -0.4261  0.0047
 6346SOL    HW119616   2.996   5.249   4.910 -2.6663 -0.3578  0.7153
 6346SOL    HW219617   3.018   5.394   4.947  0.2355 -0.4602 -0.3633
 6347SOL     OW19618   8.440   1.667   6.603  0.1859  0.0174 -0.1863
 6347SOL    HW119619   8.387   1.698   6.677 -1.6222 -1.4231 -0.8047
 6347SOL    HW219620   8.432   1.735   6.537 -0.9612 -0.1969 -0.2842
 6348SOL     OW19621   8.175   4.931   4.707  0.7520 -0.2102 -0.1085
 6348SOL    HW119622   8.235   5.003   4.690  0.3802 -0.0356 -0.7251
 6348SOL    HW219623   8.208   4.890   4.787  2.8968 -1.3484 -1.4705
 6349SOL     OW19624   4.325   4.073   6.036 -0.2963 -0.1978  0.1627
 6349SOL    HW119625   4.317   4.168   6.024  0.4674 -0.0266  0.9495
 6349SOL    HW219626   4.238   4.045   6.066 -0.7944  0.0969 -0.9341
 6350SOL     OW19627   4.119   0.733   1.625 -0.1087  0.0523 -0.1178
 6350SOL    HW119628   4.196   0.689   1.589  1.1247  0.7343  1.5503
 6350SOL    HW219629   4.154   0.808   1.673 -1.7398 -0.0072  1.2946
 6351SOL     OW19630   4.332   2.654   2.888  0.1864 -0.2498 -0.3788
 6351SOL    HW119631   4.295   2.635   2.802 -0.5918  1.2224 -0.4065
 6351SOL    HW219632   4.295   2.586   2.945 -0.3394 -0.4547 -0.9514
 6352SOL     OW19633   3.714   7.955   2.510  0.4791  0.2657 -0.1625
 6352SOL    HW119634   3.691   7.976   2.420 -0.6883 -0.4959 -0.0758
 6352SOL    HW219635   3.808   7.936   2.508  0.2913 -0.6616 -1.4085
 6353SOL     OW19636   3.923   8.091   7.985 -0.0429 -0.0584  0.0848
 6353SOL    HW119637   3.858   8.027   8.015  0.4032 -1.2383 -1.3756
 6353SOL    HW219638   3.884   8.130   7.907  0.8243 -0.4866 -0.5728
 6354SOL     OW19639   1.058   2.832   9.437 -0.0935 -0.1610 -0.2347
 6354SOL    HW119640   1.017   2.890   9.501  0.3903 -0.5037  0.3943
 6354SOL    HW219641   1.119   2.779   9.488 -0.8670 -1.5600 -0.7023
 6355SOL     OW19642   0.924   8.292   1.320 -0.2050  0.6870 -0.6391
 6355SOL    HW119643   0.901   8.382   1.343 -1.8219  0.3083 -0.6824
 6355SOL    HW219644   0.921   8.290   1.224 -0.3008  0.5508 -0.6333
 6356SOL     OW19645   5.492   8.774   8.328 -0.2477  0.3037 -0.4540
 6356SOL    HW119646   5.417   8.732   8.371  0.0968  0.8029  0.6866
 6356SOL    HW219647   5.454   8.821   8.254 -1.3787  1.9838  1.0925
 6357SOL     OW19648   2.512   3.747   1.334 -0.3624 -0.3310 -0.2713
 6357SOL    HW119649   2.460   3.809   1.283 -1.4764 -0.8603  0.1795
 6357SOL    HW219650   2.452   3.716   1.402  0.4643 -1.1789  0.0912
 6358SOL     OW19651   5.594   0.139   9.949 -0.2707  0.6034  0.1250
 6358SOL    HW119652   5.642   0.215   9.915 -1.7267  1.7158  0.4244
 6358SOL    HW219653   5.505   0.173   9.965 -0.9635 -1.1835  0.2391
 6359SOL     OW19654   5.186   9.456   4.442 -0.2509  0.2768 -0.0634
 6359SOL    HW119655   5.206   9.453   4.349  0.9661 -3.5238  0.1481
 6359SOL    HW219656   5.094   9.433   4.449  0.0970 -1.3441 -0.3421
 6360SOL     OW19657   1.627   7.112   0.688  0.4764 -0.6354  0.8160
 6360SOL    HW119658   1.677   7.186   0.655  1.9304 -2.2874 -0.8977
 6360SOL    HW219659   1.566   7.151   0.751  0.3855  2.1405 -0.8145
 6361SOL     OW19660   4.404   2.290   9.602 -0.4690  0.2925 -0.3570
 6361SOL    HW119661   4.442   2.217   9.553  0.0116  0.6012 -0.4486
 6361SOL    HW219662   4.478   2.347   9.623 -0.4556 -0.4276  1.8036
 6362SOL     OW19663   3.666   6.806   6.684  0.7305  0.0803  0.6611
 6362SOL    HW119664   3.643   6.733   6.741  0.1936 -0.6808 -0.4912
 6362SOL    HW219665   3.611   6.878   6.713 -1.3389 -0.9911 -0.4271
 6363SOL     OW19666   9.881   6.788   8.633  0.2675  0.4327  0.3700
 6363SOL    HW119667   9.976   6.797   8.646  0.4635 -0.1086 -0.5608
 6363SOL    HW219668   9.844   6.867   8.674  1.2891  1.7247 -1.0477
 6364SOL     OW19669   1.878   4.091   1.775  0.3953  0.1276 -0.3381
 6364SOL    HW119670   1.819   4.052   1.711 -0.6845  0.7155  0.2557
 6364SOL    HW219671   1.859   4.045   1.857  1.0688  0.0371 -0.2262
 6365SOL     OW19672   0.690   7.936   8.049 -0.1629  0.3879 -0.2717
 6365SOL    HW119673   0.716   7.990   7.975  0.4974  1.5096  0.7406
 6365SOL    HW219674   0.680   7.848   8.013 -0.1562  0.9616 -1.7349
 6366SOL     OW19675   0.917   4.131   8.957  0.0709  0.5563  0.0247
 6366SOL    HW119676   0.956   4.207   9.000 -0.1894 -0.5338  2.3621
 6366SOL    HW219677   0.824   4.154   8.948  0.1189  0.7858  0.1177
 6367SOL     OW19678   0.562   3.797   6.426  0.2509  0.5612  0.4168
 6367SOL    HW119679   0.471   3.768   6.429  0.3977  0.1187  0.6276
 6367SOL    HW219680   0.568   3.864   6.495  0.0455  0.7070  0.2922
 6368SOL     OW19681   9.690   3.618   4.101  0.3065  0.2314 -0.3642
 6368SOL    HW119682   9.625   3.579   4.041 -0.0113  0.5675 -0.2479
 6368SOL    HW219683   9.638   3.677   4.155  0.5264 -0.3808  0.5282
 6369SOL     OW19684   9.578   4.668   6.818 -0.7868  0.0909  0.1433
 6369SOL    HW119685   9.528   4.731   6.765 -0.0105  1.1634  0.6439
 6369SOL    HW219686   9.512   4.628   6.875 -1.5259 -0.5976 -1.1380
 6370SOL     OW19687   8.934   4.402   6.341  0.0213  0.4840 -0.3316
 6370SOL    HW119688   9.008   4.402   6.401  1.4848 -0.8949 -2.0133
 6370SOL    HW219689   8.863   4.444   6.390  1.3005  0.0256  2.0745
 6371SOL     OW19690   5.780   0.555   7.137 -0.0593 -0.2222 -0.5557
 6371SOL    HW119691   5.856   0.604   7.107 -0.9374  1.1110 -0.7109
 6371SOL    HW219692   5.816   0.485   7.192  1.2247  0.7500 -0.1183
 6372SOL     OW19693   4.601   1.183   8.637 -0.0876  0.1187  0.1132
 6372SOL    HW119694   4.610   1.242   8.712  0.5318 -1.4102  1.3199
 6372SOL    HW219695   4.513   1.199   8.604 -1.2923 -0.7074  2.6240
 6373SOL     OW19696   0.520   1.342   4.982 -0.0678 -0.0726  0.6140
 6373SOL    HW119697   0.559   1.418   4.939 -0.5315 -0.3664 -0.3676
 6373SOL    HW219698   0.590   1.276   4.982 -0.1568 -0.1800 -0.0174
 6374SOL     OW19699   4.138   9.103   3.287 -0.3429  0.2451  0.4281
 6374SOL    HW119700   4.050   9.133   3.309 -0.7309 -0.2534 -0.3978
 6374SOL    HW219701   4.197   9.165   3.332 -1.1027  0.4967  1.0989
 6375SOL     OW19702   6.847   7.336   4.944  0.4043  0.1704 -0.4714
 6375SOL    HW119703   6.881   7.425   4.935  1.9258 -0.3152  0.2632
 6375SOL    HW219704   6.880   7.306   5.028 -0.1605 -1.0756 -0.6776
 6376SOL     OW19705   6.799   7.175   3.259  0.2511  0.2522  0.0450
 6376SOL    HW119706   6.852   7.128   3.324  0.7498  0.2650 -0.3513
 6376SOL    HW219707   6.860   7.235   3.217 -0.2069  0.6782 -0.0160
 6377SOL     OW19708   2.459   7.797   2.084  0.0855 -0.2193  0.2250
 6377SOL    HW119709   2.431   7.885   2.057 -1.2850 -0.8201 -0.4101
 6377SOL    HW219710   2.389   7.768   2.143  2.5191  0.6914  3.8971
 6378SOL     OW19711   4.277   3.010   5.793  0.0892 -0.1851 -0.4175
 6378SOL    HW119712   4.349   3.064   5.824 -0.1728 -0.2269  0.3106
 6378SOL    HW219713   4.232   3.063   5.727  0.3455  0.1358 -0.3334
 6379SOL     OW19714   2.293   1.133   0.104  0.2084 -0.2432 -0.1092
 6379SOL    HW119715   2.276   1.039   0.110  1.6602 -0.6522 -1.6139
 6379SOL    HW219716   2.326   1.157   0.191 -2.6670 -0.4895  1.1740
 6380SOL     OW19717   5.304   9.016   0.060 -0.3076 -0.8355  0.7892
 6380SOL    HW119718   5.249   8.945   0.027  0.5278 -0.7031 -0.9759
 6380SOL    HW219719   5.336   8.983   0.145 -3.5222 -0.6465  2.2200
 6381SOL     OW19720   9.179   7.898   0.839  0.3811 -0.4867 -0.2595
 6381SOL    HW119721   9.131   7.877   0.919  0.3967 -1.2028 -0.4258
 6381SOL    HW219722   9.148   7.985   0.814  1.4183  0.3735  1.2771
 6382SOL     OW19723   0.544   7.444   4.883 -0.7331  0.0193 -0.7764
 6382SOL    HW119724   0.627   7.465   4.924 -0.6541 -0.8150 -0.4844
 6382SOL    HW219725   0.497   7.528   4.878 -0.3202  0.3053  0.0573
 6383SOL     OW19726   4.599   1.625   0.524  0.3433 -0.2293 -0.3207
 6383SOL    HW119727   4.617   1.539   0.561  0.0025  0.0210  0.4436
 6383SOL    HW219728   4.653   1.685   0.575  0.4970  0.0318 -0.7766
 6384SOL     OW19729   3.147   8.274   6.081  0.0481 -0.7549  0.0801
 6384SOL    HW119730   3.065   8.317   6.105  0.5295  0.1223  0.1974
 6384SOL    HW219731   3.132   8.243   5.991 -0.3678 -0.4998  0.0558
 6385SOL     OW19732   1.116   7.105   5.363  0.2450 -0.4202 -0.5400
 6385SOL    HW119733   1.027   7.125   5.335  0.0793  0.6444  0.6430
 6385SOL    HW219734   1.108   7.023   5.412 -0.3580  0.3640  0.7342
 6386SOL     OW19735   8.030   6.909   1.613  0.6747 -0.2080  0.5094
 6386SOL    HW119736   7.948   6.945   1.580  0.0397 -1.8975  0.1503
 6386SOL    HW219737   8.044   6.955   1.696 -0.6699  0.0749  0.6059
 6387SOL     OW19738   6.957   8.230   5.049  0.3396  0.2980 -0.0715
 6387SOL    HW119739   6.994   8.194   5.129 -0.0535  0.1782  0.0633
 6387SOL    HW219740   7.025   8.287   5.013  0.7304 -0.0900  0.0483
 6388SOL     OW19741   9.796   1.252   5.716 -0.2662 -0.3384  0.2508
 6388SOL    HW119742   9.723   1.206   5.756 -1.1820 -0.2481 -1.2215
 6388SOL    HW219743   9.766   1.343   5.708  0.8155  0.1528  1.4736
 6389SOL     OW19744   9.748   2.464   0.495 -0.0566  0.1494 -0.0333
 6389SOL    HW119745   9.785   2.552   0.486  0.1198  0.3227  1.9938
 6389SOL    HW219746   9.760   2.442   0.587 -3.7678 -0.3401  0.4838
 6390SOL     OW19747   0.478   6.600   0.450 -0.3829  0.2397 -0.2766
 6390SOL    HW119748   0.504   6.646   0.530 -0.8359  0.5018 -0.2743
 6390SOL    HW219749   0.539   6.527   0.442 -0.0922  0.4441  0.0974
 6391SOL     OW19750   1.534   1.316   3.775  0.2021 -0.4793  0.2687
 6391SOL    HW119751   1.534   1.277   3.688 -0.1450 -0.1702  0.1281
 6391SOL    HW219752   1.443   1.343   3.790  0.8354  2.7564 -0.7892
 6392SOL     OW19753   7.333   0.627   0.625 -0.2336 -0.0856  0.2812
 6392SOL    HW119754   7.341   0.534   0.647 -0.1589  0.1238  1.1883
 6392SOL    HW219755   7.375   0.672   0.699 -2.6687  0.7702  1.2221
 6393SOL     OW19756   3.633   6.823   1.036  0.7910  0.3573 -0.8497
 6393SOL    HW119757   3.705   6.873   0.997  1.5743 -0.7661 -0.9237
 6393SOL    HW219758   3.604   6.765   0.966 -0.0196  0.6151 -0.7327
 6394SOL     OW19759   4.611   2.625   8.221 -0.0142 -0.1750  0.3411
 6394SOL    HW119760   4.617   2.677   8.301  2.1598 -0.4335  0.4220
 6394SOL    HW219761   4.567   2.544   8.249 -1.7804  0.8495  0.6119
 6395SOL     OW19762   8.995   1.227   5.362  0.4190  0.5915 -0.0350
 6395SOL    HW119763   9.025   1.301   5.415  0.3274  0.2259  0.5336
 6395SOL    HW219764   8.943   1.174   5.422  0.3163  0.1656 -0.4920
 6396SOL     OW19765   5.592   2.833   9.738 -0.3455 -0.1701  0.2659
 6396SOL    HW119766   5.601   2.764   9.672 -1.1494 -0.3901  0.3802
 6396SOL    HW219767   5.526   2.892   9.701  1.8752  1.7605 -0.8707
 6397SOL     OW19768   0.155   5.513   2.811  0.1801 -0.3262  0.2198
 6397SOL    HW119769   0.234   5.501   2.863  0.2442  0.6857  0.3806
 6397SOL    HW219770   0.127   5.424   2.788  1.6429 -0.6735 -0.2898
 6398SOL     OW19771   5.484   3.387   9.875  0.2259  0.2855  0.1483
 6398SOL    HW119772   5.462   3.302   9.914  1.4343  0.3564  1.0201
 6398SOL    HW219773   5.551   3.367   9.810 -0.5383  0.3974 -0.6900
 6399SOL     OW19774   0.442   7.424   3.983  0.2188 -0.1317 -0.0821
 6399SOL    HW119775   0.383   7.350   3.971  0.1035  0.2729 -2.3692
 6399SOL    HW219776   0.415   7.488   3.917 -1.0255  2.9128  3.0396
 6400SOL     OW19777   0.813   2.604   4.093  0.2133  0.5538  0.2113
 6400SOL    HW119778   0.752   2.568   4.157 -0.7475  0.6080 -0.6571
 6400SOL    HW219779   0.866   2.666   4.143  0.1464 -0.1316  1.1605
 6401SOL     OW19780   1.679   5.592   5.998 -0.1071 -0.0312 -0.2832
 6401SOL    HW119781   1.670   5.619   5.907 -2.7307  1.7225  0.3763
 6401SOL    HW219782   1.619   5.518   6.007 -0.0007 -0.0784  0.0471
 6402SOL     OW19783   7.423   6.157   2.241 -0.1922  0.2998 -0.0107
 6402SOL    HW119784   7.466   6.230   2.196  0.4567 -0.5521 -0.8091
 6402SOL    HW219785   7.489   6.125   2.303 -1.3214  1.9355  2.1841
 6403SOL     OW19786   0.223   1.811   5.267 -0.6471 -0.4841  0.0953
 6403SOL    HW119787   0.145   1.807   5.323  0.1003 -2.2949  1.0998
 6403SOL    HW219788   0.252   1.902   5.272 -1.5787 -0.2300  1.3049
 6404SOL     OW19789   4.203   2.445   9.427  0.1618 -0.3195 -0.7698
 6404SOL    HW119790   4.209   2.539   9.444 -0.0670 -0.3407 -0.5652
 6404SOL    HW219791   4.273   2.406   9.481  1.7536 -0.0750 -2.5441
 6405SOL     OW19792   0.763   5.633   0.949  0.1365  0.0988 -0.1218
 6405SOL    HW119793   0.789   5.718   0.912  2.1113  0.1199  1.1400
 6405SOL    HW219794   0.669   5.629   0.936  0.0865  2.1935 -0.8287
 6406SOL     OW19795   3.456   7.296   7.391  0.3492 -0.1950  0.6674
 6406SOL    HW119796   3.489   7.242   7.463  1.8283  1.0001  0.9542
 6406SOL    HW219797   3.533   7.347   7.362 -0.7461  1.0390 -0.2205
 6407SOL     OW19798   2.929   5.818   4.505 -0.4945  0.0986  0.3235
 6407SOL    HW119799   3.009   5.797   4.552 -0.6263  0.5364  0.7483
 6407SOL    HW219800   2.863   5.761   4.545 -0.3089 -0.5979 -0.3391
 6408SOL     OW19801   4.251   7.949   0.886  0.2873  0.6363 -0.3302
 6408SOL    HW119802   4.199   7.936   0.807  1.2281  0.2023 -0.8932
 6408SOL    HW219803   4.228   7.875   0.943 -1.0326  1.4099  0.1799
 6409SOL     OW19804   8.868   9.260   8.649 -0.9226  0.3713 -0.1495
 6409SOL    HW119805   8.797   9.324   8.637 -1.6227 -0.2470  0.6080
 6409SOL    HW219806   8.835   9.200   8.715 -0.5595 -1.1896 -1.3297
 6410SOL     OW19807   5.131   2.427   7.022 -0.5348  0.5085 -0.2123
 6410SOL    HW119808   5.101   2.357   7.081 -0.0075  0.1040 -0.4125
 6410SOL    HW219809   5.219   2.448   7.054 -0.7723  1.2242 -0.0320
 6411SOL     OW19810   6.210   6.952   5.038  0.0046 -0.3626 -0.5197
 6411SOL    HW119811   6.212   7.044   5.012  0.6362 -0.3790 -0.5558
 6411SOL    HW219812   6.122   6.939   5.074  0.0612  0.3759 -0.0813
 6412SOL     OW19813   1.383   0.026   3.718 -0.8347 -0.3448  0.0309
 6412SOL    HW119814   1.411   0.117   3.727 -0.3588 -0.4321 -0.5514
 6412SOL    HW219815   1.450  -0.015   3.664  0.6009 -1.8274  2.7347
 6413SOL     OW19816   0.192   8.222   5.973  0.1418 -0.2409 -0.2692
 6413SOL    HW119817   0.147   8.182   6.047 -1.9108  3.2238  0.5646
 6413SOL    HW219818   0.270   8.262   6.011 -0.3988  0.6852 -0.0852
 6414SOL     OW19819   5.560   5.746   8.429 -0.2811 -0.4240  0.2148
 6414SOL    HW119820   5.581   5.676   8.368 -0.3260 -0.1429 -0.1270
 6414SOL    HW219821   5.576   5.708   8.515  1.2335 -0.3539 -0.0175
 6415SOL     OW19822   7.985   5.495   6.399 -0.2445  0.4053 -0.6502
 6415SOL    HW119823   7.912   5.551   6.425 -0.5018 -0.3107  0.2391
 6415SOL    HW219824   7.945   5.430   6.341 -0.3303  0.0251 -0.1784
 6416SOL     OW19825   0.793   0.886   1.764 -0.0869 -0.5948  0.4562
 6416SOL    HW119826   0.735   0.810   1.762 -1.5958  0.5161 -0.8286
 6416SOL    HW219827   0.878   0.851   1.736 -0.3219 -2.0782  1.4469
 6417SOL     OW19828   6.945   2.905   8.557 -0.0325  0.3807  0.3493
 6417SOL    HW119829   6.972   2.822   8.596  0.6045 -0.2485 -1.3290
 6417SOL    HW219830   6.912   2.881   8.470  0.3950  1.8916 -0.2728
 6418SOL     OW19831   8.917   5.335   9.156  0.6747  0.7874  0.0898
 6418SOL    HW119832   8.838   5.387   9.147 -0.7814 -1.1761  0.9071
 6418SOL    HW219833   8.911   5.269   9.087  1.6274  0.6539  0.1199
 6419SOL     OW19834   7.744   1.699   0.440  0.1505  0.6874 -0.0783
 6419SOL    HW119835   7.839   1.703   0.450  0.2395 -0.9303  0.0931
 6419SOL    HW219836   7.726   1.743   0.357  1.0892  0.7417 -0.2660
 6420SOL     OW19837   6.984   5.562   1.741 -0.3838  0.2310 -0.9170
 6420SOL    HW119838   6.961   5.482   1.788 -2.8211  2.1569  1.5074
 6420SOL    HW219839   7.062   5.594   1.786  0.8168 -0.8863 -2.1301
 6421SOL     OW19840   4.044   0.895   3.371  0.7545 -0.6431 -0.2670
 6421SOL    HW119841   4.051   0.811   3.327  1.4881 -0.5888 -0.2612
 6421SOL    HW219842   3.973   0.941   3.325 -0.8751 -1.9198  0.8371
 6422SOL     OW19843   9.312   2.162   8.970 -0.2488 -0.2991  0.2787
 6422SOL    HW119844   9.234   2.116   8.998 -0.3252 -1.0878 -1.1455
 6422SOL    HW219845   9.342   2.208   9.048 -1.4841 -0.8904  1.1326
 6423SOL     OW19846   6.278   6.772   1.950  0.5597  0.5021 -0.7074
 6423SOL    HW119847   6.250   6.861   1.970  0.1126  0.4830 -1.2341
 6423SOL    HW219848   6.372   6.779   1.933  0.4609  0.9340 -1.0951
 6424SOL     OW19849   5.551   4.609   1.757 -0.3091 -0.0375  0.3123
 6424SOL    HW119850   5.467   4.588   1.716  0.3321 -0.9727 -0.5968
 6424SOL    HW219851   5.528   4.651   1.839 -1.6778 -1.3137  0.6235
 6425SOL     OW19852   7.991   1.649   0.534  0.2216  1.2669 -0.0410
 6425SOL    HW119853   8.010   1.703   0.611  3.3382 -0.2831  0.4395
 6425SOL    HW219854   8.049   1.574   0.543 -1.3967 -0.4234 -2.5019
 6426SOL     OW19855   9.069   2.962   3.062 -0.0362 -0.0249 -0.6673
 6426SOL    HW119856   9.099   3.020   3.132 -2.5173  0.0254  0.4416
 6426SOL    HW219857   9.130   2.888   3.065  0.5682  0.4945  0.8147
 6427SOL     OW19858   6.944   5.574   2.245 -0.6056 -0.0303 -0.0470
 6427SOL    HW119859   6.887   5.615   2.180 -2.0738  0.3165  1.3881
 6427SOL    HW219860   6.993   5.646   2.283  2.0810 -0.4832 -2.3410
 6428SOL     OW19861   3.313   8.331   1.683  0.2354  0.2658  0.1976
 6428SOL    HW119862   3.240   8.385   1.716  0.4563  0.0357  1.1042
 6428SOL    HW219863   3.270   8.259   1.637 -0.1379  0.0550  0.8482
 6429SOL     OW19864   3.388   4.859   8.369 -0.6469 -0.2583  0.3128
 6429SOL    HW119865   3.326   4.932   8.368 -0.6009 -0.1880 -1.4567
 6429SOL    HW219866   3.439   4.871   8.449 -1.3867  1.0082  0.6196
 6430SOL     OW19867   1.658   9.471   1.028  0.4734 -0.1173 -0.2970
 6430SOL    HW119868   1.644   9.566   1.030 -1.2927 -0.3268 -0.8339
 6430SOL    HW219869   1.589   9.438   0.972  1.3112 -1.7066 -0.4443
 6431SOL     OW19870   9.340   5.113   3.157 -0.2101  0.2876  0.1562
 6431SOL    HW119871   9.312   5.105   3.248  1.3814  1.5467  0.7892
 6431SOL    HW219872   9.392   5.193   3.155  0.5987 -0.2495 -1.6612
 6432SOL     OW19873   0.781   0.140   8.181 -0.0589 -0.6764  0.0387
 6432SOL    HW119874   0.873   0.143   8.206 -0.0819  2.5340  0.1883
 6432SOL    HW219875   0.735   0.174   8.258 -1.0671  0.3313 -0.9730
 6433SOL     OW19876   6.989   5.117   4.222  0.3563 -0.0568 -0.5354
 6433SOL    HW119877   6.937   5.161   4.155 -1.6405  0.6212  1.3463
 6433SOL    HW219878   7.063   5.175   4.238 -1.0842  1.6211  0.3544
 6434SOL     OW19879   6.639   3.619   1.723 -0.0474  0.0145 -0.1038
 6434SOL    HW119880   6.668   3.691   1.668  0.7712  0.3605  0.7459
 6434SOL    HW219881   6.591   3.561   1.664 -1.1494  1.4791 -0.7153
 6435SOL     OW19882   5.712   4.164   0.918 -0.1943 -0.2346 -0.6281
 6435SOL    HW119883   5.765   4.177   0.839 -1.3800  0.2648 -1.3749
 6435SOL    HW219884   5.771   4.121   0.980  0.9419 -0.0911 -1.5748
 6436SOL     OW19885   2.751   2.862   7.885  0.4720  0.1077  0.2871
 6436SOL    HW119886   2.718   2.813   7.960 -2.9593  2.5957  0.6363
 6436SOL    HW219887   2.745   2.801   7.811 -1.5978 -0.6915  1.0578
 6437SOL     OW19888   1.312   2.844   1.612 -0.0598  0.4498 -0.5193
 6437SOL    HW119889   1.374   2.797   1.669 -1.9083 -0.4578  0.8530
 6437SOL    HW219890   1.331   2.937   1.628 -0.5758  0.2244  1.7337
 6438SOL     OW19891   3.649   1.496   2.316 -0.3258  0.0134 -0.2951
 6438SOL    HW119892   3.657   1.585   2.351 -1.7979 -0.4525  1.3937
 6438SOL    HW219893   3.589   1.504   2.243 -2.1845  0.1683  1.1660
 6439SOL     OW19894   2.064   6.326   3.176  0.2859 -0.1686  0.3704
 6439SOL    HW119895   2.083   6.415   3.147 -0.7138  0.8143  2.4958
 6439SOL    HW219896   1.991   6.298   3.122  1.7225 -0.4323 -1.5282
 6440SOL     OW19897   6.701   5.543   0.394  0.0413 -0.5522  0.2690
 6440SOL    HW119898   6.657   5.624   0.422 -0.6804 -1.6615  2.6527
 6440SOL    HW219899   6.757   5.520   0.468  0.0923 -2.3186 -0.2758
 6441SOL     OW19900   4.030   5.413   5.102  0.0104  0.2551 -0.2956
 6441SOL    HW119901   4.081   5.441   5.025  1.0262 -1.0435 -0.1261
 6441SOL    HW219902   3.941   5.401   5.068  0.5329 -0.7273 -1.4020
 6442SOL     OW19903   6.451   2.757   3.173 -0.6365  0.5500  0.1576
 6442SOL    HW119904   6.541   2.762   3.140 -0.4555 -0.4936  0.4576
 6442SOL    HW219905   6.396   2.768   3.096 -0.2376 -3.2547 -0.8704
 6443SOL     OW19906   8.646   1.210   7.903 -0.5950 -0.6705  0.4843
 6443SOL    HW119907   8.742   1.204   7.903 -0.5888 -0.5591  0.2175
 6443SOL    HW219908   8.618   1.129   7.946 -0.4132 -1.3252 -0.5798
 6444SOL     OW19909   5.616   6.327   2.921  0.2275 -0.7776 -0.7462
 6444SOL    HW119910   5.571   6.280   2.990  1.2875 -0.3714  0.2700
 6444SOL    HW219911   5.663   6.260   2.872 -0.6043 -1.0777 -1.1488
 6445SOL     OW19912   1.349   9.120   9.325 -0.2210  0.4949  0.1438
 6445SOL    HW119913   1.321   9.053   9.387 -1.4182  0.2058 -0.6684
 6445SOL    HW219914   1.433   9.089   9.292  0.3399  0.5601  1.4473
 6446SOL     OW19915   5.075   0.891   5.857  0.8850 -0.0631  0.0863
 6446SOL    HW119916   5.157   0.936   5.877  0.5221  0.5203  0.2850
 6446SOL    HW219917   5.011   0.962   5.845  0.0377 -0.5373  1.5365
 6447SOL     OW19918   0.297   3.172   1.502 -0.0991  0.7945 -0.0103
 6447SOL    HW119919   0.216   3.122   1.519  0.3569  0.5386  1.5357
 6447SOL    HW219920   0.309   3.225   1.581  1.5034  0.4659 -0.0116
 6448SOL     OW19921   1.313   8.217   2.443  0.2808  0.3460 -0.2615
 6448SOL    HW119922   1.252   8.291   2.441  0.4720  0.5060 -0.1718
 6448SOL    HW219923   1.275   8.157   2.506 -0.7527 -0.3937 -1.5303
 6449SOL     OW19924   3.358   9.827   9.307  0.1004  0.4942  0.2390
 6449SOL    HW119925   3.399   9.913   9.313 -1.0964  1.0555  0.6466
 6449SOL    HW219926   3.307   9.819   9.387 -0.0326 -0.4732  0.0698
 6450SOL     OW19927   5.332   3.887   3.364 -0.0661 -0.1928 -0.7005
 6450SOL    HW119928   5.246   3.913   3.329 -0.9665 -0.1680  1.3925
 6450SOL    HW219929   5.311   3.828   3.436  1.6776  0.1614  0.1346
 6451SOL     OW19930   8.740   5.527   5.563  0.1724  0.0765  0.0773
 6451SOL    HW119931   8.776   5.485   5.485 -1.5904  1.0120 -1.3270
 6451SOL    HW219932   8.794   5.606   5.575 -0.4168  0.6807 -1.0900
 6452SOL     OW19933   6.685   7.120   4.563  0.1942  0.2907 -0.5434
 6452SOL    HW119934   6.718   7.192   4.617  0.3537  0.5022 -0.9242
 6452SOL    HW219935   6.599   7.100   4.601  1.0297 -0.7400  0.9014
 6453SOL     OW19936   3.261   8.664   2.235  0.3238 -0.3322  0.5333
 6453SOL    HW119937   3.246   8.643   2.327 -1.6029  1.1837  0.6320
 6453SOL    HW219938   3.212   8.599   2.186  0.2064 -0.3077  0.6201
 6454SOL     OW19939   2.918   7.032   7.582 -0.8817 -0.9197  0.3547
 6454SOL    HW119940   2.996   7.085   7.567  0.2910 -1.8772  2.4929
 6454SOL    HW219941   2.902   6.988   7.499 -1.1686  1.7584 -1.1027
 6455SOL     OW19942   9.628   0.625   5.948  0.1773 -0.0996  0.0343
 6455SOL    HW119943   9.654   0.682   6.020  1.9405  0.3455 -0.8952
 6455SOL    HW219944   9.657   0.671   5.869 -1.3046 -0.7818 -0.9586
 6456SOL     OW19945   2.716   8.377   0.912 -0.0909  0.2135  0.2745
 6456SOL    HW119946   2.762   8.348   0.991  0.2177  1.6951  0.6701
 6456SOL    HW219947   2.775   8.442   0.872 -1.6221  1.8880  0.5790
 6457SOL     OW19948   3.902   5.051   5.854 -0.3527  0.3955 -0.2613
 6457SOL    HW119949   3.816   5.031   5.816 -0.3913  0.4045 -0.1798
 6457SOL    HW219950   3.882   5.106   5.930 -0.2160  1.1725 -0.7830
 6458SOL     OW19951   5.272   2.952   1.100  0.4478 -0.3377  0.3394
 6458SOL    HW119952   5.327   2.881   1.131 -0.4653 -0.4185  1.8973
 6458SOL    HW219953   5.255   3.005   1.178 -1.4034 -0.1395 -0.1470
 6459SOL     OW19954   9.722   8.656   7.666  0.6492 -0.2038 -0.0455
 6459SOL    HW119955   9.711   8.561   7.666 -0.9366 -0.0430 -0.1075
 6459SOL    HW219956   9.724   8.679   7.573 -0.9571  0.0012 -0.0540
 6460SOL     OW19957   6.882   3.097   1.076 -0.2014 -0.0636 -0.1837
 6460SOL    HW119958   6.935   3.027   1.039 -1.2149 -0.0130 -1.8093
 6460SOL    HW219959   6.815   3.053   1.127  0.1090 -0.1939  0.1208
 6461SOL     OW19960   7.922   1.759   8.329  0.1667 -0.1378 -0.0674
 6461SOL    HW119961   7.893   1.850   8.321 -1.3466 -0.5990 -0.3307
 6461SOL    HW219962   8.015   1.764   8.348  0.8431  1.4310 -3.1245
 6462SOL     OW19963   9.646   6.473   1.951 -0.3571  0.1336 -0.4764
 6462SOL    HW119964   9.573   6.519   1.909 -0.4492 -0.2796 -0.7707
 6462SOL    HW219965   9.674   6.532   2.021 -0.8857  0.3609 -0.4487
 6463SOL     OW19966   4.249   1.520   5.951  0.5576  0.0285 -0.0389
 6463SOL    HW119967   4.324   1.464   5.932  0.8925  0.8579 -1.2160
 6463SOL    HW219968   4.226   1.498   6.042  3.5313  1.2390  1.1273
 6464SOL     OW19969   5.449   7.042   7.570  0.4053  0.1413 -0.0494
 6464SOL    HW119970   5.489   6.976   7.626  0.9265  1.5700  1.3444
 6464SOL    HW219971   5.367   7.002   7.540  0.0016 -0.6365  1.9065
 6465SOL     OW19972   4.220   4.696   8.388 -0.0483  0.4833  0.2457
 6465SOL    HW119973   4.307   4.690   8.348 -0.0932 -0.1455  0.2334
 6465SOL    HW219974   4.237   4.706   8.482  0.0648  2.2642  0.0851
 6466SOL     OW19975   8.190   6.733   4.789  0.3034  0.0947  0.4075
 6466SOL    HW119976   8.179   6.793   4.715 -0.4935  1.3470  1.4863
 6466SOL    HW219977   8.113   6.675   4.785 -0.0855  0.5869  0.6164
 6467SOL     OW19978   0.562   0.461   6.719  0.2019  0.0972  0.6721
 6467SOL    HW119979   0.573   0.515   6.641  0.9115 -2.1398 -0.8717
 6467SOL    HW219980   0.650   0.452   6.755  0.3327 -1.2106  0.0583
 6468SOL     OW19981   1.549   8.651   1.279  0.5629 -0.0069  0.0785
 6468SOL    HW119982   1.465   8.655   1.232  0.1055 -0.1013  0.8622
 6468SOL    HW219983   1.598   8.727   1.249 -0.1995  0.5958  0.3297
 6469SOL     OW19984   7.291   7.558   3.786  0.6791 -0.5085 -0.3990
 6469SOL    HW119985   7.308   7.649   3.762  2.2283 -1.1057 -1.7686
 6469SOL    HW219986   7.208   7.561   3.834  1.6639  1.8578  1.3740
 6470SOL     OW19987   7.775   1.146   1.363  0.9514 -0.5766  0.2090
 6470SOL    HW119988   7.814   1.232   1.349 -0.2089  0.3156  2.0503
 6470SOL    HW219989   7.753   1.144   1.456  0.3741 -2.6442  0.0943
 6471SOL     OW19990   5.808   4.150   4.234 -0.4367 -0.8550 -0.6850
 6471SOL    HW119991   5.902   4.166   4.242 -0.7793  0.8917  0.3288
 6471SOL    HW219992   5.794   4.138   4.140  0.4970  1.2414 -1.1496
 6472SOL     OW19993   9.871  -0.016   5.240  0.1975 -0.1808 -0.1605
 6472SOL    HW119994   9.945   0.030   5.201 -0.0070 -0.1091 -0.4780
 6472SOL    HW219995   9.809   0.053   5.263 -0.7238 -0.3540 -1.9359
 6473SOL     OW19996   0.178   1.216   4.549  0.4762  0.4323 -0.5297
 6473SOL    HW119997   0.208   1.280   4.485  1.0319  2.6269  1.7760
 6473SOL    HW219998   0.227   1.236   4.629 -1.0488 -1.3691  0.9849
 6474SOL     OW19999   1.378   9.091   2.716  0.0591  0.2682 -0.0465
 6474SOL    HW120000   1.464   9.085   2.757  0.1167  1.4787  0.0429
 6474SOL    HW220001   1.354   9.183   2.723  0.1258  0.6080 -2.8320
 6475SOL     OW20002   2.546   9.378   1.793 -0.2160 -0.1761  0.4758
 6475SOL    HW120003   2.601   9.345   1.722 -0.4360  0.4292  0.0095
 6475SOL    HW220004   2.579   9.466   1.810 -1.3763  0.3990 -0.1844
 6476SOL     OW20005   5.054   8.275   8.264 -0.2638 -0.1197  0.2386
 6476SOL    HW120006   5.135   8.223   8.261  0.7893  1.4751 -0.5312
 6476SOL    HW220007   4.994   8.230   8.205  0.2635 -0.9993  0.3521
 6477SOL     OW20008   5.705   3.191   5.580  0.4304  0.4669 -0.3581
 6477SOL    HW120009   5.692   3.183   5.675  0.5715 -0.9951 -0.4454
 6477SOL    HW220010   5.799   3.183   5.568  0.4386  0.9104 -0.6167
 6478SOL     OW20011   9.444   4.042   2.910  0.9215  0.0836  0.4065
 6478SOL    HW120012   9.482   4.129   2.897  0.8650  0.3323  1.7216
 6478SOL    HW220013   9.517   3.981   2.893  1.7609  0.5246  2.1329
 6479SOL     OW20014   7.858   3.934   9.607  0.0844 -0.6284 -0.0679
 6479SOL    HW120015   7.764   3.948   9.617  0.0480 -2.1990  2.6533
 6479SOL    HW220016   7.865   3.863   9.543 -0.6890 -1.5668  0.8548
 6480SOL     OW20017   0.510   5.132   9.147 -0.2340  0.7606 -0.4725
 6480SOL    HW120018   0.504   5.092   9.235 -0.6693 -0.4449 -1.0215
 6480SOL    HW220019   0.463   5.215   9.155  2.2098  2.1164  1.1770
 6481SOL     OW20020   9.129   0.634   5.930  0.1099  0.1059 -0.0138
 6481SOL    HW120021   9.103   0.592   5.848 -0.9121  2.1698 -0.8059
 6481SOL    HW220022   9.047   0.649   5.977  0.3921  1.4872  0.0789
 6482SOL     OW20023   5.519   7.240   3.082 -0.1836  1.4162  0.1203
 6482SOL    HW120024   5.579   7.180   3.126  0.2451  0.2652 -1.9173
 6482SOL    HW220025   5.576   7.297   3.030 -0.7654  1.0932 -0.8975
 6483SOL     OW20026   0.391   1.875   6.079 -0.1404  0.4348 -0.5732
 6483SOL    HW120027   0.399   1.805   6.143 -0.2592  0.3185 -0.6868
 6483SOL    HW220028   0.314   1.853   6.027 -0.8745  1.2571  0.1342
 6484SOL     OW20029   1.802   9.349   6.703 -0.9185 -0.1076 -0.1374
 6484SOL    HW120030   1.786   9.365   6.610 -1.9275  0.3600  0.1057
 6484SOL    HW220031   1.771   9.260   6.719 -1.0429 -0.0717 -0.1793
 6485SOL     OW20032   9.601   3.033   1.343 -0.0862 -0.2839 -0.1087
 6485SOL    HW120033   9.521   2.981   1.340 -0.6105  0.5641 -2.1346
 6485SOL    HW220034   9.670   2.970   1.322 -0.7348 -0.2494 -2.7109
 6486SOL     OW20035   7.048   4.309   9.604  0.1072  0.6902 -0.2297
 6486SOL    HW120036   6.985   4.340   9.670  0.6033  1.1694  0.0260
 6486SOL    HW220037   7.054   4.215   9.620 -0.2627  0.7012 -0.0087
 6487SOL     OW20038   5.134   5.837   1.675  0.2960 -0.1584 -0.1534
 6487SOL    HW120039   5.061   5.892   1.645 -1.1921 -1.8757  0.1740
 6487SOL    HW220040   5.133   5.847   1.770  1.2971  0.7434 -0.2174
 6488SOL     OW20041   8.937   6.411   1.404 -0.6476 -0.4546  0.0631
 6488SOL    HW120042   8.847   6.381   1.411 -0.9939  0.8624  1.5724
 6488SOL    HW220043   8.984   6.336   1.366 -1.5995 -2.7018  2.9764
 6489SOL     OW20044   6.424   9.674   5.141 -0.0501 -0.5856 -0.3394
 6489SOL    HW120045   6.454   9.605   5.081 -0.9582 -1.1435 -0.1747
 6489SOL    HW220046   6.381   9.626   5.212  0.6527  0.0873  0.5666
 6490SOL     OW20047   5.402   7.309   4.345 -0.1276 -0.0692 -0.1407
 6490SOL    HW120048   5.348   7.389   4.345  1.0192  0.7556 -1.3229
 6490SOL    HW220049   5.413   7.288   4.437  0.3517  1.7354  0.2581
 6491SOL     OW20050   1.602   1.389   7.746 -0.2097 -0.4554 -0.4714
 6491SOL    HW120051   1.663   1.343   7.688 -0.3494 -0.0755 -0.9213
 6491SOL    HW220052   1.655   1.459   7.785  0.3750 -1.8035  1.2672
 6492SOL     OW20053   6.148   1.531   8.070  0.5272 -0.3425 -1.0583
 6492SOL    HW120054   6.196   1.450   8.055 -1.2798 -1.4188 -1.3633
 6492SOL    HW220055   6.170   1.587   7.995  1.1043 -0.8995 -1.3043
 6493SOL     OW20056   9.257   1.031   2.203 -0.8605  0.1728 -0.0174
 6493SOL    HW120057   9.329   1.089   2.225 -0.3518 -0.6578  0.5675
 6493SOL    HW220058   9.225   1.000   2.287 -0.7276 -0.8593 -0.3347
 6494SOL     OW20059   2.862   7.287   2.598 -0.5139 -0.6686  0.0874
 6494SOL    HW120060   2.905   7.222   2.542 -1.0565 -0.2184 -0.8632
 6494SOL    HW220061   2.778   7.247   2.620 -0.5761 -0.5595  0.0435
 6495SOL     OW20062   4.235   2.235   9.782 -0.4290  0.3789  0.6584
 6495SOL    HW120063   4.292   2.263   9.710  1.0480  0.0979  1.6570
 6495SOL    HW220064   4.238   2.139   9.779 -1.0334  0.3624  0.5815
 6496SOL     OW20065   0.937   2.870   0.234  0.3667  0.0683  0.3141
 6496SOL    HW120066   1.022   2.875   0.190  0.7485  1.4443  1.1663
 6496SOL    HW220067   0.913   2.961   0.251 -1.4764 -0.2804 -0.2449
 6497SOL     OW20068   9.188   8.138   7.955  0.1064 -0.4717 -0.7141
 6497SOL    HW120069   9.217   8.156   8.044  0.0524  0.0643 -0.8044
 6497SOL    HW220070   9.234   8.202   7.901 -1.0471  0.2316 -0.8947
 6498SOL     OW20071   6.051   9.890   7.571 -0.7260 -0.6510 -0.0457
 6498SOL    HW120072   6.092   9.926   7.493  0.1577 -0.7905  0.3376
 6498SOL    HW220073   6.121   9.888   7.636 -0.3277 -4.2134 -0.3994
 6499SOL     OW20074   1.645   5.262   8.176  0.9952 -0.2636 -0.4246
 6499SOL    HW120075   1.634   5.251   8.271  1.0877  1.0456 -0.2410
 6499SOL    HW220076   1.600   5.344   8.156  2.3226  0.3087 -1.2332
 6500SOL     OW20077   6.011   7.920   7.967  0.7895 -0.1242  0.0424
 6500SOL    HW120078   6.046   7.904   8.054 -1.9515 -0.6290  1.1418
 6500SOL    HW220079   5.917   7.909   7.976  0.1929  1.8733 -2.5422
 6501SOL     OW20080   7.992   0.929   0.919  0.3225 -0.5322  0.1165
 6501SOL    HW120081   8.044   0.851   0.938  1.3115  0.0248 -0.2097
 6501SOL    HW220082   7.924   0.899   0.860 -0.4095 -1.4984  1.4072
 6502SOL     OW20083   1.491   8.442   1.073  0.4424  0.4718  0.1324
 6502SOL    HW120084   1.564   8.465   1.132  0.4013  1.2192 -0.0940
 6502SOL    HW220085   1.426   8.402   1.130  0.8197  0.2691  0.4253
 6503SOL     OW20086   0.475   1.050   4.735  0.1796 -0.0491 -0.3936
 6503SOL    HW120087   0.514   1.048   4.822  1.1395 -0.3909 -0.8111
 6503SOL    HW220088   0.402   0.989   4.740  0.2343 -0.0718  0.1727
 6504SOL     OW20089   9.044   0.302   0.442  0.0738 -0.2586 -0.2615
 6504SOL    HW120090   8.984   0.228   0.440 -1.5319  0.9851 -0.6620
 6504SOL    HW220091   9.098   0.288   0.521  0.4337 -2.2569 -0.8163
 6505SOL     OW20092   0.005   4.245   5.369  0.1659  0.0020 -0.3308
 6505SOL    HW120093   0.016   4.335   5.401 -0.4808 -0.3812  1.0672
 6505SOL    HW220094   0.043   4.245   5.281  0.7663  1.4727 -0.0892
 6506SOL     OW20095   4.255   0.091   3.643 -0.7416 -0.7360 -0.7565
 6506SOL    HW120096   4.205   0.056   3.570 -1.5020 -0.8783 -0.1837
 6506SOL    HW220097   4.190   0.107   3.711 -0.2111  0.4815 -0.5115
 6507SOL     OW20098   0.302   6.072   7.671  0.0465 -0.8215  0.3976
 6507SOL    HW120099   0.217   6.114   7.664  0.0500 -0.8804 -0.0533
 6507SOL    HW220100   0.366   6.140   7.649 -0.0055 -1.3229 -1.5472
 6508SOL     OW20101   3.814   3.969   0.401  0.1506  0.0709 -0.0268
 6508SOL    HW120102   3.907   3.974   0.381  0.4071  1.7776  1.3978
 6508SOL    HW220103   3.772   3.962   0.315  1.4440  2.3213 -0.9315
 6509SOL     OW20104   0.853   3.680   5.313  0.8680 -0.1631 -0.6862
 6509SOL    HW120105   0.800   3.742   5.264  1.2411  0.0890 -0.7754
 6509SOL    HW220106   0.875   3.727   5.394 -0.4950 -0.8917  0.1544
 6510SOL     OW20107   6.739   2.832   2.538 -0.1863 -0.0810 -0.2472
 6510SOL    HW120108   6.807   2.820   2.472  1.3452  0.3781  1.1986
 6510SOL    HW220109   6.737   2.749   2.587  0.0314  0.2603  0.3455
 6511SOL     OW20110   8.717   6.553   4.944 -0.0338 -0.2764 -0.0513
 6511SOL    HW120111   8.809   6.552   4.916  0.1560  0.2877  0.5171
 6511SOL    HW220112   8.667   6.531   4.865  0.3809  2.6542 -1.2435
 6512SOL     OW20113   9.241   3.504   4.228 -0.0592 -0.1032 -0.3221
 6512SOL    HW120114   9.235   3.580   4.170 -0.1402 -0.6172 -0.9989
 6512SOL    HW220115   9.335   3.489   4.237 -0.0525 -0.5385 -1.0215
 6513SOL     OW20116   3.003   4.838   3.784  0.2465  0.7146  0.7257
 6513SOL    HW120117   2.922   4.787   3.788 -0.8780  2.3473  0.0047
 6513SOL    HW220118   3.035   4.826   3.695  0.5604  0.4257  0.8764
 6514SOL     OW20119   9.770   1.134   9.960 -0.1640  0.1188 -0.1906
 6514SOL    HW120120   9.761   1.193   9.884 -0.1546  2.4534  1.5149
 6514SOL    HW220121   9.819   1.059   9.926 -0.1977  1.0593 -2.5026
 6515SOL     OW20122   6.009   8.040   9.037 -0.6414  0.1581 -0.2878
 6515SOL    HW120123   5.937   8.102   9.048  0.7455  1.6859  0.5895
 6515SOL    HW220124   6.046   8.029   9.124  0.8145  0.1990 -0.8726
 6516SOL     OW20125   0.346   5.817   8.034 -0.1152 -0.1400 -0.4734
 6516SOL    HW120126   0.440   5.835   8.025 -0.0934  1.3843  2.0295
 6516SOL    HW220127   0.307   5.858   7.957  1.1692  0.0901 -1.0409
 6517SOL     OW20128   1.512   8.761   0.153  0.7213 -0.5946  0.0923
 6517SOL    HW120129   1.581   8.809   0.106  0.3724 -0.0850  0.1030
 6517SOL    HW220130   1.469   8.827   0.208  0.8782 -1.1081  0.8542
 6518SOL     OW20131   8.269   0.448   1.185  0.0308  0.0126 -0.6119
 6518SOL    HW120132   8.177   0.462   1.207 -0.2166  0.2099 -1.7115
 6518SOL    HW220133   8.317   0.493   1.254 -0.6837 -0.3835  0.1658
 6519SOL     OW20134   1.163   8.754   3.792 -0.2276  0.0143  0.1578
 6519SOL    HW120135   1.120   8.687   3.845 -0.5130 -0.9156 -1.1667
 6519SOL    HW220136   1.164   8.832   3.846  0.4096 -1.1405  1.8926
 6520SOL     OW20137   9.199   8.499   9.885 -0.0703  0.7123  0.0455
 6520SOL    HW120138   9.256   8.422   9.876 -0.7032  0.2138  0.2639
 6520SOL    HW220139   9.198   8.537   9.797  0.4277  0.6020 -0.0133
 6521SOL     OW20140   5.742   1.764   1.951 -0.3725  0.1147  0.3955
 6521SOL    HW120141   5.695   1.778   2.034 -0.4449 -2.3432  0.8411
 6521SOL    HW220142   5.687   1.805   1.885 -0.9914  0.9447  1.3870
 6522SOL     OW20143   9.458   0.409   1.220 -0.0371  0.1284  0.3886
 6522SOL    HW120144   9.521   0.371   1.158  0.3982  0.2818  0.7383
 6522SOL    HW220145   9.419   0.483   1.172  0.4107  0.3427  0.3544
 6523SOL     OW20146   9.158   5.169   4.355 -0.5028 -0.1575  0.9270
 6523SOL    HW120147   9.252   5.187   4.356 -0.4618 -0.3436  2.0983
 6523SOL    HW220148   9.138   5.153   4.263  0.8892 -1.4964  0.8156
 6524SOL     OW20149   2.100   6.454   7.697 -0.2337  0.0945  0.1457
 6524SOL    HW120150   2.064   6.542   7.682  0.5032  0.5456  0.9281
 6524SOL    HW220151   2.195   6.465   7.688 -0.1774 -0.8228 -0.6417
 6525SOL     OW20152   8.681   4.541   0.160 -0.4058 -0.3793  0.2810
 6525SOL    HW120153   8.735   4.616   0.138 -2.3569  1.4327  1.3261
 6525SOL    HW220154   8.619   4.535   0.087 -1.5929  0.4004  1.1992
 6526SOL     OW20155   1.989   0.753   9.089  0.2819  0.1014  0.1324
 6526SOL    HW120156   2.041   0.735   9.167 -0.7299 -2.0750  0.3877
 6526SOL    HW220157   2.048   0.736   9.016  0.8517  0.8672  0.4012
 6527SOL     OW20158   2.898   3.839   5.589 -0.0778  0.1970 -0.0112
 6527SOL    HW120159   2.963   3.882   5.645 -0.0873 -0.7271  0.7181
 6527SOL    HW220160   2.885   3.753   5.628 -2.3596  0.6414  0.3294
 6528SOL     OW20161   7.931   3.966   5.155  0.0301  0.2968 -0.4828
 6528SOL    HW120162   7.960   4.047   5.197  1.0257 -0.9573  1.4527
 6528SOL    HW220163   7.838   3.960   5.177 -0.2385  1.2731 -1.3049
 6529SOL     OW20164   1.346   6.751   5.744  0.2154 -0.0100  0.1640
 6529SOL    HW120165   1.440   6.740   5.733  0.6472  1.3837  1.9287
 6529SOL    HW220166   1.320   6.680   5.803  0.6481  0.9139  1.5309
 6530SOL     OW20167   0.355   7.088   0.946 -0.2604 -0.0228 -0.6676
 6530SOL    HW120168   0.374   7.089   1.040 -0.5305  1.0784 -0.6121
 6530SOL    HW220169   0.318   7.175   0.928  1.3737  0.4354 -2.1112
 6531SOL     OW20170   0.123   1.056   3.807  0.5303  0.4428 -0.2392
 6531SOL    HW120171   0.043   1.069   3.858  1.6773  2.3893  1.2329
 6531SOL    HW220172   0.092   1.030   3.720 -1.7082  1.3420  0.2059
 6532SOL     OW20173   4.057   6.497   6.502  0.3390 -0.3751 -0.5430
 6532SOL    HW120174   4.108   6.526   6.427 -0.6495 -0.2814 -1.2058
 6532SOL    HW220175   3.969   6.482   6.466 -0.1776 -0.2178  0.6123
 6533SOL     OW20176   9.327   5.630   5.254 -0.1809  0.1359 -0.0679
 6533SOL    HW120177   9.288   5.686   5.320 -1.0772 -0.7357  0.1523
 6533SOL    HW220178   9.409   5.599   5.294  0.1741  1.0358 -0.0801
 6534SOL     OW20179   2.013   1.892   6.346 -0.2385 -0.1561  0.4583
 6534SOL    HW120180   2.005   1.853   6.433  1.1498 -0.5250  0.4476
 6534SOL    HW220181   1.924   1.891   6.311 -0.5626 -1.5015  1.2442
 6535SOL     OW20182   8.722   2.961   0.182 -0.2154  0.9265 -0.5177
 6535SOL    HW120183   8.627   2.963   0.194 -0.4186 -0.0395 -1.6855
 6535SOL    HW220184   8.738   3.027   0.115 -0.2578  0.2055 -1.2650
 6536SOL     OW20185   6.588   0.800   7.909  0.2687 -0.4056 -0.2887
 6536SOL    HW120186   6.626   0.844   7.833  0.8027 -0.0067  0.1970
 6536SOL    HW220187   6.589   0.866   7.979 -0.3016 -0.7346  0.0386
 6537SOL     OW20188   6.913   0.535   7.542 -0.0358 -0.0617  0.1571
 6537SOL    HW120189   6.919   0.628   7.564 -0.6003  0.6938 -2.4577
 6537SOL    HW220190   6.833   0.505   7.584 -0.8515  1.1534 -0.4901
 6538SOL     OW20191   1.191   4.282   8.729  0.0162 -0.3025 -0.2168
 6538SOL    HW120192   1.152   4.213   8.782 -0.4672 -0.0295 -0.2109
 6538SOL    HW220193   1.117   4.327   8.690  0.3229  0.2212 -0.2067
 6539SOL     OW20194   4.494   1.491   1.682  0.5032  0.3537  0.1274
 6539SOL    HW120195   4.549   1.453   1.750 -0.1253  0.7699  0.8813
 6539SOL    HW220196   4.408   1.449   1.694  0.3348  0.5706 -0.2855
 6540SOL     OW20197   2.831   4.660   9.558  0.3064 -0.0941  0.5747
 6540SOL    HW120198   2.742   4.632   9.540  1.0781 -0.7919 -2.9072
 6540SOL    HW220199   2.869   4.590   9.610 -0.5973 -0.7469  0.3718
 6541SOL     OW20200   3.785   8.007   4.045  0.2398 -0.0121 -0.2014
 6541SOL    HW120201   3.869   8.018   4.000  0.2515 -0.5330 -0.3165
 6541SOL    HW220202   3.787   8.071   4.116  1.0088 -0.4591  0.1965
 6542SOL     OW20203   3.366   1.618   6.739 -0.2891 -0.8918 -0.1244
 6542SOL    HW120204   3.420   1.640   6.815  1.6438  2.7444 -2.2489
 6542SOL    HW220205   3.419   1.555   6.689 -0.2706 -1.1039  0.1620
 6543SOL     OW20206   8.556   0.902   0.933  0.1356  0.0303 -0.4310
 6543SOL    HW120207   8.497   0.865   0.867 -0.3184  3.2604 -1.9964
 6543SOL    HW220208   8.527   0.862   1.015 -1.8503 -1.2204 -1.6519
 6544SOL     OW20209   2.130   7.318   9.554  0.1554  0.1165  0.0822
 6544SOL    HW120210   2.043   7.350   9.532  0.5770  1.0464 -0.2611
 6544SOL    HW220211   2.186   7.396   9.553  0.9173 -0.4001  0.7063
 6545SOL     OW20212   3.191   8.127   2.651 -0.0225 -0.2143  0.0840
 6545SOL    HW120213   3.254   8.154   2.718  1.0252 -1.5463 -0.3487
 6545SOL    HW220214   3.182   8.033   2.662 -0.0410 -0.4190 -1.4836
 6546SOL     OW20215   1.351   2.382   2.232 -0.4908  0.0418  0.4065
 6546SOL    HW120216   1.360   2.448   2.300 -0.0880 -0.6971  1.0912
 6546SOL    HW220217   1.270   2.405   2.186 -1.0224  0.2880  1.4398
 6547SOL     OW20218   5.036   5.989   2.132  0.2262 -0.2289 -0.0821
 6547SOL    HW120219   4.998   6.069   2.097  2.3729  1.4503  1.1260
 6547SOL    HW220220   4.993   5.976   2.216  0.2429 -0.0526 -0.0474
 6548SOL     OW20221   7.850   9.157   7.052 -0.3540  0.3327 -0.0823
 6548SOL    HW120222   7.908   9.187   6.983 -0.0313 -0.7198 -0.2916
 6548SOL    HW220223   7.772   9.125   7.007 -1.2150  1.9432  0.2104
 6549SOL     OW20224   5.924   6.328   6.950 -0.8036  0.5017  0.3720
 6549SOL    HW120225   5.965   6.241   6.946 -1.4046  0.2347 -0.1216
 6549SOL    HW220226   5.930   6.361   6.860  1.0135  1.7337  0.8892
 6550SOL     OW20227   9.201   7.178   2.886  0.0729 -0.4337 -0.1667
 6550SOL    HW120228   9.200   7.083   2.899  2.5790 -0.7097 -1.4207
 6550SOL    HW220229   9.165   7.214   2.968 -0.3477 -2.4336  0.5683
 6551SOL     OW20230   5.138   3.485   3.279  0.5126  0.1549 -0.1833
 6551SOL    HW120231   5.064   3.517   3.331  0.5242 -0.5320  0.2708
 6551SOL    HW220232   5.196   3.444   3.344  0.6624 -0.4663 -0.7034
 6552SOL     OW20233   0.317   1.503   0.757  0.1426 -0.1736  0.1566
 6552SOL    HW120234   0.261   1.434   0.721  1.9951 -2.4125  1.3193
 6552SOL    HW220235   0.406   1.474   0.738  1.0180  2.0944  0.4632
 6553SOL     OW20236   2.676   4.767   2.857  0.1955  0.1097 -0.0295
 6553SOL    HW120237   2.746   4.792   2.797  0.8129 -1.6187 -0.0917
 6553SOL    HW220238   2.690   4.673   2.873 -1.0356  0.1248  1.3865
 6554SOL     OW20239   4.790   1.656   4.925  0.3231 -0.0969 -0.1536
 6554SOL    HW120240   4.698   1.628   4.925  0.5511 -0.9462 -1.6124
 6554SOL    HW220241   4.793   1.729   4.863  0.3559  1.0056  1.1124
 6555SOL     OW20242   2.701   2.165   2.249 -0.6252  0.3827 -0.1445
 6555SOL    HW120243   2.673   2.127   2.166 -0.0025 -3.2432  1.1429
 6555SOL    HW220244   2.793   2.139   2.258 -0.9986 -0.3875  2.1843
 6556SOL     OW20245   3.842   5.366   3.333  0.3899  0.0107 -0.3223
 6556SOL    HW120246   3.834   5.423   3.409 -0.3541  0.7083 -0.9058
 6556SOL    HW220247   3.936   5.366   3.313  0.4769  0.5404  0.0543
 6557SOL     OW20248   4.051   1.764   7.644 -0.5173  0.3804  0.2434
 6557SOL    HW120249   4.088   1.850   7.626 -1.0470  0.8609  1.3406
 6557SOL    HW220250   3.956   1.778   7.645 -0.6212 -0.2687  0.1509
 6558SOL     OW20251   1.401   9.527   2.289 -1.2548  0.4370 -0.5733
 6558SOL    HW120252   1.390   9.447   2.341  1.4558 -0.0301 -0.5728
 6558SOL    HW220253   1.375   9.502   2.201  0.2279 -0.7380 -0.7289
 6559SOL     OW20254   6.068   2.758   9.620  0.1194  0.3773  0.4206
 6559SOL    HW120255   6.135   2.716   9.566 -0.5738 -0.2419  0.0147
 6559SOL    HW220256   6.007   2.688   9.641 -1.5486  1.3320 -1.0035
 6560SOL     OW20257   6.457   6.143   9.095  0.1093  0.2993 -0.3760
 6560SOL    HW120258   6.489   6.074   9.037  0.6187  0.0591  0.1830
 6560SOL    HW220259   6.525   6.152   9.162  0.0090  1.2852 -0.3904
 6561SOL     OW20260   1.605   4.577   4.281  0.6217  0.0586 -0.3527
 6561SOL    HW120261   1.674   4.621   4.233  2.4725 -0.8017  1.3495
 6561SOL    HW220262   1.617   4.606   4.372 -2.0806  0.8468 -0.1506
 6562SOL     OW20263   5.032   2.518   6.769 -0.2190 -0.3150 -0.2041
 6562SOL    HW120264   5.045   2.473   6.852  0.9442  1.7203  0.8017
 6562SOL    HW220265   5.121   2.528   6.734 -0.3212  1.8199  0.0148
 6563SOL     OW20266   0.464   1.514   1.494 -0.9980 -0.0063 -0.5204
 6563SOL    HW120267   0.377   1.552   1.483 -0.6525  0.8788 -0.2739
 6563SOL    HW220268   0.521   1.569   1.440 -0.4605 -0.0575 -0.0082
 6564SOL     OW20269   8.663   0.870   0.338 -0.6911 -0.1328 -0.5696
 6564SOL    HW120270   8.728   0.819   0.291  0.5295 -0.7185  1.6013
 6564SOL    HW220271   8.653   0.950   0.287  1.2979 -0.2816 -1.2741
 6565SOL     OW20272   5.261   7.085   5.916 -0.3458  0.1917 -0.1302
 6565SOL    HW120273   5.207   7.095   5.994 -0.6662  1.5829 -0.4922
 6565SOL    HW220274   5.210   7.127   5.847  0.5383  0.2009 -0.7914
 6566SOL     OW20275   3.216   7.510   9.016  0.3984  0.4486 -0.3781
 6566SOL    HW120276   3.177   7.592   8.985 -1.6442 -0.2759  0.0967
 6566SOL    HW220277   3.310   7.525   9.010  0.0934  2.6525 -0.7623
 6567SOL     OW20278   1.567   1.157   9.349 -0.4224 -0.2657  0.7733
 6567SOL    HW120279   1.586   1.220   9.279  0.5550  0.4598  1.6694
 6567SOL    HW220280   1.491   1.192   9.394 -0.8525 -0.5634  0.2849
 6568SOL     OW20281  -0.011   7.562   1.874 -1.1258 -0.1799 -0.2073
 6568SOL    HW120282  -0.055   7.476   1.869  0.9457 -1.3879  1.0983
 6568SOL    HW220283   0.071   7.549   1.827  0.4634  0.2108  2.3335
 6569SOL     OW20284   8.041   9.311   1.907  0.2480 -0.3183  0.0445
 6569SOL    HW120285   8.022   9.399   1.938 -1.7067  0.2894 -2.5734
 6569SOL    HW220286   8.126   9.319   1.864  0.0311  0.3151 -0.2717
 6570SOL     OW20287   2.370   9.007   9.391  0.4474 -0.0683  0.4620
 6570SOL    HW120288   2.311   8.932   9.382 -0.0993  0.3393  0.5599
 6570SOL    HW220289   2.326   9.063   9.455  0.5979  0.5753  0.0043
 6571SOL     OW20290   8.306   6.030   7.794  0.1229 -0.1644 -0.1504
 6571SOL    HW120291   8.344   6.056   7.877  0.3973 -0.5987 -0.1389
 6571SOL    HW220292   8.316   5.935   7.791 -1.3953 -0.3579  0.0696
 6572SOL     OW20293   0.114   3.648   3.947 -0.6779  0.0146  0.2822
 6572SOL    HW120294   0.162   3.712   3.999  0.7829  1.0825 -2.1925
 6572SOL    HW220295   0.170   3.632   3.871 -3.6374  0.3147 -2.1595
 6573SOL     OW20296   9.336   5.725   4.977  0.3932 -0.3120 -0.1221
 6573SOL    HW120297   9.327   5.713   5.071 -1.7888 -1.6216 -0.4384
 6573SOL    HW220298   9.342   5.636   4.942 -0.3527  0.1009 -1.3369
 6574SOL     OW20299   5.848   9.388   6.011 -0.1242 -0.4123  0.2475
 6574SOL    HW120300   5.864   9.424   5.924 -2.2043  1.3817  0.5223
 6574SOL    HW220301   5.876   9.458   6.070 -0.5302 -0.8321  0.9458
 6575SOL     OW20302   6.564   5.946   8.912  0.3582 -0.2969 -0.1876
 6575SOL    HW120303   6.635   5.883   8.921  1.3358  0.8607  0.5833
 6575SOL    HW220304   6.495   5.899   8.866  0.7352 -2.1661  1.0436
 6576SOL     OW20305   4.411   4.803   7.558  0.1931  0.5479  0.6020
 6576SOL    HW120306   4.457   4.728   7.595 -1.9696 -0.6276  1.0942
 6576SOL    HW220307   4.417   4.791   7.463  1.0187  0.5260  0.6521
 6577SOL     OW20308   3.113   0.393   3.256  0.5663 -0.1686 -0.2009
 6577SOL    HW120309   3.027   0.357   3.278  1.0172 -0.8378  0.5193
 6577SOL    HW220310   3.174   0.320   3.270  1.1772  0.0818 -1.3893
 6578SOL     OW20311   6.316   9.321   8.726 -0.1865  0.3108 -0.5470
 6578SOL    HW120312   6.390   9.290   8.778 -0.2433  0.5216 -0.3365
 6578SOL    HW220313   6.239   9.293   8.775 -0.2395  0.9915 -0.2207
 6579SOL     OW20314   7.354   9.698   9.954  0.2191 -0.0493  0.1064
 6579SOL    HW120315   7.425   9.736   9.902 -1.5913  0.2801 -2.2951
 6579SOL    HW220316   7.281   9.758   9.943 -0.5956 -0.5226  2.2728
 6580SOL     OW20317   8.781   1.340   0.112  0.0269  0.1707 -0.3489
 6580SOL    HW120318   8.737   1.280   0.173 -0.3555  0.0055 -0.7824
 6580SOL    HW220319   8.711   1.372   0.055  0.3249  0.6006 -0.4766
 6581SOL     OW20320   5.525   4.866   9.025  0.9312  0.2880 -0.4272
 6581SOL    HW120321   5.449   4.838   8.974 -0.7741  0.5255  1.8407
 6581SOL    HW220322   5.598   4.861   8.964 -0.9029  0.1331 -2.7386
 6582SOL     OW20323   2.980   2.840   7.514  0.1652 -1.0428 -0.2379
 6582SOL    HW120324   3.055   2.824   7.572  1.1139  0.3870 -0.9888
 6582SOL    HW220325   2.913   2.878   7.570  0.1374 -1.9439  0.3614
 6583SOL     OW20326   7.562   9.524   9.016  0.4169  0.3917  0.6407
 6583SOL    HW120327   7.508   9.575   8.956  0.3605  0.6287  0.8927
 6583SOL    HW220328   7.517   9.529   9.100  1.3440  1.4596  1.1087
 6584SOL     OW20329   0.903   7.546   5.954 -0.2491 -0.6296  0.1701
 6584SOL    HW120330   0.931   7.631   5.989 -0.5934 -0.1550 -0.6687
 6584SOL    HW220331   0.832   7.519   6.012 -0.0144 -0.4390  0.5554
 6585SOL     OW20332   2.291   6.689   8.527  0.3015 -0.9534  0.2773
 6585SOL    HW120333   2.243   6.613   8.560  1.2463 -2.2951 -1.2737
 6585SOL    HW220334   2.235   6.724   8.457  0.4277 -0.9491  0.1797
 6586SOL     OW20335   2.225   9.856   6.116 -0.1118  0.4277  0.1333
 6586SOL    HW120336   2.176   9.792   6.065 -1.9921  1.0809  1.0357
 6586SOL    HW220337   2.206   9.834   6.207  0.3424  1.4360  0.4874
 6587SOL     OW20338   7.271   4.749   8.064 -0.0022  0.5995  0.1455
 6587SOL    HW120339   7.344   4.764   8.123 -0.7671  1.4764  0.8896
 6587SOL    HW220340   7.220   4.830   8.066 -0.2775  0.5105 -1.4139
 6588SOL     OW20341   2.299   3.184   0.595 -0.0332 -0.2483 -0.4346
 6588SOL    HW120342   2.264   3.228   0.518  0.6581 -2.6606 -2.2517
 6588SOL    HW220343   2.222   3.146   0.638 -0.1485 -1.5597 -1.7518
 6589SOL     OW20344   0.166   9.714   7.801 -0.0239 -0.0359  0.4740
 6589SOL    HW120345   0.169   9.660   7.880 -0.1181 -0.7281  0.0157
 6589SOL    HW220346   0.081   9.757   7.805  0.4145  0.7853  1.2918
 6590SOL     OW20347   5.409   2.143   9.581  0.1498 -0.6793  0.0199
 6590SOL    HW120348   5.430   2.051   9.567  0.7308 -0.4518 -0.6212
 6590SOL    HW220349   5.358   2.169   9.505 -0.1238 -0.5017  0.2596
 6591SOL     OW20350   1.241   7.753   1.630  0.1875  0.1185 -0.2935
 6591SOL    HW120351   1.274   7.840   1.651  0.1502  0.1283 -0.2731
 6591SOL    HW220352   1.307   7.693   1.663  0.4378  0.1535 -0.7251
 6592SOL     OW20353   6.410   2.526   8.870  0.2033  0.1665  0.3885
 6592SOL    HW120354   6.449   2.439   8.859  1.2885  0.7633 -0.6942
 6592SOL    HW220355   6.367   2.543   8.786  0.6595  1.0009  0.3212
 6593SOL     OW20356   5.666   0.187   0.768  0.4536 -0.3994 -0.1765
 6593SOL    HW120357   5.575   0.161   0.751 -0.6774  1.3050  2.6004
 6593SOL    HW220358   5.686   0.151   0.854  0.7858  2.8364  1.2356
 6594SOL     OW20359   5.660   1.768   2.921 -0.1602 -0.4967 -0.2797
 6594SOL    HW120360   5.700   1.710   2.856  0.4546 -1.1962  0.6949
 6594SOL    HW220361   5.733   1.795   2.977 -0.3821  1.4506 -0.8535
 6595SOL     OW20362   2.252   2.859   8.152  0.3324  0.2005  0.3115
 6595SOL    HW120363   2.283   2.811   8.229 -0.0451 -1.3106 -0.4484
 6595SOL    HW220364   2.234   2.791   8.087 -1.1058  1.3048 -0.5002
 6596SOL     OW20365   7.232   1.135   4.307  0.2778 -0.1217 -0.4987
 6596SOL    HW120366   7.154   1.080   4.320  0.0610 -0.1178 -1.7442
 6596SOL    HW220367   7.206   1.198   4.241  0.9347  0.7184  0.0268
 6597SOL     OW20368   8.647   0.809   3.719 -0.0317  0.1931  0.1562
 6597SOL    HW120369   8.720   0.758   3.754 -0.0766  1.0774  1.6135
 6597SOL    HW220370   8.669   0.900   3.741 -0.4727  0.7165 -1.4226
 6598SOL     OW20371   6.481   8.163   8.469  0.4311 -0.2252 -0.2833
 6598SOL    HW120372   6.491   8.088   8.526 -2.3109 -0.0708  0.5570
 6598SOL    HW220373   6.459   8.125   8.383 -0.3591 -0.4108 -0.0053
 6599SOL     OW20374   9.006   2.594   0.875 -0.0888 -0.2153  0.1366
 6599SOL    HW120375   8.954   2.533   0.823 -1.8015  3.4343 -2.8875
 6599SOL    HW220376   8.975   2.582   0.965  0.4667 -4.3448 -0.0409
 6600SOL     OW20377   9.236   0.379   1.895  0.0484  0.0879  0.3858
 6600SOL    HW120378   9.145   0.406   1.898  0.1911  0.7397 -0.6771
 6600SOL    HW220379   9.247   0.321   1.971 -1.3927 -0.4781  0.1848
 6601SOL     OW20380   8.248   2.058   0.955  0.1728 -0.0013 -0.5478
 6601SOL    HW120381   8.244   2.114   1.032 -1.4654 -1.1615  0.2772
 6601SOL    HW220382   8.175   2.088   0.900 -0.5675 -1.1107 -0.2118
 6602SOL     OW20383   0.606   2.810   7.769 -0.3550 -0.1072  0.6828
 6602SOL    HW120384   0.565   2.732   7.806 -2.2051 -0.1260 -1.2169
 6602SOL    HW220385   0.532   2.863   7.739  0.9751  0.6667 -1.4067
 6603SOL     OW20386   3.493   2.343   8.876  0.4030 -0.1346 -0.6101
 6603SOL    HW120387   3.415   2.382   8.838  1.5373  1.1926 -1.7109
 6603SOL    HW220388   3.535   2.297   8.802  0.0004 -2.0218  0.2676
 6604SOL     OW20389   7.348   0.642   7.094 -0.9214 -0.1429 -0.4048
 6604SOL    HW120390   7.437   0.648   7.060 -0.9667  1.4679 -0.3042
 6604SOL    HW220391   7.355   0.582   7.169 -0.5631 -2.5730 -2.2715
 6605SOL     OW20392   4.480   8.984   3.301  0.3362 -0.2309 -0.3619
 6605SOL    HW120393   4.555   8.936   3.265 -0.1270 -0.7189 -0.6760
 6605SOL    HW220394   4.427   9.006   3.225 -0.3123 -0.6986 -0.0508
 6606SOL     OW20395   2.698   2.864   0.639 -0.3062  0.6876  0.1526
 6606SOL    HW120396   2.739   2.824   0.562  0.6491  0.3649  0.8104
 6606SOL    HW220397   2.654   2.942   0.604 -0.9343 -0.1028 -0.9089
 6607SOL     OW20398   0.216   3.810   7.847 -0.0776  0.3124  1.0078
 6607SOL    HW120399   0.159   3.749   7.801  0.0088  0.7049  0.3674
 6607SOL    HW220400   0.289   3.756   7.878  1.6377  0.5260 -2.2653
 6608SOL     OW20401   4.577   8.738   4.334 -0.5153  0.4774 -0.0211
 6608SOL    HW120402   4.559   8.656   4.380  0.8815  0.5299  0.6782
 6608SOL    HW220403   4.639   8.714   4.265  0.6572  1.0552  0.7832
 6609SOL     OW20404   7.439   8.354   5.226  0.3500  0.1404 -0.5697
 6609SOL    HW120405   7.482   8.342   5.311  1.4704 -0.0817 -1.1469
 6609SOL    HW220406   7.483   8.292   5.167 -0.0622  0.6438 -1.4342
 6610SOL     OW20407   1.004   5.112   0.102  0.1709 -0.2494  0.4175
 6610SOL    HW120408   0.927   5.080   0.150  0.4631  1.0588  1.8305
 6610SOL    HW220409   1.060   5.150   0.169  3.2361 -3.2252 -0.1647
 6611SOL     OW20410   4.281   1.245   6.958  0.1004  0.0564 -0.2945
 6611SOL    HW120411   4.337   1.250   7.036  0.8357  1.4245 -0.8704
 6611SOL    HW220412   4.209   1.305   6.976  0.4807  0.6778 -0.8224
 6612SOL     OW20413   5.837   8.424   7.279 -0.0992  0.1500 -0.4434
 6612SOL    HW120414   5.845   8.333   7.252 -0.4808 -0.1802  0.5136
 6612SOL    HW220415   5.816   8.420   7.372 -0.3664  1.2141 -0.4423
 6613SOL     OW20416   1.747   7.016   7.054 -0.4175  0.3505  0.0251
 6613SOL    HW120417   1.725   6.959   6.980  3.6199 -1.5381 -0.0171
 6613SOL    HW220418   1.771   7.099   7.014  0.5021 -0.2426 -0.6956
 6614SOL     OW20419   2.491   7.496   0.545  0.4596 -0.3690  0.0536
 6614SOL    HW120420   2.455   7.437   0.480  0.7929 -0.4072 -0.1010
 6614SOL    HW220421   2.482   7.583   0.507  0.6155 -0.3876 -0.0300
 6615SOL     OW20422   5.427   9.047   5.240  0.2845  0.3160  0.4918
 6615SOL    HW120423   5.437   9.133   5.199 -0.4274  0.9007  1.5027
 6615SOL    HW220424   5.339   9.048   5.277  1.0266 -0.0309  2.3628
 6616SOL     OW20425   3.898   7.278   4.551 -0.1113  0.3401  0.2584
 6616SOL    HW120426   3.908   7.277   4.646 -1.3106 -1.0685  0.4193
 6616SOL    HW220427   3.973   7.329   4.519  0.8070  0.0942  1.8930
 6617SOL     OW20428   8.926   7.479   0.749 -0.4244  0.3409 -0.4023
 6617SOL    HW120429   8.982   7.556   0.744 -1.9698  1.4985 -0.7278
 6617SOL    HW220430   8.846   7.510   0.792 -0.6758 -1.3531  0.4646
 6618SOL     OW20431   4.605   9.133   7.342 -0.9425  0.1128 -0.1281
 6618SOL    HW120432   4.546   9.181   7.400 -0.9888  1.0889 -0.9545
 6618SOL    HW220433   4.585   9.165   7.254 -1.4560 -1.9302 -0.8296
 6619SOL     OW20434   1.730   4.109   5.739 -0.4985 -0.4382  0.3100
 6619SOL    HW120435   1.697   4.145   5.821  1.2122  1.5054  0.2285
 6619SOL    HW220436   1.825   4.108   5.750 -0.2322 -0.0983 -1.6269
 6620SOL     OW20437   9.965   8.538   5.321 -0.4363  0.2703  0.2960
 6620SOL    HW120438   9.956   8.448   5.288  2.6290 -0.4988  1.2260
 6620SOL    HW220439   9.885   8.553   5.371 -1.0794 -1.9136  0.0444
 6621SOL     OW20440   4.050   4.001   1.182  0.1464  0.0859 -0.0670
 6621SOL    HW120441   3.997   4.046   1.115  0.3128  0.8412  0.2967
 6621SOL    HW220442   4.127   4.056   1.192 -0.3466  0.5476  1.4839
 6622SOL     OW20443   5.545   9.703   6.209  0.2829 -0.3430  0.1434
 6622SOL    HW120444   5.632   9.686   6.242 -0.1182 -2.0383  0.4302
 6622SOL    HW220445   5.486   9.680   6.281 -0.4506 -0.6964 -0.5428
 6623SOL     OW20446   3.877   1.364   2.335  0.0365 -0.2968  0.1373
 6623SOL    HW120447   3.795   1.411   2.320  0.0541 -0.7833 -1.6757
 6623SOL    HW220448   3.933   1.427   2.381 -0.8865  0.4853  0.2181
 6624SOL     OW20449   9.325   1.836   4.549 -0.2758  0.2490 -0.5793
 6624SOL    HW120450   9.357   1.926   4.556  0.1740  0.0033  0.9384
 6624SOL    HW220451   9.307   1.810   4.639  1.2947 -1.7794 -0.7740
 6625SOL     OW20452   5.627   4.010   5.790  0.0108  0.4243 -0.2045
 6625SOL    HW120453   5.655   3.976   5.874 -0.8994  0.7136  0.2332
 6625SOL    HW220454   5.531   4.007   5.794 -0.0569  1.2791 -0.8730
 6626SOL     OW20455   9.993   4.828   7.967  0.3723  0.6042 -0.2709
 6626SOL    HW120456   9.933   4.901   7.953 -0.2081  0.4820  1.3684
 6626SOL    HW220457  10.001   4.821   8.062  0.3627 -1.4919 -0.3736
 6627SOL     OW20458   4.381   7.712   3.070 -0.2596  0.0972 -0.0928
 6627SOL    HW120459   4.357   7.739   2.982  1.5622 -0.2451 -0.7488
 6627SOL    HW220460   4.438   7.636   3.057  0.8080  0.6028  1.3132
 6628SOL     OW20461   1.393   8.992   2.349  0.0828 -0.0279  0.1392
 6628SOL    HW120462   1.465   8.932   2.329  1.1007  0.7090  1.4889
 6628SOL    HW220463   1.349   9.004   2.265  1.7169 -0.2547 -0.7945
 6629SOL     OW20464   6.307   8.010   7.625  0.0026 -0.7070  0.8892
 6629SOL    HW120465   6.279   7.976   7.710  1.5091 -2.3007  0.8072
 6629SOL    HW220466   6.317   7.931   7.570  1.4948  0.0509  0.0065
 6630SOL     OW20467   2.371   3.211   8.485 -0.2991  0.7006  0.2263
 6630SOL    HW120468   2.419   3.290   8.510  0.0471  0.8035 -0.7287
 6630SOL    HW220469   2.404   3.144   8.544 -0.9091  1.3469  1.3463
 6631SOL     OW20470   7.374   1.612   2.659  0.5227 -0.4448 -0.0616
 6631SOL    HW120471   7.450   1.580   2.707 -0.2718 -1.3293  0.6530
 6631SOL    HW220472   7.300   1.563   2.695 -0.5832  1.2869  0.1485
 6632SOL     OW20473   0.535   1.922   6.561 -0.1306  0.2114 -0.0856
 6632SOL    HW120474   0.578   1.931   6.476  0.0599  0.1707  0.0059
 6632SOL    HW220475   0.506   1.830   6.563  2.6712 -0.7529  1.1958
 6633SOL     OW20476   9.563   7.406   3.051 -0.2855  0.3047  0.2400
 6633SOL    HW120477   9.478   7.363   3.042  1.2375 -3.1223  0.5720
 6633SOL    HW220478   9.593   7.420   2.962 -0.3202 -0.4852  0.0967
 6634SOL     OW20479   0.293   0.560   9.431  0.0298 -0.6490 -0.1367
 6634SOL    HW120480   0.274   0.537   9.522  1.1358 -2.0574 -0.2334
 6634SOL    HW220481   0.303   0.476   9.386  0.2124  0.0264 -1.4004
 6635SOL     OW20482   7.182   4.421   2.208 -0.4910 -0.0737  0.2733
 6635SOL    HW120483   7.171   4.328   2.191 -0.5031  0.1366 -0.9286
 6635SOL    HW220484   7.100   4.448   2.251 -0.6334 -0.5375  0.2933
 6636SOL     OW20485   9.759   6.218   8.733 -0.2946 -0.0883 -0.0591
 6636SOL    HW120486   9.709   6.139   8.714  1.9917 -1.8060  0.6523
 6636SOL    HW220487   9.765   6.220   8.829 -0.2724  0.9308 -0.0714
 6637SOL     OW20488   5.060   0.685   0.984 -0.1955 -0.2458 -0.0988
 6637SOL    HW120489   5.055   0.602   0.935 -0.6207  0.7290 -1.7866
 6637SOL    HW220490   4.970   0.718   0.984  0.0491  0.4370  0.1711
 6638SOL     OW20491   8.373   0.289   2.553  0.3730 -0.0034  0.5222
 6638SOL    HW120492   8.303   0.316   2.612  0.6602 -0.7945  1.2381
 6638SOL    HW220493   8.327   0.261   2.473  0.0636  2.6502 -0.3284
 6639SOL     OW20494   2.251   7.793   8.669  0.1496  0.1225 -0.1435
 6639SOL    HW120495   2.210   7.740   8.737  2.2630 -2.8993 -1.0178
 6639SOL    HW220496   2.343   7.796   8.693  0.5783  0.8356 -1.7531
 6640SOL     OW20497   0.685   3.834   5.123 -0.4102 -0.3523  0.1902
 6640SOL    HW120498   0.661   3.854   5.033  1.2492  1.0508  0.0179
 6640SOL    HW220499   0.691   3.919   5.167  0.6812 -0.8641  1.1084
 6641SOL     OW20500   1.868   3.521   1.919  0.1317 -0.7561 -0.7328
 6641SOL    HW120501   1.926   3.592   1.946 -1.5434  1.4450 -2.5966
 6641SOL    HW220502   1.810   3.508   1.994  1.1274 -0.9567  0.0263
 6642SOL     OW20503   6.546   0.396   4.031 -0.4261  0.8351  0.3248
 6642SOL    HW120504   6.480   0.327   4.041  0.8597 -0.1605  2.5274
 6642SOL    HW220505   6.533   0.428   3.941 -1.1750 -2.1717 -0.7733
 6643SOL     OW20506   6.949   9.673   0.049 -0.0288 -0.0553 -0.3877
 6643SOL    HW120507   6.916   9.639  -0.034 -1.5828 -1.2036  0.6493
 6643SOL    HW220508   6.948   9.598   0.109 -3.0077  1.5102  1.8288
 6644SOL     OW20509   6.991   9.613   1.759  0.3476  0.4369  0.0061
 6644SOL    HW120510   6.965   9.523   1.778 -0.3997  0.9684  1.6822
 6644SOL    HW220511   7.075   9.625   1.803  1.2159  0.1436 -1.4850
 6645SOL     OW20512   3.571   9.730   3.249  0.0545  0.0363  0.0271
 6645SOL    HW120513   3.583   9.695   3.161  0.2257  0.5837 -0.1750
 6645SOL    HW220514   3.520   9.664   3.295 -0.4574 -0.0338 -0.6321
 6646SOL     OW20515   7.169   6.242   3.842 -0.0204  0.4325 -0.2005
 6646SOL    HW120516   7.204   6.158   3.811  2.3512  0.7541  1.3427
 6646SOL    HW220517   7.210   6.308   3.786 -1.8334  0.6373 -1.3743
 6647SOL     OW20518   7.332   1.967   6.826 -0.0927 -0.2060  0.2141
 6647SOL    HW120519   7.392   2.023   6.876  0.4506 -1.2319  0.7477
 6647SOL    HW220520   7.255   1.960   6.882  0.5231 -1.3703  0.9588
 6648SOL     OW20521   3.556   8.205   0.831 -0.5015 -0.0072 -0.0940
 6648SOL    HW120522   3.639   8.238   0.867  1.0214 -1.9023 -1.6336
 6648SOL    HW220523   3.526   8.275   0.773 -0.4137  1.0099  1.0465
 6649SOL     OW20524   8.605   8.583   5.972  0.6171 -0.4147 -0.1270
 6649SOL    HW120525   8.597   8.644   6.045 -0.1276 -1.0058  0.2967
 6649SOL    HW220526   8.621   8.639   5.896  0.5364  0.2677  0.3480
 6650SOL     OW20527   1.645   4.285   6.011  0.5295  0.2580  0.1543
 6650SOL    HW120528   1.572   4.289   6.074  0.3391  0.0025 -0.0489
 6650SOL    HW220529   1.708   4.225   6.050 -0.1263 -0.8526 -0.4513
 6651SOL     OW20530   4.223   7.271   0.029  0.0340 -0.1739  0.7056
 6651SOL    HW120531   4.156   7.204   0.016  0.0696  0.0696 -0.9940
 6651SOL    HW220532   4.184   7.332   0.092 -0.1517 -1.5297  1.9636
 6652SOL     OW20533   0.751   8.214   4.122  0.3682  0.1835  0.1638
 6652SOL    HW120534   0.798   8.170   4.193  1.9872  1.0145 -0.3325
 6652SOL    HW220535   0.745   8.149   4.053 -0.7721 -0.4684  0.8313
 6653SOL     OW20536   1.090   9.317   5.941 -0.5650 -0.1834 -0.1201
 6653SOL    HW120537   1.157   9.323   6.009 -0.3317  2.7315 -0.4801
 6653SOL    HW220538   1.072   9.223   5.933  1.3946 -0.8261  1.9736
 6654SOL     OW20539   3.884   2.173   7.722 -0.1368 -0.3525  0.4210
 6654SOL    HW120540   3.909   2.171   7.630  0.8200  3.0934  0.4753
 6654SOL    HW220541   3.960   2.139   7.769 -0.2208 -1.1157  0.0166
 6655SOL     OW20542   0.473   2.042   4.708 -0.6347 -0.1758  0.5365
 6655SOL    HW120543   0.518   1.989   4.643 -0.0244 -0.2078  0.9796
 6655SOL    HW220544   0.382   2.013   4.704 -1.2017  1.6268 -2.1375
 6656SOL     OW20545   1.156   2.951   9.028  0.2002 -0.0917  0.5237
 6656SOL    HW120546   1.092   2.901   9.078 -0.1468 -0.1534  0.0269
 6656SOL    HW220547   1.104   3.004   8.968  0.6074 -0.0767  0.1729
 6657SOL     OW20548   5.324   0.455   7.505  0.3656 -0.0111  0.2729
 6657SOL    HW120549   5.342   0.362   7.493  0.8199  0.0705  0.2863
 6657SOL    HW220550   5.326   0.467   7.600  2.0793  0.3316  0.2341
 6658SOL     OW20551   5.539   1.182   7.723  0.1358 -0.1250 -0.1009
 6658SOL    HW120552   5.528   1.261   7.775 -0.8737 -0.3429  0.0273
 6658SOL    HW220553   5.589   1.122   7.779  0.9202  0.4246 -0.2078
 6659SOL     OW20554   5.473   3.239   5.416 -0.4389  0.2889 -0.9438
 6659SOL    HW120555   5.557   3.210   5.450  0.0007 -0.1447 -2.3070
 6659SOL    HW220556   5.408   3.187   5.464  0.2573 -1.8431 -2.1498
 6660SOL     OW20557   0.435   5.893   6.838  0.3784 -0.4337  0.4758
 6660SOL    HW120558   0.528   5.875   6.827  0.0885 -0.8289 -1.8752
 6660SOL    HW220559   0.420   5.973   6.789 -0.4998 -0.2678  0.9895
 6661SOL     OW20560   4.315   4.278   7.326  0.0350 -0.4419 -0.3832
 6661SOL    HW120561   4.306   4.323   7.242 -0.8306  0.0615 -0.0412
 6661SOL    HW220562   4.340   4.347   7.387 -1.2750 -0.3968  0.1436
 6662SOL     OW20563   8.336   7.522   2.992 -0.6808 -0.3477 -0.4688
 6662SOL    HW120564   8.365   7.457   2.928 -0.2845  0.2506 -0.9106
 6662SOL    HW220565   8.283   7.473   3.055  0.0102 -1.1719 -0.5264
 6663SOL     OW20566   0.210   0.994   8.750 -0.2635 -0.6368 -0.1753
 6663SOL    HW120567   0.228   1.085   8.775  1.0792 -0.5237 -1.3688
 6663SOL    HW220568   0.121   0.977   8.780 -0.7915  1.3036 -0.5215
 6664SOL     OW20569   8.129   9.621   1.241  0.1229 -0.0547  0.0564
 6664SOL    HW120570   8.190   9.675   1.191  0.3637  0.4806  0.9101
 6664SOL    HW220571   8.064   9.593   1.176  0.6293  0.3095 -0.6305
 6665SOL     OW20572   2.015   5.942   9.810 -0.2859 -0.4885 -0.0080
 6665SOL    HW120573   2.027   5.852   9.781  1.8762 -0.4409  0.5355
 6665SOL    HW220574   2.007   5.936   9.905  0.6731 -0.0799  0.1142
 6666SOL     OW20575   1.331   8.033   1.686  0.0638  0.5317 -0.1058
 6666SOL    HW120576   1.301   7.999   1.770 -1.1294 -0.5125 -0.9211
 6666SOL    HW220577   1.253   8.069   1.645  0.4655  0.2956 -1.1100
 6667SOL     OW20578   5.174   0.890   7.538 -0.1832  0.1014  0.0057
 6667SOL    HW120579   5.259   0.848   7.526  0.4292  1.7244 -1.8827
 6667SOL    HW220580   5.188   0.955   7.606 -0.9071 -1.9201  2.2680
 6668SOL     OW20581   7.775   2.285   0.855  0.7425 -0.0963 -0.4326
 6668SOL    HW120582   7.764   2.379   0.837  0.7718  0.0895  0.4658
 6668SOL    HW220583   7.850   2.281   0.914 -1.4156 -0.2973  2.5303
 6669SOL     OW20584   2.913   8.858   8.253  0.2011 -0.2122 -0.2686
 6669SOL    HW120585   2.970   8.789   8.219  2.1372  1.4981 -0.6874
 6669SOL    HW220586   2.916   8.847   8.348 -0.5060 -1.4046 -0.3601
 6670SOL     OW20587   3.395   5.699   6.265  0.5600  0.4343  0.4085
 6670SOL    HW120588   3.387   5.697   6.170 -2.9099  1.1714  0.5709
 6670SOL    HW220589   3.358   5.616   6.294 -1.1485  1.3872  1.1415
 6671SOL     OW20590   2.777   2.461   1.961  0.2539  0.1544  0.5635
 6671SOL    HW120591   2.758   2.441   1.869  0.3773 -0.2514  0.6216
 6671SOL    HW220592   2.862   2.504   1.959  0.1142  0.4292  0.4608
 6672SOL     OW20593   7.273   6.001   5.292 -0.1556  0.2303 -0.2988
 6672SOL    HW120594   7.279   5.909   5.266  1.5531  1.0081 -3.2175
 6672SOL    HW220595   7.356   6.018   5.337  0.1086  0.5993 -0.9078
 6673SOL     OW20596   7.328   3.108   3.703  0.1335 -0.5422 -0.1935
 6673SOL    HW120597   7.349   3.146   3.788  0.4609  0.4077 -0.6847
 6673SOL    HW220598   7.241   3.069   3.715 -0.9692  1.8291 -0.1084
 6674SOL     OW20599   2.156   0.423   8.979 -0.7112  0.6436 -0.0739
 6674SOL    HW120600   2.128   0.390   8.893 -0.4342 -0.8764  0.3830
 6674SOL    HW220601   2.076   0.422   9.032 -1.1221  2.6579 -0.5957
 6675SOL     OW20602   0.417   9.459   4.963  0.3719 -0.1501  0.1026
 6675SOL    HW120603   0.430   9.366   4.948  0.7654 -0.4530  1.9779
 6675SOL    HW220604   0.403   9.466   5.058 -2.3702  1.4174 -0.3366
 6676SOL     OW20605   1.844   2.196   1.049 -0.1166 -0.5206  0.0487
 6676SOL    HW120606   1.898   2.133   1.096  0.3773 -0.6087 -0.6144
 6676SOL    HW220607   1.793   2.240   1.117 -1.1431 -2.2425  0.4628
 6677SOL     OW20608   0.156   4.775   7.363 -0.0321  0.4427  0.0982
 6677SOL    HW120609   0.204   4.700   7.399  0.6252  0.8836  0.1562
 6677SOL    HW220610   0.170   4.769   7.269 -1.1106 -0.2715 -0.0291
 6678SOL     OW20611   5.977   1.371   7.737  0.1513  0.1135 -0.2853
 6678SOL    HW120612   5.991   1.461   7.708  0.8961  0.0986  0.0012
 6678SOL    HW220613   6.019   1.318   7.670 -2.0813 -0.1426 -1.5705
 6679SOL     OW20614   3.461   6.987   1.203 -0.2616 -0.6682  0.1603
 6679SOL    HW120615   3.392   7.020   1.146  1.4927  0.4905 -1.4189
 6679SOL    HW220616   3.507   6.922   1.149  1.1872  0.1661  0.3473
 6680SOL     OW20617   2.934   7.710   1.494  0.2595 -0.3944  1.0393
 6680SOL    HW120618   2.990   7.651   1.545  1.6846 -0.4463 -0.4876
 6680SOL    HW220619   2.930   7.670   1.407 -0.9495  0.4012  0.7010
 6681SOL     OW20620   3.505   4.606   6.304  0.6894 -0.2688 -0.4573
 6681SOL    HW120621   3.464   4.550   6.239  1.0303  0.3991 -1.2666
 6681SOL    HW220622   3.441   4.676   6.320  0.5286 -0.5316  0.0730
 6682SOL     OW20623   7.327   3.563   8.066  0.9406 -0.0279 -0.3741
 6682SOL    HW120624   7.235   3.580   8.086  0.3734 -1.2190 -1.8107
 6682SOL    HW220625   7.365   3.650   8.048  0.0647  0.4476  0.0330
 6683SOL     OW20626   7.045   4.133   8.490  0.1118  0.6845  0.7467
 6683SOL    HW120627   7.035   4.191   8.414 -0.1186  0.7993  0.8626
 6683SOL    HW220628   6.968   4.075   8.485  0.6517 -0.0081  0.2899
 6684SOL     OW20629   6.497   8.969   2.968  0.5106  0.1525  0.0320
 6684SOL    HW120630   6.413   8.926   2.981  0.6507 -0.0789  0.1720
 6684SOL    HW220631   6.552   8.937   3.039  1.5666 -1.8279 -1.5646
 6685SOL     OW20632   7.433   1.016   4.031  0.1253  0.2527  0.1509
 6685SOL    HW120633   7.489   1.061   4.095  0.6823 -0.3646  0.1180
 6685SOL    HW220634   7.488   1.010   3.953 -0.4538  0.7544 -0.2993
 6686SOL     OW20635   2.262   5.877   9.580 -0.5440  0.7465  0.4671
 6686SOL    HW120636   2.338   5.821   9.594 -0.9680  0.2311  0.7091
 6686SOL    HW220637   2.194   5.818   9.550 -1.3246  0.9463  1.7769
 6687SOL     OW20638   9.639   4.440   3.989  0.5064 -0.1957 -0.1984
 6687SOL    HW120639   9.697   4.501   3.943 -0.5581  1.0507  0.0687
 6687SOL    HW220640   9.614   4.487   4.068 -1.3622 -0.4535 -0.6074
 6688SOL     OW20641   3.240   6.868   3.367  0.2184  0.1050 -0.5477
 6688SOL    HW120642   3.249   6.882   3.461  0.2019 -2.4315 -0.0761
 6688SOL    HW220643   3.192   6.944   3.335 -0.0020  0.9041  1.5213
 6689SOL     OW20644   0.643   3.057   5.917  0.1571  0.3629  0.3818
 6689SOL    HW120645   0.624   2.991   5.851 -1.9864  1.0827  0.2039
 6689SOL    HW220646   0.661   3.137   5.867 -1.5573  0.9344  0.6022
 6690SOL     OW20647   8.587   9.164   1.956 -0.0990 -0.0938 -0.0848
 6690SOL    HW120648   8.665   9.211   1.926 -0.4408  0.3920 -0.2425
 6690SOL    HW220649   8.619   9.079   1.984  0.6608  0.4868  0.8951
 6691SOL     OW20650   8.066   5.593   4.723  0.0179  0.0543  0.1696
 6691SOL    HW120651   7.988   5.579   4.670 -0.6982 -0.6522  1.3590
 6691SOL    HW220652   8.109   5.668   4.683 -0.9048  0.0372 -0.9133
 6692SOL     OW20653   9.325   4.658   1.420  0.0962  0.1085  0.0812
 6692SOL    HW120654   9.382   4.731   1.394  0.1457 -1.0250 -3.4102
 6692SOL    HW220655   9.256   4.656   1.354 -0.9186 -1.9465  1.0978
 6693SOL     OW20656   5.932   3.518   5.409 -0.3657  0.3367  0.5017
 6693SOL    HW120657   5.946   3.523   5.503  4.2162  2.1951  0.0038
 6693SOL    HW220658   5.988   3.446   5.380 -0.1800  1.0045 -0.9256
 6694SOL     OW20659   2.852   5.904   0.826 -0.0852 -0.3105 -0.1432
 6694SOL    HW120660   2.833   5.998   0.831  1.0878  0.0081 -1.1658
 6694SOL    HW220661   2.798   5.872   0.754  0.9878  0.0101 -1.1237
 6695SOL     OW20662   9.642   5.282   3.768  0.5176  0.4705  0.2753
 6695SOL    HW120663   9.663   5.332   3.689  1.4654 -0.5830 -0.1790
 6695SOL    HW220664   9.713   5.300   3.829  1.5883 -1.2637 -0.3774
 6696SOL     OW20665   0.579   9.516   9.336 -0.0120  0.5434 -0.3829
 6696SOL    HW120666   0.608   9.484   9.422  0.9024 -0.0131 -0.8884
 6696SOL    HW220667   0.506   9.575   9.356  1.8026  2.4331  0.9850
 6697SOL     OW20668   2.205   4.933   9.505 -0.1233  0.5918  0.4825
 6697SOL    HW120669   2.145   4.918   9.578  0.2058  1.5837  0.9633
 6697SOL    HW220670   2.190   5.023   9.479 -0.5407  0.1323 -0.9850
 6698SOL     OW20671   5.639   9.620   3.871  0.3165 -0.0364  0.2143
 6698SOL    HW120672   5.586   9.545   3.843 -0.4358  0.1082  1.2000
 6698SOL    HW220673   5.579   9.675   3.921  1.2345  0.4692  0.7857
 6699SOL     OW20674   1.947   4.184   8.665 -0.1787  0.6136  0.1971
 6699SOL    HW120675   1.889   4.199   8.740 -3.3281 -0.7537 -1.7596
 6699SOL    HW220676   2.016   4.128   8.700 -2.6493 -1.7121  1.8056
 6700SOL     OW20677   2.757   5.452   9.267  0.0509 -0.0238  0.5259
 6700SOL    HW120678   2.696   5.458   9.340 -0.6294  0.1521 -0.0400
 6700SOL    HW220679   2.774   5.542   9.242 -0.3821 -0.0982 -0.0612
 6701SOL     OW20680   3.096   2.869   5.505  0.0071  0.1057  0.0490
 6701SOL    HW120681   3.082   2.919   5.585  0.1228 -0.3517  0.3573
 6701SOL    HW220682   3.157   2.922   5.453  1.1797 -0.3078  0.9434
 6702SOL     OW20683   7.794   5.396   9.420 -0.0646 -0.6637 -0.3043
 6702SOL    HW120684   7.713   5.446   9.414 -0.8277 -1.5642  1.5181
 6702SOL    HW220685   7.863   5.459   9.400 -0.9318  1.3475  2.3866
 6703SOL     OW20686   8.985   6.382   2.840 -0.0414  0.2718 -0.6057
 6703SOL    HW120687   9.026   6.358   2.757  0.3901  0.8707 -0.5726
 6703SOL    HW220688   9.001   6.306   2.897 -0.5781 -0.2501 -1.1471
 6704SOL     OW20689   5.496   5.476   2.115  0.0386 -0.2304  0.0443
 6704SOL    HW120690   5.479   5.383   2.127  1.1665 -0.3324  1.0343
 6704SOL    HW220691   5.590   5.486   2.131 -0.4194  1.3894  2.1141
 6705SOL     OW20692   7.374   1.029   8.887 -0.1506 -0.0575  0.0213
 6705SOL    HW120693   7.334   1.020   8.800 -0.6007  0.4310  0.1705
 6705SOL    HW220694   7.386   0.939   8.917 -0.9705 -0.2217 -0.1122
 6706SOL     OW20695   2.706   3.192   8.933  0.1360 -0.5815 -0.0854
 6706SOL    HW120696   2.765   3.218   8.863 -1.5014 -0.4301 -1.4624
 6706SOL    HW220697   2.677   3.274   8.972 -0.7896 -0.5508 -0.8159
 6707SOL     OW20698   0.680   2.044   3.693 -0.0589 -0.3506 -0.0083
 6707SOL    HW120699   0.731   1.981   3.642  0.0061 -0.3560  0.0635
 6707SOL    HW220700   0.723   2.046   3.779  0.9595  1.0224 -0.5107
 6708SOL     OW20701   9.290   0.641   0.591  0.0532 -0.0305 -0.5980
 6708SOL    HW120702   9.255   0.556   0.562 -1.1128 -0.3517  1.5195
 6708SOL    HW220703   9.340   0.673   0.516 -0.6955 -1.9033 -1.9930
 6709SOL     OW20704   6.420   7.728   9.559 -0.0387  0.9102  0.4746
 6709SOL    HW120705   6.352   7.746   9.624  1.0224  2.5255  1.2310
 6709SOL    HW220706   6.431   7.811   9.513  1.1556  0.5755  0.1292
 6710SOL     OW20707   5.488   4.255   7.351 -0.5215 -0.1892 -0.5317
 6710SOL    HW120708   5.482   4.271   7.446  0.7438 -1.1762 -0.2542
 6710SOL    HW220709   5.400   4.227   7.326 -1.0088  0.5770  0.2429
 6711SOL     OW20710   8.144   9.712   9.323 -0.0326  0.6794 -0.2897
 6711SOL    HW120711   8.113   9.630   9.286  0.6665  0.6044 -0.7390
 6711SOL    HW220712   8.105   9.716   9.410 -2.2389  1.1605 -1.2404
 6712SOL     OW20713   9.062   8.886   1.830  0.0107  0.0375  0.5763
 6712SOL    HW120714   9.100   8.808   1.870 -0.4159  0.3888  1.7227
 6712SOL    HW220715   9.136   8.946   1.818  0.3314 -0.5292 -0.2793
 6713SOL     OW20716   6.650   3.971   0.640  0.5101 -0.3857  0.2743
 6713SOL    HW120717   6.691   4.007   0.562  0.5252  1.1140  0.9374
 6713SOL    HW220718   6.719   3.974   0.707  0.5129 -1.6905  0.3533
 6714SOL     OW20719   8.797   0.143   3.396 -0.8252 -0.2891  0.4718
 6714SOL    HW120720   8.812   0.176   3.307  0.8166 -0.7352  0.5417
 6714SOL    HW220721   8.708   0.110   3.395 -1.8295  2.1955 -0.2126
 6715SOL     OW20722   8.144   6.857   2.233 -0.0435 -0.2392 -0.4330
 6715SOL    HW120723   8.131   6.855   2.328  0.2602 -0.4592 -0.3966
 6715SOL    HW220724   8.058   6.835   2.197 -0.3167  0.4721 -0.2200
 6716SOL     OW20725   4.169   2.523   7.324  0.1302 -0.0629 -0.1472
 6716SOL    HW120726   4.150   2.539   7.232  0.4244 -3.5717 -0.9429
 6716SOL    HW220727   4.125   2.594   7.370 -0.5928  1.4243 -2.9182
 6717SOL     OW20728   3.828   3.423   6.019  0.0743 -0.1139 -0.2141
 6717SOL    HW120729   3.915   3.386   6.004  0.0089 -0.4901  0.2945
 6717SOL    HW220730   3.771   3.374   5.959 -0.1270 -1.3558  0.9412
 6718SOL     OW20731   9.924   6.229   8.100 -0.1506 -0.1101 -0.5756
 6718SOL    HW120732   9.866   6.169   8.147  1.1612 -0.6075  0.4962
 6718SOL    HW220733   9.988   6.171   8.057 -0.5917  0.4058 -1.9647
 6719SOL     OW20734   1.489   3.810   8.066  0.1158  0.5015 -0.9727
 6719SOL    HW120735   1.498   3.896   8.024  2.1217  1.3865  1.0501
 6719SOL    HW220736   1.556   3.810   8.134 -0.4603 -2.3434 -0.2978
 6720SOL     OW20737   9.898   1.189   5.147 -0.1707  0.4254  0.0029
 6720SOL    HW120738   9.993   1.190   5.159  0.0417  0.8394 -1.4554
 6720SOL    HW220739   9.869   1.109   5.191  0.9970 -0.2795 -0.4415
 6721SOL     OW20740   4.338   4.193   0.349  0.3921 -0.1702 -0.7587
 6721SOL    HW120741   4.345   4.162   0.259  0.0602  1.6909 -1.4886
 6721SOL    HW220742   4.427   4.222   0.371  0.3486 -0.0539 -0.7325
 6722SOL     OW20743   0.815   3.514   0.032  0.3623 -0.0911  0.0069
 6722SOL    HW120744   0.804   3.422   0.010 -0.3690  0.0606 -0.2678
 6722SOL    HW220745   0.726   3.550   0.035  0.5659  0.3689  1.1375
 6723SOL     OW20746   9.848   8.921   8.376 -0.4136  0.8294 -0.3808
 6723SOL    HW120747   9.815   8.831   8.370  0.8714  0.1833  1.3346
 6723SOL    HW220748   9.839   8.956   8.288 -1.4910 -0.7818 -0.9629
 6724SOL     OW20749   0.086   8.556   2.558  0.1276 -0.3274  0.0744
 6724SOL    HW120750   0.148   8.629   2.571  0.1142 -0.2435 -0.3265
 6724SOL    HW220751   0.079   8.516   2.645  1.6438 -1.0553 -0.0963
 6725SOL     OW20752   8.768   4.550   4.540 -0.0007 -0.4526  0.6164
 6725SOL    HW120753   8.789   4.528   4.449  0.7188 -1.4089  0.9889
 6725SOL    HW220754   8.809   4.634   4.555  1.2895 -1.0487  0.5243
 6726SOL     OW20755   1.670   9.915   5.658 -0.0801 -0.4452  0.0225
 6726SOL    HW120756   1.732   9.978   5.695 -0.3006  0.4400 -1.0797
 6726SOL    HW220757   1.670   9.933   5.564 -3.3235  0.8634  0.1445
 6727SOL     OW20758   3.286   8.217   0.596 -0.6965  0.2382 -0.8699
 6727SOL    HW120759   3.247   8.205   0.682 -1.0113  2.1396 -0.7062
 6727SOL    HW220760   3.336   8.137   0.580 -0.3758 -0.0075  1.2069
 6728SOL     OW20761   0.582   3.829   2.007  0.8313  0.3299  0.4758
 6728SOL    HW120762   0.571   3.738   2.033 -0.9759 -1.0497 -4.0862
 6728SOL    HW220763   0.495   3.867   2.011  0.8581  0.6576 -1.0732
 6729SOL     OW20764   9.079   0.481   7.346  0.1802  0.0850  0.6629
 6729SOL    HW120765   9.145   0.427   7.388 -1.4063 -3.4953 -1.0072
 6729SOL    HW220766   9.025   0.513   7.418  0.1823 -2.0987  1.7053
 6730SOL     OW20767   1.970   4.150   7.014  0.6203 -0.1990 -0.1801
 6730SOL    HW120768   1.996   4.240   6.991 -1.6265 -0.1028 -2.7826
 6730SOL    HW220769   1.877   4.156   7.033  0.6726 -1.8483  0.7512
 6731SOL     OW20770   2.208   1.245   1.824 -0.6993 -0.2489 -0.7500
 6731SOL    HW120771   2.263   1.278   1.753 -1.3500  1.4374 -0.5273
 6731SOL    HW220772   2.132   1.303   1.823 -0.7389 -0.2064  1.2913
 6732SOL     OW20773   4.760   2.708   9.494  0.2664 -0.4471 -0.4869
 6732SOL    HW120774   4.830   2.753   9.540 -0.7552 -0.4904  1.1723
 6732SOL    HW220775   4.688   2.704   9.557 -0.9802 -1.0520 -1.8853
 6733SOL     OW20776   1.568   2.693   4.771 -0.5745  1.0966 -0.0316
 6733SOL    HW120777   1.493   2.746   4.798 -1.0806  0.0482  0.6890
 6733SOL    HW220778   1.555   2.610   4.815  0.2926  0.4218 -1.0082
 6734SOL     OW20779   4.658   5.248   3.430 -0.7170  0.4134 -0.2617
 6734SOL    HW120780   4.752   5.240   3.441 -0.7757  0.2801  0.1513
 6734SOL    HW220781   4.637   5.337   3.460 -0.8851  0.0306  0.8181
 6735SOL     OW20782   5.535   3.353   4.657  0.3145 -0.3392  0.6172
 6735SOL    HW120783   5.562   3.427   4.712  0.2037 -0.7741  1.2614
 6735SOL    HW220784   5.517   3.393   4.571 -1.2987  0.6557  1.3630
 6736SOL     OW20785   1.967   6.852   0.972 -0.4574 -0.1512 -0.2582
 6736SOL    HW120786   2.052   6.896   0.979 -1.2878  1.7319 -1.2982
 6736SOL    HW220787   1.919   6.881   1.049 -0.0814 -1.4941  0.5161
 6737SOL     OW20788   0.565   6.721   2.605  0.3634 -0.1542  0.1773
 6737SOL    HW120789   0.536   6.630   2.597 -3.4017  1.0278 -2.0285
 6737SOL    HW220790   0.612   6.738   2.524 -1.0017  0.4164 -0.5307
 6738SOL     OW20791   5.921   2.059   8.118 -0.5127  0.2072 -0.0286
 6738SOL    HW120792   5.856   1.999   8.081 -1.0528  1.0577 -0.4861
 6738SOL    HW220793   5.870   2.131   8.155  0.1327  0.4566  0.3954
 6739SOL     OW20794   0.259   2.685   2.066 -0.1297  0.2553  0.6500
 6739SOL    HW120795   0.300   2.767   2.040 -0.7386  0.7030  1.0755
 6739SOL    HW220796   0.309   2.617   2.019  0.3289  0.8647  0.2398
 6740SOL     OW20797   2.460   6.353   0.439  0.0496 -0.0302  0.4776
 6740SOL    HW120798   2.457   6.324   0.348 -1.1495  0.0172  0.4880
 6740SOL    HW220799   2.475   6.273   0.489 -1.8204 -0.4909  0.3992
 6741SOL     OW20800   3.835   7.543   0.101 -0.5890 -0.2089 -0.6647
 6741SOL    HW120801   3.748   7.553   0.139 -0.7943  1.3057 -1.4031
 6741SOL    HW220802   3.835   7.456   0.062 -0.2933 -1.9092  2.8075
 6742SOL     OW20803   5.241   6.545   0.933 -0.3691 -0.6951 -0.4958
 6742SOL    HW120804   5.166   6.516   0.984 -1.0003 -1.7307 -1.9487
 6742SOL    HW220805   5.204   6.597   0.861  0.5653  1.6100  0.5776
 6743SOL     OW20806   5.762   8.021   8.224  0.1928 -0.1574  0.0616
 6743SOL    HW120807   5.767   8.037   8.318  2.3426  1.1612 -0.2192
 6743SOL    HW220808   5.728   8.103   8.188 -1.1247 -0.8333 -0.3205
 6744SOL     OW20809   7.707   4.414   4.755 -0.3202 -0.0572  0.4128
 6744SOL    HW120810   7.786   4.375   4.791  0.6146  1.6253  0.2484
 6744SOL    HW220811   7.660   4.449   4.831 -1.0829 -1.2891  0.5426
 6745SOL     OW20812   9.698   7.852   9.896  0.2150  0.3789  0.3027
 6745SOL    HW120813   9.740   7.904   9.965  0.4144  0.2351  0.2924
 6745SOL    HW220814   9.709   7.761   9.925  2.7986  0.1007 -1.2653
 6746SOL     OW20815   4.941   4.584   9.733  0.1547  0.3079 -0.4608
 6746SOL    HW120816   4.954   4.556   9.824  0.6696 -0.2212 -0.6941
 6746SOL    HW220817   5.026   4.571   9.691 -0.2867 -0.2178 -1.2175
 6747SOL     OW20818   1.534   0.067   4.377 -0.3694 -0.5584 -0.2174
 6747SOL    HW120819   1.546   0.156   4.343 -0.0109 -0.7011 -0.4724
 6747SOL    HW220820   1.556   0.073   4.470 -2.1634  0.0166  0.2114
 6748SOL     OW20821   6.553   3.184   3.026  0.2362  0.0633  0.6604
 6748SOL    HW120822   6.537   3.273   3.058 -0.2064  0.5701 -0.8777
 6748SOL    HW220823   6.487   3.171   2.958  2.1230 -0.3365 -1.1784
 6749SOL     OW20824   0.097   7.856   2.911 -0.3048  0.0714 -0.0431
 6749SOL    HW120825   0.102   7.936   2.962 -1.5726 -0.6359  1.2516
 6749SOL    HW220826   0.180   7.812   2.928 -0.5837 -0.0056  1.1885
 6750SOL     OW20827   2.762   3.542   7.127 -0.0946  0.5200  0.1247
 6750SOL    HW120828   2.850   3.506   7.120 -0.2793  0.3498 -1.8279
 6750SOL    HW220829   2.756   3.571   7.218  1.7792  0.0690  0.4481
 6751SOL     OW20830   1.684   5.502   4.813 -0.5932  0.2631 -0.0626
 6751SOL    HW120831   1.589   5.516   4.817 -0.4358  1.2731  0.7956
 6751SOL    HW220832   1.720   5.574   4.864  0.6369 -0.2007 -0.2500
 6752SOL     OW20833   3.119   1.740   4.370  0.2226  0.0530  0.0342
 6752SOL    HW120834   3.205   1.733   4.412  0.2611 -0.9926 -0.1955
 6752SOL    HW220835   3.078   1.655   4.387 -0.3586  0.1767 -0.7415
 6753SOL     OW20836   7.854   9.571   7.303  0.0955  1.3404  0.0109
 6753SOL    HW120837   7.840   9.665   7.314 -0.0046  1.4038 -0.5962
 6753SOL    HW220838   7.943   9.556   7.336  0.3685  1.7731 -0.5098
 6754SOL     OW20839   1.276   7.801   4.356  0.0035  0.2785  0.6348
 6754SOL    HW120840   1.205   7.865   4.356 -0.4754 -0.2255 -0.4884
 6754SOL    HW220841   1.329   7.824   4.280  0.0054 -0.4520  0.4074
 6755SOL     OW20842   0.960   4.934   3.816  0.3991 -0.1778 -0.1992
 6755SOL    HW120843   0.925   4.989   3.886 -0.9973 -0.2523 -0.7946
 6755SOL    HW220844   0.923   4.847   3.833  2.6844 -1.0172  0.8053
 6756SOL     OW20845   5.782   0.469   0.876  0.4292 -0.0603 -0.1352
 6756SOL    HW120846   5.798   0.474   0.782 -0.1862 -1.3579 -0.3355
 6756SOL    HW220847   5.704   0.522   0.891 -0.1795 -0.8164 -0.5642
 6757SOL     OW20848   5.275   3.341   3.985 -0.2221 -0.3351 -0.2433
 6757SOL    HW120849   5.208   3.273   3.996 -0.4958  0.2897  2.6869
 6757SOL    HW220850   5.344   3.298   3.934 -0.9760 -2.3921  0.3582
 6758SOL     OW20851   9.608   0.167   2.001 -1.0146 -0.3711  0.4387
 6758SOL    HW120852   9.580   0.250   2.040  0.9006 -0.1993  1.5970
 6758SOL    HW220853   9.703   0.175   1.993 -1.0500 -1.4357 -1.9744
 6759SOL     OW20854   4.662   2.371   1.335  0.2855  0.7074  0.2495
 6759SOL    HW120855   4.596   2.435   1.309  0.1582  0.1193 -0.9870
 6759SOL    HW220856   4.613   2.290   1.348  0.7621  0.2017 -0.9389
 6760SOL     OW20857   6.738   9.367   5.026  0.3105  0.3532 -0.1429
 6760SOL    HW120858   6.718   9.420   5.103 -0.4881  0.8091 -0.6517
 6760SOL    HW220859   6.727   9.427   4.952 -1.4983 -0.7245 -0.8051
 6761SOL     OW20860   1.035   1.234   4.746  0.1330  0.1258  0.4118
 6761SOL    HW120861   0.972   1.195   4.687  1.0640 -0.4824 -0.2016
 6761SOL    HW220862   1.072   1.307   4.697  0.8935 -0.3689  0.2288
 6762SOL     OW20863   0.030   2.330   6.208  0.1535 -0.0137 -0.5877
 6762SOL    HW120864  -0.042   2.330   6.271 -1.1151  2.2038 -1.8755
 6762SOL    HW220865   0.101   2.377   6.252  0.0391 -0.3536 -0.0460
 6763SOL     OW20866   9.557   5.547   7.406  0.7405  0.0368 -0.5052
 6763SOL    HW120867   9.496   5.479   7.433  0.0537  1.7028  2.6245
 6763SOL    HW220868   9.639   5.525   7.450  0.5750  1.0434  0.3553
 6764SOL     OW20869   3.744   4.024   8.471  0.3751  0.1463  0.2401
 6764SOL    HW120870   3.705   4.034   8.557  0.2164 -1.1580  0.3454
 6764SOL    HW220871   3.814   3.960   8.483  0.7076  0.3563 -0.4958
 6765SOL     OW20872   0.313   4.465   8.428  0.6186  0.2400 -0.1532
 6765SOL    HW120873   0.225   4.453   8.394  0.7571  3.0522 -1.7595
 6765SOL    HW220874   0.365   4.491   8.352  2.9209 -1.4759  0.7177
 6766SOL     OW20875   8.743   5.010   4.937 -0.0725 -0.6637 -0.0639
 6766SOL    HW120876   8.839   5.017   4.935  0.0014 -1.5837 -2.2341
 6766SOL    HW220877   8.716   5.074   5.003  2.0830 -1.2630  1.5395
 6767SOL     OW20878   1.487   8.903   3.640 -0.2873 -0.1089  0.1106
 6767SOL    HW120879   1.458   8.813   3.628 -1.4758  0.0211  1.6964
 6767SOL    HW220880   1.488   8.915   3.735  2.1706  0.8341  0.0393
 6768SOL     OW20881   8.920   0.249   8.545  0.6370 -0.5247  0.7533
 6768SOL    HW120882   8.904   0.227   8.636 -2.5337 -0.9213  0.1939
 6768SOL    HW220883   8.941   0.165   8.504  0.2067 -0.6361  0.7648
 6769SOL     OW20884   4.982   4.602   7.153 -0.6730  0.3795  0.1536
 6769SOL    HW120885   5.036   4.565   7.083 -0.6728  2.7837 -1.2278
 6769SOL    HW220886   5.016   4.562   7.233  2.8854  1.3210 -0.6777
 6770SOL     OW20887   2.138   4.878   9.907 -0.3269  0.1510 -0.2756
 6770SOL    HW120888   2.098   4.867   9.821 -1.6660  1.9318  0.0569
 6770SOL    HW220889   2.231   4.862   9.893 -0.3011  1.6897 -2.3640
 6771SOL     OW20890   6.303   7.569   1.763  0.0951 -0.0339  0.2951
 6771SOL    HW120891   6.238   7.616   1.815 -0.1662 -1.4928  1.3488
 6771SOL    HW220892   6.343   7.637   1.709 -1.1483  1.1772  0.8100
 6772SOL     OW20893   8.904   1.583   7.594 -0.1884 -0.0135 -0.0171
 6772SOL    HW120894   8.991   1.570   7.634 -0.7188 -0.6681  0.9685
 6772SOL    HW220895   8.908   1.532   7.513  1.0657  1.7113 -1.1059
 6773SOL     OW20896   8.873   3.442   7.297  0.2140 -0.1527 -0.0927
 6773SOL    HW120897   8.939   3.495   7.253  0.6896 -0.7675 -0.1410
 6773SOL    HW220898   8.806   3.426   7.230 -0.3653  1.0988  0.1718
 6774SOL     OW20899   0.964   1.235   1.607  0.1021 -0.1460  0.2647
 6774SOL    HW120900   0.878   1.199   1.629 -0.8589  0.7829 -1.6830
 6774SOL    HW220901   1.014   1.159   1.576 -0.2737 -0.5635  0.6628
 6775SOL     OW20902   4.251   0.600   2.818  0.2449  0.0633  0.0261
 6775SOL    HW120903   4.244   0.551   2.900 -1.8252  0.3035  0.0376
 6775SOL    HW220904   4.289   0.684   2.844 -1.5723  0.6385  1.0032
 6776SOL     OW20905   5.020   8.168   0.472 -0.2169 -0.2130 -0.5888
 6776SOL    HW120906   5.029   8.084   0.518  0.2784 -0.0641 -0.4049
 6776SOL    HW220907   5.087   8.224   0.511 -0.1817  0.1011 -1.0882
 6777SOL     OW20908   1.360   4.838   1.568  0.4733 -0.3414 -0.2422
 6777SOL    HW120909   1.273   4.878   1.559  0.1993 -1.0910 -1.1274
 6777SOL    HW220910   1.421   4.905   1.536  0.1396 -0.1328 -0.4500
 6778SOL     OW20911   5.445   4.018   8.172 -0.2375 -0.1533 -0.2567
 6778SOL    HW120912   5.478   3.945   8.119  0.9642  0.7751 -0.8303
 6778SOL    HW220913   5.375   4.056   8.120  0.2880  0.1513 -0.7525
 6779SOL     OW20914   3.656   8.673   8.525 -0.5979 -0.3509 -0.0296
 6779SOL    HW120915   3.618   8.759   8.543  0.4373  0.4405 -1.4164
 6779SOL    HW220916   3.637   8.657   8.433 -1.1661 -1.8445  0.3189
 6780SOL     OW20917   2.788   7.881   2.210 -0.0250  0.1152  0.6899
 6780SOL    HW120918   2.760   7.849   2.296 -2.8570  0.2527 -0.0721
 6780SOL    HW220919   2.832   7.964   2.228  0.9954 -0.7009  2.1069
 6781SOL     OW20920   8.480   1.184   0.011  0.0736  0.9193 -0.1980
 6781SOL    HW120921   8.431   1.239  -0.051 -1.1244  1.2409  0.9691
 6781SOL    HW220922   8.459   1.221   0.097 -0.8846 -1.4295  0.6618
 6782SOL     OW20923   7.328   1.152   2.558  0.0973 -0.3579 -0.0238
 6782SOL    HW120924   7.351   1.239   2.523 -1.0036 -0.8011 -2.0071
 6782SOL    HW220925   7.412   1.113   2.580  0.6851  0.8453 -0.0207
 6783SOL     OW20926   9.335   6.353   3.849 -0.0929 -0.1145  0.4363
 6783SOL    HW120927   9.246   6.367   3.817  0.1358  0.4220  0.0041
 6783SOL    HW220928   9.341   6.259   3.865 -0.7075 -0.1662  0.3743
 6784SOL     OW20929   2.008   0.512   8.284  0.2251  0.0763  0.0546
 6784SOL    HW120930   2.032   0.531   8.375 -0.4329 -0.5245  0.3635
 6784SOL    HW220931   1.963   0.428   8.289 -0.0888  0.1939 -0.7925
 6785SOL     OW20932   0.289   0.490   8.064  0.2480  0.1745  0.3156
 6785SOL    HW120933   0.268   0.574   8.023 -0.2732  0.0700  0.3606
 6785SOL    HW220934   0.233   0.426   8.020 -0.1378  0.0205  1.0084
 6786SOL     OW20935   6.615   2.874   0.817 -0.3089  0.3478 -0.6274
 6786SOL    HW120936   6.669   2.812   0.768  1.1740  0.8026  0.3440
 6786SOL    HW220937   6.604   2.948   0.758  0.0362  0.1841 -0.9003
 6787SOL     OW20938   6.359   1.686   9.286  0.1866  0.0839 -0.7834
 6787SOL    HW120939   6.433   1.648   9.334 -0.9815  1.1723  2.0835
 6787SOL    HW220940   6.368   1.780   9.298 -1.5986  0.2474 -0.3511
 6788SOL     OW20941   8.144   4.303   4.025 -0.6979  0.3899  0.2150
 6788SOL    HW120942   8.111   4.374   4.080 -2.3310  0.8005 -1.2110
 6788SOL    HW220943   8.135   4.225   4.079 -1.9197  0.8346  0.6965
 6789SOL     OW20944   1.994   4.695   3.938  0.1165  0.2851 -0.1763
 6789SOL    HW120945   2.030   4.663   4.020 -1.8270 -0.0206  0.5961
 6789SOL    HW220946   2.055   4.663   3.871  2.1556  1.1789  1.1484
 6790SOL     OW20947   6.483   3.166   7.402  0.3116  0.2377  0.4084
 6790SOL    HW120948   6.412   3.160   7.466 -0.5416 -0.3187 -0.5645
 6790SOL    HW220949   6.441   3.199   7.322  1.3503  0.8882  0.1050
 6791SOL     OW20950   5.687   3.269   9.730  0.1830  0.3685 -0.2055
 6791SOL    HW120951   5.677   3.279   9.636  0.3452 -0.8830 -0.3679
 6791SOL    HW220952   5.779   3.287   9.747 -0.0838  1.7184 -0.1183
 6792SOL     OW20953   3.893   3.201   3.969  0.1230 -0.0505 -0.2545
 6792SOL    HW120954   3.835   3.210   4.045 -0.3858 -0.7776 -0.5502
 6792SOL    HW220955   3.833   3.187   3.895  0.7002 -1.7974 -0.4196
 6793SOL     OW20956   1.425   7.034   5.768 -0.2152 -0.5353 -0.2384
 6793SOL    HW120957   1.408   6.944   5.743  0.5641 -0.7370 -0.0664
 6793SOL    HW220958   1.360   7.085   5.720  0.2010 -1.0599 -1.3793
 6794SOL     OW20959   3.231   3.130   1.928 -0.1245 -0.5116  0.5668
 6794SOL    HW120960   3.301   3.102   1.868 -0.1813 -1.7006  1.0361
 6794SOL    HW220961   3.151   3.118   1.878 -0.2168 -2.0274  1.0348
 6795SOL     OW20962   1.794   3.286   7.682  0.3971 -0.8408  0.5176
 6795SOL    HW120963   1.799   3.234   7.762  0.9314  0.6290  1.4861
 6795SOL    HW220964   1.716   3.340   7.692  0.3244 -0.8290 -0.0618
 6796SOL     OW20965   5.632   4.299   7.094 -0.5297  0.7213  0.2068
 6796SOL    HW120966   5.595   4.277   7.180  0.5001 -0.4767  0.3740
 6796SOL    HW220967   5.598   4.232   7.035 -0.4989  0.9991 -0.1292
 6797SOL     OW20968   5.787   1.332   0.406  0.2237  0.2776 -0.4019
 6797SOL    HW120969   5.787   1.384   0.326  2.0783 -0.2074 -0.7507
 6797SOL    HW220970   5.841   1.381   0.468  0.5841 -0.4032 -0.1679
 6798SOL     OW20971   4.386   5.854   6.261  0.1800  0.5923 -0.0599
 6798SOL    HW120972   4.399   5.761   6.279 -0.2377  0.5092 -0.1832
 6798SOL    HW220973   4.433   5.869   6.178 -0.8273  0.2022 -0.7171
 6799SOL     OW20974   4.105   8.508   2.363  0.5964  0.3384  0.4471
 6799SOL    HW120975   4.113   8.587   2.309  0.3896 -0.8739 -1.4435
 6799SOL    HW220976   4.188   8.462   2.351  0.3840 -0.1522  0.8221
 6800SOL     OW20977   8.029   0.207   7.429 -0.2921 -0.0875 -0.6764
 6800SOL    HW120978   7.950   0.257   7.410  0.8663  1.9636 -0.4778
 6800SOL    HW220979   8.093   0.238   7.365  1.1636  0.5527  0.9910
 6801SOL     OW20980   6.086   4.966   2.191 -0.0512 -0.8992 -0.3659
 6801SOL    HW120981   6.008   5.018   2.168  1.3183 -0.2504 -4.4978
 6801SOL    HW220982   6.052   4.879   2.209 -1.8701 -0.2286 -0.2945
 6802SOL     OW20983   2.977   1.915   9.397 -0.6163 -0.0104  0.6780
 6802SOL    HW120984   2.888   1.942   9.373  0.2846  1.3423 -1.4220
 6802SOL    HW220985   2.995   1.841   9.340 -0.6462 -0.8395  1.7050
 6803SOL     OW20986   2.830   5.622   0.520 -0.1855  0.3975 -0.2869
 6803SOL    HW120987   2.906   5.662   0.478  1.0512  0.6561  2.0381
 6803SOL    HW220988   2.756   5.674   0.490  0.7136  0.9909 -1.5608
 6804SOL     OW20989   0.287   2.599   5.872 -0.5448 -0.1306 -0.3480
 6804SOL    HW120990   0.343   2.534   5.915 -0.4023  0.0685 -0.2329
 6804SOL    HW220991   0.288   2.573   5.780  0.3396  0.2969 -0.4771
 6805SOL     OW20992   0.496   4.932   0.246 -0.2143  0.0672 -0.3280
 6805SOL    HW120993   0.498   4.952   0.340 -1.6363  2.7000 -0.7367
 6805SOL    HW220994   0.494   5.018   0.204 -1.4026 -1.0244 -2.6927
 6806SOL     OW20995   3.774   2.629   5.818  0.2413  0.5305 -0.1596
 6806SOL    HW120996   3.687   2.650   5.785  0.7075  0.9947 -1.1006
 6806SOL    HW220997   3.827   2.706   5.799  1.3704 -0.5261 -1.4930
 6807SOL     OW20998   5.947   3.603   2.321  0.6329 -0.0089  0.3182
 6807SOL    HW120999   5.853   3.585   2.323  0.5441  0.4634  0.5958
 6807SOL    HW221000   5.982   3.554   2.395  0.5643  0.0428  0.3852
 6808SOL     OW21001   2.914   0.098   8.654 -0.6707 -0.1856 -0.7357
 6808SOL    HW121002   2.818   0.100   8.657 -0.6685 -0.3025 -0.5815
 6808SOL    HW221003   2.935   0.005   8.652 -0.4934 -0.2098  1.1994
 6809SOL     OW21004   8.699   6.944   1.103 -0.2952  0.0700  0.0805
 6809SOL    HW121005   8.612   6.906   1.090 -0.8478  1.2568  0.1434
 6809SOL    HW221006   8.698   6.974   1.194 -0.9288  2.6611 -0.6862
 6810SOL     OW21007   7.474   1.112   0.568  0.5408  0.5838 -0.5616
 6810SOL    HW121008   7.570   1.118   0.564  0.5544  0.8560  0.0169
 6810SOL    HW221009   7.457   1.060   0.647  0.2367 -0.6028 -1.3810
 6811SOL     OW21010   2.285   7.683   7.488  0.2962 -0.6100 -0.3490
 6811SOL    HW121011   2.329   7.682   7.573  1.9309 -1.1457 -1.1671
 6811SOL    HW221012   2.283   7.775   7.463  0.2585 -0.5070  0.0206
 6812SOL     OW21013   9.788   8.541   5.998 -0.0988 -0.1136 -0.0458
 6812SOL    HW121014   9.700   8.506   6.015 -0.2149  0.2045  0.0233
 6812SOL    HW221015   9.839   8.466   5.970  0.4536 -0.9829  2.9516
 6813SOL     OW21016   7.780   5.321   7.811 -0.2524  0.2807 -0.2746
 6813SOL    HW121017   7.785   5.417   7.813  1.5029  0.2145 -0.4953
 6813SOL    HW221018   7.725   5.299   7.887  1.4101  1.3803  1.3538
 6814SOL     OW21019   4.454   2.161   5.590  0.5085  0.6660 -0.1218
 6814SOL    HW121020   4.478   2.175   5.682 -0.8975  0.6548  0.2671
 6814SOL    HW221021   4.493   2.235   5.544  1.4626  0.5229  0.4346
 6815SOL     OW21022   9.813   0.128   3.367  0.4506 -0.1456  0.0402
 6815SOL    HW121023   9.851   0.169   3.445 -1.3122 -0.1715  0.9710
 6815SOL    HW221024   9.870   0.155   3.295  1.8021  0.3605  1.2421
 6816SOL     OW21025   8.030   9.974   0.881  0.0890  0.4634  0.5364
 6816SOL    HW121026   7.996  10.010   0.963 -1.8873 -1.8735  0.8893
 6816SOL    HW221027   8.028   9.879   0.895  0.1728  0.0207 -2.0430
 6817SOL     OW21028   3.569   9.524   9.485 -0.0715 -0.1406  0.5385
 6817SOL    HW121029   3.602   9.585   9.550  0.8100  0.1281 -0.1547
 6817SOL    HW221030   3.644   9.505   9.429 -0.5781 -1.1073  0.1652
 6818SOL     OW21031   2.422   0.284   5.308 -0.1685  0.6945  0.5553
 6818SOL    HW121032   2.508   0.307   5.272 -0.4976  2.4736  0.8150
 6818SOL    HW221033   2.367   0.360   5.289 -1.5934 -0.2546  0.7412
 6819SOL     OW21034   5.444   7.566   3.564 -0.0866 -0.2871 -0.5923
 6819SOL    HW121035   5.527   7.614   3.566 -0.8568  1.1258 -1.0751
 6819SOL    HW221036   5.466   7.481   3.527  1.2764 -0.2216  0.0082
 6820SOL     OW21037   1.522   2.489   8.342  0.3040  0.3285 -1.0440
 6820SOL    HW121038   1.429   2.509   8.353 -0.2978 -2.0350 -1.3371
 6820SOL    HW221039   1.554   2.474   8.431  0.4898  1.3324 -0.9260
 6821SOL     OW21040   0.245   5.553   7.692 -0.7524 -0.5274 -0.1705
 6821SOL    HW121041   0.207   5.621   7.636  1.1897 -0.4717 -1.5454
 6821SOL    HW221042   0.315   5.598   7.740 -0.7350 -1.1316  0.3878
 6822SOL     OW21043   4.691   8.104   9.442 -0.4441  0.1059  0.5164
 6822SOL    HW121044   4.762   8.041   9.427 -1.1724 -0.7877  0.7150
 6822SOL    HW221045   4.719   8.183   9.396 -0.2593 -0.8927 -1.1657
 6823SOL     OW21046   2.866   2.538   0.892  0.0445 -0.1274  0.0689
 6823SOL    HW121047   2.924   2.612   0.878  0.2930 -0.5260 -1.1212
 6823SOL    HW221048   2.835   2.515   0.804 -1.3414 -0.3782  0.6013
 6824SOL     OW21049   4.192   2.571   7.050 -0.3412 -0.4476 -0.2980
 6824SOL    HW121050   4.125   2.613   6.995 -0.7783  0.1119  0.6539
 6824SOL    HW221051   4.253   2.641   7.072  0.0522 -0.7590 -0.3889
 6825SOL     OW21052   0.589   2.622   2.145  0.0611  0.1750 -0.2983
 6825SOL    HW121053   0.550   2.660   2.066  1.8109  0.8627 -0.8687
 6825SOL    HW221054   0.614   2.697   2.199 -0.3600 -0.2736  0.5575
 6826SOL     OW21055   4.296   0.050   6.930 -0.1179  0.2330  0.1175
 6826SOL    HW121056   4.365  -0.016   6.937  0.0030  0.3891  0.4141
 6826SOL    HW221057   4.218   0.002   6.903  0.3361  0.1839 -1.2178
 6827SOL     OW21058   9.435   4.346   7.773 -0.1902 -0.1643 -0.8494
 6827SOL    HW121059   9.390   4.428   7.754  0.3130  2.0412  5.2011
 6827SOL    HW221060   9.522   4.357   7.735 -0.6452  1.3970 -1.5210
 6828SOL     OW21061   7.099   1.681   0.520 -0.0912  0.0191 -0.6008
 6828SOL    HW121062   7.117   1.670   0.613 -1.6174  2.4231  0.0785
 6828SOL    HW221063   7.098   1.592   0.485 -0.7470 -1.0703  1.9395
 6829SOL     OW21064   1.759   7.401   6.449 -0.0182  0.2126  0.3072
 6829SOL    HW121065   1.834   7.417   6.391  0.6648 -1.3767  0.7101
 6829SOL    HW221066   1.782   7.322   6.497 -2.4222 -0.9744 -0.3327
 6830SOL     OW21067   4.972   8.751   8.429  0.1155 -0.4417 -0.4209
 6830SOL    HW121068   5.012   8.686   8.371 -0.6260 -0.6369 -0.7293
 6830SOL    HW221069   4.878   8.736   8.421 -0.3275  2.4698 -2.7108
 6831SOL     OW21070   6.540   5.154   3.802 -0.1032 -0.5816 -0.5109
 6831SOL    HW121071   6.469   5.218   3.798 -0.5047 -0.9433  0.3819
 6831SOL    HW221072   6.495   5.069   3.803  0.3923 -0.8534 -1.0471
 6832SOL     OW21073   4.637   3.867   3.294 -0.2678  0.2529 -0.0038
 6832SOL    HW121074   4.598   3.915   3.220 -1.4395 -1.6173 -0.6754
 6832SOL    HW221075   4.568   3.810   3.325  0.1545  1.0635  2.7146
 6833SOL     OW21076   7.880   0.377   9.312 -0.0665  0.3003  0.1406
 6833SOL    HW121077   7.959   0.383   9.259 -0.0002 -3.1927 -0.4082
 6833SOL    HW221078   7.908   0.333   9.392 -1.3202 -0.4327  0.2021
 6834SOL     OW21079   8.367   4.285   3.598 -0.3792 -0.4167  0.4185
 6834SOL    HW121080   8.365   4.381   3.595 -0.0923 -0.4229 -0.2715
 6834SOL    HW221081   8.296   4.261   3.658 -2.8572  0.1141 -2.0911
 6835SOL     OW21082   7.572   7.160   1.605 -0.7318  0.2703  0.3943
 6835SOL    HW121083   7.521   7.139   1.527 -0.7153  0.7212  0.2590
 6835SOL    HW221084   7.589   7.254   1.598 -0.6446  0.2948  0.8905
 6836SOL     OW21085   6.365   4.709   9.786 -0.1626  0.1874  0.0823
 6836SOL    HW121086   6.353   4.620   9.754  0.4801  0.3800 -0.7542
 6836SOL    HW221087   6.286   4.728   9.837 -0.5138 -0.6899 -0.1193
 6837SOL     OW21088   6.790   2.317   9.824  0.1667  0.5124  0.0352
 6837SOL    HW121089   6.806   2.310   9.730  1.7554  0.1559  0.3041
 6837SOL    HW221090   6.767   2.409   9.838 -0.9839  0.3725 -0.8038
 6838SOL     OW21091   1.125   2.038   6.405  0.0588  0.1946  0.7894
 6838SOL    HW121092   1.119   2.086   6.488 -0.7117  1.5403 -0.0013
 6838SOL    HW221093   1.081   2.095   6.342  1.0170 -0.5873 -0.6407
 6839SOL     OW21094   0.654   5.225   3.058  0.3879  0.2640 -0.1878
 6839SOL    HW121095   0.655   5.316   3.089  2.1130 -0.1795  1.2438
 6839SOL    HW221096   0.561   5.201   3.056 -0.0062  1.5572  0.9917
 6840SOL     OW21097   5.019   3.674   1.097  0.5808  0.0063  0.1774
 6840SOL    HW121098   5.058   3.602   1.147  0.4794 -0.3864 -0.2948
 6840SOL    HW221099   4.960   3.630   1.035  2.2618  0.2533 -1.7535
 6841SOL     OW21100   9.519   1.987   8.856 -0.0485 -0.4985 -0.3627
 6841SOL    HW121101   9.470   2.049   8.911  0.4618  0.2182 -0.6989
 6841SOL    HW221102   9.513   2.024   8.768  1.9421  0.1583 -0.2564
 6842SOL     OW21103   6.071   8.059   0.282  0.6937 -0.0340 -0.0671
 6842SOL    HW121104   6.008   8.131   0.286 -0.1212 -0.6207 -1.4122
 6842SOL    HW221105   6.024   7.989   0.235  1.3624 -1.5536  1.4294
 6843SOL     OW21106   1.673   3.872   7.320  0.6998  0.3228 -0.1600
 6843SOL    HW121107   1.676   3.776   7.320  1.5979  0.3367 -0.3544
 6843SOL    HW221108   1.764   3.898   7.304  0.4392  1.2078 -0.2363
 6844SOL     OW21109   7.328   6.132   3.384  0.7813 -0.2154 -0.0046
 6844SOL    HW121110   7.414   6.149   3.424  1.1577 -1.7617 -0.0674
 6844SOL    HW221111   7.344   6.061   3.322 -0.7700 -1.5654  1.0267
 6845SOL     OW21112   8.626   9.770   3.488  0.5313 -0.5008 -0.1673
 6845SOL    HW121113   8.687   9.735   3.554  0.5650  0.3380  0.2589
 6845SOL    HW221114   8.541   9.734   3.512  0.4637  0.1705  0.6161
 6846SOL     OW21115   7.266   4.048   6.929 -0.3166  0.4650 -0.6183
 6846SOL    HW121116   7.180   4.035   6.890 -0.6304 -0.2642  0.2757
 6846SOL    HW221117   7.328   4.015   6.863 -0.7932 -0.1227 -0.7826
 6847SOL     OW21118   6.643   0.990   4.767  0.1525 -0.2938 -0.3260
 6847SOL    HW121119   6.640   1.035   4.682 -0.1720  0.5800  0.1300
 6847SOL    HW221120   6.656   0.898   4.745 -1.4780 -0.3054 -1.4048
 6848SOL     OW21121   2.084   8.067   3.055 -0.6122  0.1803  0.2800
 6848SOL    HW121122   2.017   8.093   2.991 -1.7508 -1.1148  0.9027
 6848SOL    HW221123   2.139   8.005   3.007 -0.4424  0.4918  0.0653
 6849SOL     OW21124   0.936   6.162   8.426 -0.0450 -0.2262 -0.2727
 6849SOL    HW121125   0.866   6.218   8.393 -1.2605 -2.0039 -0.9287
 6849SOL    HW221126   0.894   6.113   8.498  1.5487  1.0710  1.6359
 6850SOL     OW21127   2.193   1.530   5.657 -0.5030 -0.2183  0.4111
 6850SOL    HW121128   2.210   1.528   5.563  0.3966  1.4270  0.4985
 6850SOL    HW221129   2.099   1.544   5.665 -0.6630 -0.8932 -0.2269
 6851SOL     OW21130   2.985   6.950   5.173 -0.2979  0.1493 -0.8235
 6851SOL    HW121131   2.961   7.038   5.146 -1.8913 -0.2525 -0.7870
 6851SOL    HW221132   2.927   6.893   5.123  0.3587 -0.8619 -0.4621
 6852SOL     OW21133   3.695   0.102   1.052  0.1725 -0.6355  0.4345
 6852SOL    HW121134   3.677   0.086   0.960  2.2713 -0.8856  0.0169
 6852SOL    HW221135   3.768   0.164   1.052 -0.9358  0.7298  1.9555
 6853SOL     OW21136   3.495   4.673   0.764 -0.6325  0.2402  0.1594
 6853SOL    HW121137   3.557   4.710   0.701 -1.3668  0.7463 -0.2841
 6853SOL    HW221138   3.479   4.584   0.732 -0.6589  0.3432 -0.1148
 6854SOL     OW21139   8.794   3.649   8.749  0.4960  0.7837  0.4548
 6854SOL    HW121140   8.702   3.644   8.726  0.7949 -0.8133 -0.6195
 6854SOL    HW221141   8.804   3.732   8.795 -1.3809  1.1776  0.2119
 6855SOL     OW21142   7.749   0.329   8.661 -0.2701 -0.6640  0.3858
 6855SOL    HW121143   7.824   0.270   8.649 -0.5802 -0.7681 -1.4163
 6855SOL    HW221144   7.684   0.276   8.707  0.6355 -0.6707  1.6910
 6856SOL     OW21145   7.006   1.245   5.921  0.2085 -0.1172  0.3038
 6856SOL    HW121146   6.938   1.184   5.948 -1.4009  1.3726 -0.2508
 6856SOL    HW221147   7.054   1.198   5.852 -0.4413 -1.0560  0.4719
 6857SOL     OW21148   1.330   3.068   7.446  0.0670  0.0434 -0.0298
 6857SOL    HW121149   1.349   3.154   7.410 -0.1489  0.0715 -0.0771
 6857SOL    HW221150   1.385   3.062   7.524  1.4128 -0.4779 -0.9875
 6858SOL     OW21151   6.652   3.093   4.178  0.4221  0.0309 -0.1589
 6858SOL    HW121152   6.712   3.094   4.104  1.1815 -2.0670  0.3535
 6858SOL    HW221153   6.572   3.054   4.144  0.1466  0.6906 -0.2810
 6859SOL     OW21154   9.699   9.150   2.804  0.6353 -0.0961 -0.0390
 6859SOL    HW121155   9.641   9.148   2.880  1.8441 -0.2136  0.9171
 6859SOL    HW221156   9.716   9.058   2.785  2.9035 -0.1255  1.6514
 6860SOL     OW21157   2.956   5.144   9.530 -0.4212 -0.1421  0.6573
 6860SOL    HW121158   2.974   5.185   9.445 -0.4073 -0.6619  0.4066
 6860SOL    HW221159   2.950   5.218   9.591  0.2621  0.1925  0.3351
 6861SOL     OW21160   9.382   0.542   6.073 -0.3204  0.1156  0.1981
 6861SOL    HW121161   9.303   0.568   6.026 -0.3943 -0.7179 -0.1566
 6861SOL    HW221162   9.454   0.569   6.016 -0.3649 -5.3612 -3.1724
 6862SOL     OW21163   6.987   1.518   6.635 -0.0051  0.3466 -0.1587
 6862SOL    HW121164   6.943   1.439   6.666  1.2074 -0.3157 -0.0664
 6862SOL    HW221165   7.048   1.486   6.568  0.4518  1.2100 -0.1605
 6863SOL     OW21166   4.359   4.208   4.123  0.0100  0.6049  0.4989
 6863SOL    HW121167   4.373   4.119   4.090  2.4756  0.5470  1.5197
 6863SOL    HW221168   4.317   4.196   4.208 -0.5673  0.4850  0.2044
 6864SOL     OW21169   4.322   7.502   2.666 -0.5486  0.5965  0.3864
 6864SOL    HW121170   4.383   7.575   2.673 -0.8424  0.8274  0.5692
 6864SOL    HW221171   4.273   7.518   2.585 -0.8705  0.8044  0.6191
 6865SOL     OW21172   7.104   4.588   6.370  0.0591  0.0984 -0.3363
 6865SOL    HW121173   7.167   4.654   6.398  1.3357 -0.5463 -1.5458
 6865SOL    HW221174   7.154   4.530   6.312 -1.1182 -1.6836  0.3319
 6866SOL     OW21175   5.318   5.403   2.998 -0.0763  0.4574 -0.4888
 6866SOL    HW121176   5.263   5.369   3.068  1.8144 -1.1881  0.2837
 6866SOL    HW221177   5.383   5.457   3.042  0.1458  0.7416 -1.1497
 6867SOL     OW21178   6.854   5.767   9.874  0.3382 -0.4478  0.1724
 6867SOL    HW121179   6.860   5.693   9.934 -1.7587 -0.5571  0.3240
 6867SOL    HW221180   6.847   5.844   9.932  0.1237 -0.3730  0.0484
 6868SOL     OW21181   9.179   8.521   5.682  0.5232 -0.4347  0.3720
 6868SOL    HW121182   9.214   8.567   5.758  1.3422 -2.7769  1.4975
 6868SOL    HW221183   9.179   8.587   5.613 -0.6626  1.9074  2.4579
 6869SOL     OW21184   3.542   1.616   7.669  0.5965  0.0317 -0.2289
 6869SOL    HW121185   3.471   1.604   7.606 -0.5562  0.5648  0.9074
 6869SOL    HW221186   3.497   1.630   7.753  2.0823 -1.4048  0.8596
 6870SOL     OW21187   4.841   2.744   8.106 -0.3294 -0.4078 -0.2692
 6870SOL    HW121188   4.819   2.751   8.013  0.0840 -3.5709 -0.7148
 6870SOL    HW221189   4.775   2.685   8.141 -0.0551  0.1974  1.3235
 6871SOL     OW21190   1.780   3.543   0.823 -0.2140  0.2041 -0.0565
 6871SOL    HW121191   1.800   3.566   0.732  2.2008  1.4551  0.7077
 6871SOL    HW221192   1.733   3.619   0.857 -0.5360  0.0094 -0.0592
 6872SOL     OW21193   5.350   6.774   8.215  0.0325 -0.5353 -0.4218
 6872SOL    HW121194   5.335   6.688   8.176  0.9125 -1.4143  1.0781
 6872SOL    HW221195   5.411   6.757   8.287  0.5084  1.4077 -0.3117
 6873SOL     OW21196   4.314   6.169   2.782  0.0282  0.3881  0.5260
 6873SOL    HW121197   4.403   6.170   2.817  0.2774  1.9769 -0.0942
 6873SOL    HW221198   4.283   6.080   2.799  0.7467  0.5491  3.2024
 6874SOL     OW21199   1.639   1.954   0.532  0.6247  0.2258 -0.1077
 6874SOL    HW121200   1.691   1.957   0.612 -0.7583  1.3512  0.8113
 6874SOL    HW221201   1.629   2.045   0.507  0.3089 -0.0663 -1.0670
 6875SOL     OW21202   8.760   1.999   6.121  0.0866  0.1194 -0.0020
 6875SOL    HW121203   8.712   2.082   6.113 -0.8568 -0.4141  0.0516
 6875SOL    HW221204   8.774   1.989   6.215  0.0400  0.1244  0.0053
 6876SOL     OW21205   9.401   0.693   3.877  0.0779  0.5291 -0.5430
 6876SOL    HW121206   9.328   0.663   3.822 -1.4775  1.0065  1.1437
 6876SOL    HW221207   9.406   0.787   3.861 -0.7934  0.7776  0.5427
 6877SOL     OW21208   4.974   4.813   8.794  0.0418  0.4841 -0.1911
 6877SOL    HW121209   4.879   4.815   8.793 -0.0297 -0.0419  1.7342
 6877SOL    HW221210   5.000   4.899   8.760 -0.9952 -0.4133 -3.5464
 6878SOL     OW21211   8.196   8.279   0.145  0.3126  0.1120  0.1533
 6878SOL    HW121212   8.127   8.306   0.084  1.2933 -1.5123 -1.7788
 6878SOL    HW221213   8.157   8.292   0.232 -1.8855  0.6074 -0.8345
 6879SOL     OW21214   9.316   8.173   5.496 -0.2356 -0.0573  0.4164
 6879SOL    HW121215   9.230   8.142   5.527 -1.5326  3.5855  0.9350
 6879SOL    HW221216   9.313   8.158   5.402  0.5155 -3.9585  0.8170
 6880SOL     OW21217   2.109   6.647   3.909  0.0945 -0.8842  0.1339
 6880SOL    HW121218   2.189   6.699   3.920 -0.3373  0.2633 -1.6794
 6880SOL    HW221219   2.136   6.571   3.858  0.1851 -0.9963  0.3440
 6881SOL     OW21220   0.541   5.504   3.332 -0.4538 -0.1294 -0.1262
 6881SOL    HW121221   0.469   5.447   3.362  0.9306 -1.9026 -0.0149
 6881SOL    HW221222   0.608   5.494   3.399  0.0856  1.1585 -0.4588
 6882SOL     OW21223   8.222   4.360   2.895  0.7274  0.8466 -0.6478
 6882SOL    HW121224   8.209   4.383   2.987  0.9412 -2.0301  0.1849
 6882SOL    HW221225   8.315   4.378   2.879  1.9038 -2.6564  1.1271
 6883SOL     OW21226   9.359   0.024   7.133  0.2283 -0.8250 -0.0503
 6883SOL    HW121227   9.333   0.114   7.114  1.7186 -0.2119  0.6807
 6883SOL    HW221228   9.276  -0.025   7.136 -0.5132  0.2861 -1.5366
 6884SOL     OW21229   2.790   8.858   3.508  0.2080 -0.3143 -0.1684
 6884SOL    HW121230   2.827   8.794   3.569  0.8297 -0.6825 -0.9125
 6884SOL    HW221231   2.699   8.830   3.496  0.1765 -0.4334  0.3231
 6885SOL     OW21232   6.433   1.578   2.007  0.5807  0.6126  0.2723
 6885SOL    HW121233   6.413   1.571   2.100 -1.7986 -2.8816 -0.3179
 6885SOL    HW221234   6.513   1.527   1.996 -0.5665 -1.2198  0.1151
 6886SOL     OW21235   3.869   4.948   9.765 -0.7083 -0.0334  0.0341
 6886SOL    HW121236   3.939   4.907   9.716 -0.4799  2.0112 -1.4789
 6886SOL    HW221237   3.903   4.957   9.854  0.0789 -1.0145 -0.1578
 6887SOL     OW21238   0.289   5.516   8.387  0.0461 -0.1172  0.0455
 6887SOL    HW121239   0.229   5.495   8.459 -0.0477  1.3502  0.4215
 6887SOL    HW221240   0.370   5.470   8.408  0.1186  0.5293  1.2706
 6888SOL     OW21241   0.133   7.640   4.236  0.4449 -0.4889 -0.0766
 6888SOL    HW121242   0.087   7.623   4.153  0.6082  0.5868 -0.3949
 6888SOL    HW221243   0.173   7.556   4.258  0.0559 -0.8955 -0.8769
 6889SOL     OW21244   5.708   7.385   5.301  0.0435  0.1534  0.1139
 6889SOL    HW121245   5.780   7.324   5.287 -0.2999 -0.5774  1.3483
 6889SOL    HW221246   5.746   7.472   5.286  0.4472 -0.3386 -2.0380
 6890SOL     OW21247   8.960   8.491   2.806 -0.8014  0.7008 -0.1650
 6890SOL    HW121248   8.877   8.527   2.835 -1.1318  0.2984 -0.5854
 6890SOL    HW221249   9.023   8.563   2.815 -1.1638  0.9605  0.2967
 6891SOL     OW21250   5.003   1.348   2.418  0.3587  0.1148 -0.0884
 6891SOL    HW121251   4.969   1.437   2.406 -0.1892 -0.0165  0.4428
 6891SOL    HW221252   4.928   1.297   2.449  1.0562 -0.1513  1.2358
 6892SOL     OW21253   7.517   5.587   3.892  0.0564  0.0445  0.0371
 6892SOL    HW121254   7.510   5.492   3.894 -2.0601  0.1446  0.0856
 6892SOL    HW221255   7.432   5.618   3.925  0.9458  1.9579  0.7250
 6893SOL     OW21256   9.265   6.140   9.179 -0.1984 -0.0719  0.1371
 6893SOL    HW121257   9.357   6.148   9.151 -0.2295 -0.1585  0.0104
 6893SOL    HW221258   9.220   6.105   9.102 -0.3400 -0.0192  0.1974
 6894SOL     OW21259   5.818   3.464   8.965  0.9592  0.1561  0.7591
 6894SOL    HW121260   5.876   3.409   9.018  1.1020 -0.8671 -0.4343
 6894SOL    HW221261   5.875   3.506   8.901  0.3025 -1.6918 -1.1211
 6895SOL     OW21262   0.994   0.511   0.380  0.6846  0.3034 -0.3277
 6895SOL    HW121263   1.056   0.580   0.402  0.1222  0.9952 -0.8507
 6895SOL    HW221264   0.927   0.516   0.448  1.0848 -0.3170  0.1280
 6896SOL     OW21265   5.816   4.088   9.316  0.1976 -0.0217  0.8397
 6896SOL    HW121266   5.911   4.088   9.329  0.1767 -0.0406  0.9938
 6896SOL    HW221267   5.783   4.030   9.384 -0.1190  1.7251  2.2543
 6897SOL     OW21268   7.558   0.785   9.556 -0.1259  0.3971  0.7631
 6897SOL    HW121269   7.560   0.807   9.463 -0.0036  2.3363  1.1842
 6897SOL    HW221270   7.465   0.790   9.580 -0.6939 -3.5472  0.0760
 6898SOL     OW21271   8.194   3.442   0.065 -0.1597 -0.9368  0.3563
 6898SOL    HW121272   8.255   3.503   0.026 -1.8901  0.7241  0.0821
 6898SOL    HW221273   8.135   3.497   0.117 -1.4607 -2.4227  0.5396
 6899SOL     OW21274   2.319   0.748   2.563 -0.0065 -0.0887  0.0529
 6899SOL    HW121275   2.396   0.745   2.506  0.1317 -0.9086  0.2786
 6899SOL    HW221276   2.301   0.657   2.584  0.3676  0.2238  1.8925
 6900SOL     OW21277   8.471   4.511   8.086  1.0161 -0.5464 -0.0952
 6900SOL    HW121278   8.471   4.486   8.179 -0.9973 -0.7429 -0.0876
 6900SOL    HW221279   8.433   4.599   8.086  0.7370 -0.6627 -0.7364
 6901SOL     OW21280   9.176   3.503   6.586  0.4620  0.2857 -0.3980
 6901SOL    HW121281   9.134   3.522   6.670  0.3760 -0.3030 -0.2981
 6901SOL    HW221282   9.212   3.415   6.597  1.8682  0.8377 -0.4330
 6902SOL     OW21283   3.193   3.675   7.680  0.3146  0.1471  0.0821
 6902SOL    HW121284   3.283   3.644   7.672  0.4672  0.5388  0.2301
 6902SOL    HW221285   3.186   3.745   7.615  0.4054  0.7491  0.7002
 6903SOL     OW21286   5.163   2.247   0.079  0.1248 -0.4441 -0.4130
 6903SOL    HW121287   5.226   2.196   0.029  0.3408  0.7704 -1.4477
 6903SOL    HW221288   5.092   2.186   0.098  1.6805 -1.9278  1.0194
 6904SOL     OW21289   5.309   9.713   0.791 -0.1133 -0.1450  0.3734
 6904SOL    HW121290   5.216   9.722   0.769 -1.2134 -2.8644  3.1748
 6904SOL    HW221291   5.343   9.652   0.725 -0.4878  0.2998 -0.2415
 6905SOL     OW21292   3.975   5.097   6.722  0.1050 -0.0370 -0.1677
 6905SOL    HW121293   3.956   5.191   6.721  0.3364  0.2656  4.2194
 6905SOL    HW221294   3.905   5.058   6.670 -0.8875  2.4290 -0.8230
 6906SOL     OW21295   4.517   0.143   8.077 -0.0824  0.3811  0.1350
 6906SOL    HW121296   4.480   0.192   8.004  0.5676  0.7463  0.0478
 6906SOL    HW221297   4.509   0.051   8.050  0.9947  0.5482 -0.8098
 6907SOL     OW21298   1.402   2.174   2.848 -0.4422 -0.5029 -0.2345
 6907SOL    HW121299   1.339   2.114   2.806  0.2473 -0.8669 -0.7605
 6907SOL    HW221300   1.483   2.123   2.854 -0.2881 -0.1553  0.7628
 6908SOL     OW21301   8.407   3.986   3.552 -0.1821  0.8087 -0.1764
 6908SOL    HW121302   8.418   4.069   3.600  1.3865  0.5610 -0.0442
 6908SOL    HW221303   8.496   3.954   3.541 -0.7421 -0.6179 -0.6870
 6909SOL     OW21304   7.095   5.571   0.016 -0.2394 -0.7651 -0.3876
 6909SOL    HW121305   7.147   5.491   0.025 -0.0919 -0.4711  2.7761
 6909SOL    HW221306   7.159   5.642   0.017 -0.5142 -0.5043  0.9090
 6910SOL     OW21307   1.869   2.648   7.517  0.4486  0.3777  0.2097
 6910SOL    HW121308   1.944   2.683   7.565  0.0234  0.0276  1.1468
 6910SOL    HW221309   1.880   2.553   7.523 -1.2293  0.2511  2.2988
 6911SOL     OW21310   8.943   1.706   9.809 -0.2030  0.2789 -0.5904
 6911SOL    HW121311   8.884   1.752   9.749  0.8805  0.9610 -1.1529
 6911SOL    HW221312   9.029   1.714   9.770  0.4931  0.4528  0.9057
 6912SOL     OW21313   5.320   5.576   4.077 -0.3735  0.6424  0.6929
 6912SOL    HW121314   5.225   5.571   4.067 -0.3332 -1.7385  0.9601
 6912SOL    HW221315   5.348   5.638   4.010 -1.9802  0.3140 -0.3343
 6913SOL     OW21316   2.424   7.282   6.432 -0.2915  0.2001 -0.0327
 6913SOL    HW121317   2.369   7.258   6.358 -1.8219  1.0307  0.7985
 6913SOL    HW221318   2.416   7.210   6.493 -0.4341  0.3111  0.0795
 6914SOL     OW21319   9.421   2.241   2.786 -0.0223 -0.1824 -0.3987
 6914SOL    HW121320   9.398   2.150   2.806 -0.8785  0.1393  0.1607
 6914SOL    HW221321   9.503   2.255   2.833 -1.6092  0.3179  2.4435
 6915SOL     OW21322   1.334   0.133   1.529 -0.2242 -0.3590  0.0288
 6915SOL    HW121323   1.402   0.116   1.463  0.6722 -0.5874  0.9858
 6915SOL    HW221324   1.252   0.111   1.485  0.3472 -0.4614 -1.0239
 6916SOL     OW21325   7.849   1.421   2.935  0.0182 -0.3439  0.2864
 6916SOL    HW121326   7.849   1.325   2.936  0.7943 -0.3883 -0.9526
 6916SOL    HW221327   7.939   1.445   2.915 -0.0673  0.6676  1.0500
 6917SOL     OW21328   6.998   9.703   3.339  0.6014  0.4980 -0.5946
 6917SOL    HW121329   6.983   9.756   3.261  0.2206 -0.2734 -1.0589
 6917SOL    HW221330   6.917   9.710   3.390  0.7512  0.7879 -0.3916
 6918SOL     OW21331   0.224   5.382   0.993  0.5280  0.0999  0.1422
 6918SOL    HW121332   0.188   5.447   1.053  0.0834 -0.5745  0.6359
 6918SOL    HW221333   0.250   5.431   0.916 -0.7403  0.7310  0.0897
 6919SOL     OW21334   7.349   3.845   8.976 -0.4192 -0.1562 -0.5246
 6919SOL    HW121335   7.257   3.843   8.950 -1.1442 -0.3326  1.8431
 6919SOL    HW221336   7.364   3.760   9.017  1.4715 -1.0225 -2.7694
 6920SOL     OW21337   8.915   1.727   0.849  0.4143 -0.3274  0.0162
 6920SOL    HW121338   8.923   1.658   0.784 -0.5419 -0.3636 -0.0806
 6920SOL    HW221339   8.839   1.778   0.820  1.6683  1.3822 -0.4920
 6921SOL     OW21340   0.884   8.014   1.327  0.0597 -0.3027 -0.2089
 6921SOL    HW121341   0.879   7.993   1.420 -1.4696  1.3325  0.1314
 6921SOL    HW221342   0.862   8.107   1.322  0.2560 -0.3179 -2.1979
 6922SOL     OW21343   6.879   7.171   6.885 -0.7138  0.0182  0.1524
 6922SOL    HW121344   6.879   7.237   6.955  1.6110  0.1442  0.0924
 6922SOL    HW221345   6.865   7.221   6.805 -3.9123 -0.1783  0.4583
 6923SOL     OW21346   5.416   0.394   3.216  0.2342  0.0310 -0.2976
 6923SOL    HW121347   5.330   0.354   3.232 -0.7561  2.2979  0.6193
 6923SOL    HW221348   5.413   0.422   3.125  1.3147 -2.6734 -1.2465
 6924SOL     OW21349   6.860   8.040   7.060 -0.4255 -0.3517  0.0585
 6924SOL    HW121350   6.822   7.965   7.016 -0.6055 -0.4377  0.3612
 6924SOL    HW221351   6.843   8.114   7.001 -0.7968 -0.4405  0.0564
 6925SOL     OW21352   9.509   6.539   5.174  0.7417  0.1427  0.4079
 6925SOL    HW121353   9.575   6.521   5.240  0.5571  1.6944  1.0764
 6925SOL    HW221354   9.557   6.582   5.103  0.5795  0.6728  0.6092
 6926SOL     OW21355   9.551   4.086   9.714  0.0033 -0.3452 -0.0094
 6926SOL    HW121356   9.469   4.117   9.677 -0.1684 -1.3714 -0.5242
 6926SOL    HW221357   9.546   3.990   9.706  1.3197 -0.4098 -0.2143
 6927SOL     OW21358   4.528   4.382   0.992  0.7182  0.1134 -0.5437
 6927SOL    HW121359   4.475   4.442   0.939  0.3419  1.4439  1.2483
 6927SOL    HW221360   4.555   4.313   0.931  1.1321  2.0613 -2.6977
 6928SOL     OW21361   2.368   6.520   8.312  0.5147 -0.0102 -0.3108
 6928SOL    HW121362   2.363   6.580   8.386  1.0018 -1.4591  0.9568
 6928SOL    HW221363   2.457   6.532   8.278  1.0304 -0.8061  0.6870
 6929SOL     OW21364   4.000   1.483   4.503  0.1937  0.1735  0.4566
 6929SOL    HW121365   3.962   1.481   4.591 -1.4488  1.9183 -0.1521
 6929SOL    HW221366   3.925   1.483   4.445  1.2248  0.6326 -0.9200
 6930SOL     OW21367   0.772   4.133   9.513  0.5499 -0.3823 -0.3241
 6930SOL    HW121368   0.841   4.145   9.578 -0.3930  0.7077  0.5323
 6930SOL    HW221369   0.726   4.217   9.511  0.4813 -0.4154 -2.3524
 6931SOL     OW21370   0.096   8.602   6.016 -0.2404 -0.4818  0.3346
 6931SOL    HW121371   0.025   8.637   6.071  0.2259 -2.2355  2.1629
 6931SOL    HW221372   0.052   8.542   5.956 -0.7129  1.2042 -1.0935
 6932SOL     OW21373   6.373   6.453   6.228 -0.0504 -0.7238 -0.3508
 6932SOL    HW121374   6.378   6.359   6.211 -1.2179 -0.8904  0.1541
 6932SOL    HW221375   6.287   6.479   6.194 -0.1322 -0.0285  0.3803
 6933SOL     OW21376   9.921   3.934   2.609 -0.0925  0.2287  0.2171
 6933SOL    HW121377   9.838   3.981   2.616  0.2730  0.9934 -0.4398
 6933SOL    HW221378   9.955   3.959   2.523  0.7786 -0.1392  0.4486
 6934SOL     OW21379   0.167   7.516   5.422  0.2900 -0.9867 -0.0078
 6934SOL    HW121380   0.083   7.561   5.429  0.0514 -1.5398  0.9001
 6934SOL    HW221381   0.161   7.444   5.486  1.0919 -1.6011 -0.6068
 6935SOL     OW21382   1.843   9.660   1.833 -0.3354 -0.1096 -0.1912
 6935SOL    HW121383   1.856   9.601   1.759  0.2666 -1.2185  0.7711
 6935SOL    HW221384   1.770   9.716   1.806 -0.0614 -0.4099 -1.6543
 6936SOL     OW21385   2.417   7.547   9.773  0.3170 -0.1821 -0.3260
 6936SOL    HW121386   2.477   7.606   9.727  0.5488 -0.4123 -0.3214
 6936SOL    HW221387   2.474   7.495   9.830  0.0080  0.2784  0.4185
 6937SOL     OW21388   6.342   3.299   0.384  0.2271 -0.3903 -0.1936
 6937SOL    HW121389   6.398   3.369   0.418  3.6094 -2.8419 -0.2496
 6937SOL    HW221390   6.273   3.345   0.336  1.6189  2.8976  0.6820
 6938SOL     OW21391   4.342   3.500   8.703 -0.1961 -0.3170  0.3753
 6938SOL    HW121392   4.405   3.558   8.746 -0.7319  1.5209 -1.1581
 6938SOL    HW221393   4.395   3.445   8.646  0.2772 -1.0608  1.4927
 6939SOL     OW21394   2.331   8.612   6.477 -0.0974 -0.2947  0.0177
 6939SOL    HW121395   2.327   8.524   6.514  1.3573 -0.5806 -0.4400
 6939SOL    HW221396   2.270   8.663   6.530 -1.1550 -1.6213  0.1338
 6940SOL     OW21397   9.512   1.024   5.307  0.5492  0.5497  0.0320
 6940SOL    HW121398   9.417   1.025   5.319  0.7591  0.3125  2.0049
 6940SOL    HW221399   9.529   1.093   5.243 -1.0004  0.0890 -0.9304
 6941SOL     OW21400   8.607   4.842   8.741  0.2593  0.3539  0.0018
 6941SOL    HW121401   8.524   4.818   8.782 -0.5544  1.3972 -0.9399
 6941SOL    HW221402   8.587   4.923   8.693  2.3051  1.7032  1.2913
 6942SOL     OW21403   1.372   2.360   0.374 -0.0810  0.3194 -0.1698
 6942SOL    HW121404   1.386   2.446   0.336 -1.7837  1.4811  1.6094
 6942SOL    HW221405   1.382   2.374   0.469 -3.2303 -0.7184  0.4337
 6943SOL     OW21406   6.325   8.097   7.230  0.4952 -0.2733 -0.7931
 6943SOL    HW121407   6.340   8.004   7.212 -0.5930 -1.0524  1.7442
 6943SOL    HW221408   6.404   8.126   7.276  0.8516  0.0823 -1.6204
 6944SOL     OW21409   2.198   9.675   9.689 -0.0004 -0.5523  0.4861
 6944SOL    HW121410   2.164   9.635   9.608 -0.9388 -0.8208  1.0004
 6944SOL    HW221411   2.120   9.707   9.734  0.6680  1.1914  0.4701
 6945SOL     OW21412   0.235   1.289   0.088  0.4008  0.3236 -0.2405
 6945SOL    HW121413   0.224   1.291  -0.007  0.9777 -0.7151 -0.3440
 6945SOL    HW221414   0.169   1.350   0.121  0.5093  1.0592 -1.3261
 6946SOL     OW21415   0.338   5.219   6.747  0.0858  0.0808  0.2241
 6946SOL    HW121416   0.350   5.152   6.681 -1.1991  1.0261 -1.0302
 6946SOL    HW221417   0.310   5.172   6.826  1.1388 -1.0056 -0.0337
 6947SOL     OW21418   1.235   0.911   2.861 -0.4263  0.1973 -0.1383
 6947SOL    HW121419   1.257   0.974   2.929  2.5944 -0.8420  0.0054
 6947SOL    HW221420   1.153   0.943   2.824 -0.5889  2.4708  1.9393
 6948SOL     OW21421   6.387   7.160   0.936  0.1809  0.1994 -0.2003
 6948SOL    HW121422   6.310   7.216   0.933 -1.0376 -0.8625  4.3062
 6948SOL    HW221423   6.458   7.217   0.968 -0.0465  0.0821  0.5264
 6949SOL     OW21424   6.845   3.552   9.029  0.4457 -0.5878  0.0265
 6949SOL    HW121425   6.781   3.505   8.975 -0.1415  0.7625 -0.4923
 6949SOL    HW221426   6.791   3.605   9.087  1.0640  1.2425 -1.0093
 6950SOL     OW21427   8.278   8.495   7.965  0.0268  0.0934  0.3443
 6950SOL    HW121428   8.340   8.442   7.915 -0.1019 -0.2896  0.5804
 6950SOL    HW221429   8.193   8.478   7.924  0.0039  0.2037  0.3471
 6951SOL     OW21430   1.974   8.428   7.639 -0.5892  0.0555 -0.4442
 6951SOL    HW121431   1.933   8.347   7.670  0.0910  0.3952  1.5126
 6951SOL    HW221432   2.066   8.418   7.665  0.0843  0.3573 -2.5395
 6952SOL     OW21433   0.789   3.934   5.989 -0.1141  0.4148 -0.1568
 6952SOL    HW121434   0.760   3.878   6.062 -0.5774  0.6939 -0.1255
 6952SOL    HW221435   0.853   3.993   6.029  1.7277 -1.2058 -0.5317
 6953SOL     OW21436   9.365   9.064   9.375 -0.0913  0.4133  0.3393
 6953SOL    HW121437   9.412   9.106   9.447  0.5624  1.2666 -0.5667
 6953SOL    HW221438   9.433   9.038   9.313 -0.7410  1.5634 -0.9366
 6954SOL     OW21439   2.662   5.402   2.016 -0.3258  0.3343 -0.2219
 6954SOL    HW121440   2.741   5.383   2.068 -1.6213 -1.5110  1.2167
 6954SOL    HW221441   2.618   5.317   2.009 -1.0007  0.8200 -3.1122
 6955SOL     OW21442   0.435   2.186   7.811 -0.2712  0.1825 -0.6952
 6955SOL    HW121443   0.434   2.110   7.754 -0.1400  0.0427 -0.5161
 6955SOL    HW221444   0.360   2.238   7.784 -1.0107 -0.5456 -0.1021
 6956SOL     OW21445   6.139   2.868   5.032 -0.2415 -0.1126 -0.1249
 6956SOL    HW121446   6.077   2.811   5.077  0.2237 -1.0356 -0.6231
 6956SOL    HW221447   6.150   2.827   4.946 -0.5033  1.1707 -0.7987
 6957SOL     OW21448   0.621   1.452   3.781  0.3369 -0.6071 -0.2483
 6957SOL    HW121449   0.571   1.467   3.701 -0.4945  1.3512  0.5796
 6957SOL    HW221450   0.559   1.412   3.842 -0.0759  1.0604  0.5020
 6958SOL     OW21451   8.040   1.234   0.956 -0.2785  0.3766  0.0326
 6958SOL    HW121452   8.103   1.165   0.974 -0.0196  0.4038 -0.7274
 6958SOL    HW221453   8.088   1.298   0.904 -0.4382  1.2712  0.9633
 6959SOL     OW21454   1.858   0.284   4.891 -0.0286  0.3854  0.3760
 6959SOL    HW121455   1.949   0.293   4.863 -0.1374 -0.3989 -0.2678
 6959SOL    HW221456   1.823   0.213   4.837 -1.7158  2.2570 -1.1533
 6960SOL     OW21457   0.260   2.820   6.739  0.0179  0.5249 -0.1106
 6960SOL    HW121458   0.262   2.726   6.761 -1.2642  0.5755  0.3060
 6960SOL    HW221459   0.347   2.851   6.763  0.7048 -0.6982 -0.9259
 6961SOL     OW21460   8.261   2.161   5.808 -0.5490 -0.4338 -0.4661
 6961SOL    HW121461   8.259   2.229   5.741 -0.8523  0.1745  0.1466
 6961SOL    HW221462   8.269   2.209   5.890  0.1757 -1.1833 -0.0799
 6962SOL     OW21463   5.651   4.182   6.608 -0.1300 -0.1473  0.0934
 6962SOL    HW121464   5.674   4.259   6.556 -3.3327 -0.1571 -1.5410
 6962SOL    HW221465   5.735   4.147   6.638  1.6844  1.4850 -2.7165
 6963SOL     OW21466   1.249   4.441   3.826 -0.4243  0.3463 -0.3113
 6963SOL    HW121467   1.279   4.383   3.756 -1.3006  0.4116 -0.7603
 6963SOL    HW221468   1.154   4.445   3.813 -0.5160  0.8524  0.5096
 6964SOL     OW21469   2.987   1.222   7.424  0.4065 -0.4220  0.6195
 6964SOL    HW121470   2.910   1.240   7.479 -0.0293  0.1490 -0.1595
 6964SOL    HW221471   2.958   1.242   7.335  1.3105 -0.6895  0.2533
 6965SOL     OW21472   6.841   8.858   7.290 -0.7197  0.0541 -0.2891
 6965SOL    HW121473   6.862   8.811   7.210 -1.7174 -1.3217  0.2063
 6965SOL    HW221474   6.772   8.919   7.265  0.2298  0.9296 -0.8331
 6966SOL     OW21475   3.165   5.075   3.096 -0.0810  0.0847  0.5362
 6966SOL    HW121476   3.239   5.053   3.040 -0.0427  1.5251 -0.0241
 6966SOL    HW221477   3.204   5.127   3.167 -0.3505 -0.4163  1.0601
 6967SOL     OW21478   5.516   7.843   3.768 -0.7304 -0.1113  0.2025
 6967SOL    HW121479   5.430   7.821   3.734 -0.2630 -1.9210  0.0626
 6967SOL    HW221480   5.570   7.766   3.748  0.9920  1.0729  0.0435
 6968SOL     OW21481   8.686   5.721   7.659  0.0813  0.2491  0.1199
 6968SOL    HW121482   8.769   5.675   7.672  0.2482  0.2818 -0.7995
 6968SOL    HW221483   8.632   5.659   7.610  0.2174  0.9142 -0.8981
 6969SOL     OW21484   0.776   1.179   7.480  0.4315  0.1737 -0.0066
 6969SOL    HW121485   0.838   1.187   7.552  0.6026 -4.0727  0.5844
 6969SOL    HW221486   0.815   1.114   7.422 -2.1570 -0.5448 -1.0917
 6970SOL     OW21487   4.045   7.690   4.144 -0.6278 -0.2758 -0.1737
 6970SOL    HW121488   4.076   7.626   4.080 -1.6304 -0.3488 -0.5990
 6970SOL    HW221489   4.019   7.637   4.220  1.4696 -0.1230  0.7145
 6971SOL     OW21490   8.724   8.830   0.781 -0.0180  0.6597 -0.0654
 6971SOL    HW121491   8.694   8.864   0.865 -0.2794  1.2177 -0.3848
 6971SOL    HW221492   8.769   8.904   0.739 -0.9561  0.7569 -0.9455
 6972SOL     OW21493   3.202   5.131   2.124 -0.9360  0.4267  0.5195
 6972SOL    HW121494   3.224   5.158   2.035  0.5001  2.8872  1.5153
 6972SOL    HW221495   3.126   5.074   2.114 -0.2653 -0.1060 -2.3216
 6973SOL     OW21496   2.437   4.263   1.294  0.2710 -0.6903  0.2552
 6973SOL    HW121497   2.453   4.175   1.327 -0.5003 -0.4175  1.4444
 6973SOL    HW221498   2.490   4.320   1.351  1.5230 -0.4339 -1.1088
 6974SOL     OW21499   0.211   5.149   8.592  0.5245 -0.2024  0.1569
 6974SOL    HW121500   0.180   5.223   8.644 -0.2818 -0.2857 -0.1920
 6974SOL    HW221501   0.175   5.165   8.505 -0.3425 -1.4073  0.2690
 6975SOL     OW21502   9.720   0.867   0.710 -0.2281  0.5613  0.3032
 6975SOL    HW121503   9.691   0.853   0.620 -1.7289  0.9768  0.6913
 6975SOL    HW221504   9.716   0.962   0.721  1.5000  0.6678  0.3465
 6976SOL     OW21505   3.861   4.844   8.492  0.2131 -0.0445  0.2701
 6976SOL    HW121506   3.889   4.877   8.577 -1.9454  0.1413  0.9639
 6976SOL    HW221507   3.804   4.770   8.513  1.6662 -1.6607 -1.1399
 6977SOL     OW21508   7.470   6.339   9.880 -0.1348  0.5640 -0.3443
 6977SOL    HW121509   7.435   6.286   9.951 -0.5616  0.3000 -0.7437
 6977SOL    HW221510   7.459   6.285   9.802  0.6797  0.6984 -0.5558
 6978SOL     OW21511   9.777   8.957   0.808  0.2105  0.1636 -0.1914
 6978SOL    HW121512   9.682   8.971   0.815 -0.7118 -4.1452 -1.1328
 6978SOL    HW221513   9.804   9.013   0.735 -1.3622  2.0714  0.5780
 6979SOL     OW21514   5.584   6.691   4.123 -0.3438 -0.3511  0.2743
 6979SOL    HW121515   5.510   6.646   4.083 -0.0666 -1.3528  0.8648
 6979SOL    HW221516   5.562   6.784   4.115 -0.6333 -0.5348 -1.5053
 6980SOL     OW21517   8.852   1.750   2.902 -0.6830 -0.3719  0.0217
 6980SOL    HW121518   8.795   1.673   2.908 -0.9331 -0.1231  1.3939
 6980SOL    HW221519   8.857   1.770   2.809 -1.8495 -1.1462 -0.2306
 6981SOL     OW21520   1.126   6.748   4.366  0.1569 -0.0676 -0.2302
 6981SOL    HW121521   1.056   6.799   4.326 -0.6568 -1.0030 -0.0416
 6981SOL    HW221522   1.092   6.659   4.369  0.2575 -0.1003  2.2955
 6982SOL     OW21523   3.098   3.222   4.351  0.0644 -0.4653 -0.0197
 6982SOL    HW121524   3.030   3.156   4.335 -0.3703  0.1512 -0.8172
 6982SOL    HW221525   3.056   3.286   4.409  0.3804 -0.7139  0.4928
 6983SOL     OW21526   3.553   9.619   1.538  0.3297 -0.2702 -0.2232
 6983SOL    HW121527   3.508   9.699   1.512  1.0048  0.5183  0.9303
 6983SOL    HW221528   3.610   9.646   1.610 -0.2757 -2.0238  0.9708
 6984SOL     OW21529   2.766   3.124   0.299  0.0318 -0.1300 -0.1175
 6984SOL    HW121530   2.736   3.149   0.387  1.1455  0.0619  0.2320
 6984SOL    HW221531   2.690   3.138   0.243 -0.7804 -0.4722  0.8493
 6985SOL     OW21532   5.010   1.507   3.146  0.1221 -0.0708  0.0733
 6985SOL    HW121533   5.068   1.578   3.174  0.3158 -0.0258 -0.4421
 6985SOL    HW221534   5.000   1.519   3.052  1.0034 -1.3475 -0.2130
 6986SOL     OW21535   9.556   4.132   0.674 -0.6394 -0.3364  0.2593
 6986SOL    HW121536   9.566   4.109   0.582 -0.5661  0.1097  0.1569
 6986SOL    HW221537   9.474   4.089   0.701  0.1002 -1.7115  0.3841
 6987SOL     OW21538   3.528   8.864   4.451  0.1866  0.0219 -0.6663
 6987SOL    HW121539   3.457   8.805   4.476 -1.4907  1.6638 -1.2994
 6987SOL    HW221540   3.506   8.947   4.493  2.6844  0.1799  0.5263
 6988SOL     OW21541   0.159   3.967   4.160 -0.1101  0.1859 -0.5393
 6988SOL    HW121542   0.212   4.014   4.096 -0.3366  1.0205 -0.1232
 6988SOL    HW221543   0.165   4.019   4.240 -2.1190  0.7143 -0.6814
 6989SOL     OW21544   5.844   2.389   6.117  0.4484 -0.1840  0.7913
 6989SOL    HW121545   5.843   2.326   6.188  1.0775  0.7307  1.6294
 6989SOL    HW221546   5.782   2.457   6.143  1.8926  1.0041  1.2926
 6990SOL     OW21547   6.536   5.804   2.347 -0.0882  0.3953  0.0124
 6990SOL    HW121548   6.590   5.734   2.311  0.3316  0.2533  0.9024
 6990SOL    HW221549   6.464   5.813   2.284 -0.8115 -1.6444  0.4535
 6991SOL     OW21550   3.105   4.258   3.232 -0.5625 -0.0149  0.0725
 6991SOL    HW121551   3.018   4.277   3.269 -0.2956 -1.6951  1.7036
 6991SOL    HW221552   3.086   4.204   3.155 -0.9831 -0.4053  0.4392
 6992SOL     OW21553   4.480   0.038   3.365 -0.0297 -0.0255 -0.6771
 6992SOL    HW121554   4.396  -0.003   3.385 -0.2268  0.7173  0.0202
 6992SOL    HW221555   4.540   0.004   3.432  0.5298 -1.4312 -1.8196
 6993SOL     OW21556   4.286   8.241   3.923  0.1573 -0.2614 -1.0516
 6993SOL    HW121557   4.311   8.196   4.004  0.2364 -1.1461 -1.5568
 6993SOL    HW221558   4.321   8.330   3.934 -1.7166  0.3314  0.8190
 6994SOL     OW21559   5.744   2.096   2.717 -0.4003  0.3249 -0.1206
 6994SOL    HW121560   5.737   2.188   2.689 -0.1108 -0.0498 -1.5135
 6994SOL    HW221561   5.749   2.047   2.635  1.3237 -0.7935  0.5910
 6995SOL     OW21562   4.588   8.200   5.500 -0.1959  0.3560 -0.1606
 6995SOL    HW121563   4.545   8.285   5.506 -2.6453 -0.8640  0.8596
 6995SOL    HW221564   4.680   8.218   5.523 -0.6214  2.7059 -0.0897
 6996SOL     OW21565   3.170   3.741   4.040  0.0645 -0.0598  0.3073
 6996SOL    HW121566   3.092   3.696   4.072  1.3107 -0.5386  2.9035
 6996SOL    HW221567   3.232   3.670   4.021  0.7766  0.3964  0.8742
 6997SOL     OW21568   7.355   1.521   4.279 -0.2314 -0.4463  0.0236
 6997SOL    HW121569   7.351   1.458   4.207 -2.1229 -0.5030  0.1163
 6997SOL    HW221570   7.330   1.604   4.239 -0.6683 -0.3556  0.4743
 6998SOL     OW21571   9.007   0.214   1.323  0.3922  0.2972  0.2514
 6998SOL    HW121572   8.973   0.237   1.237  0.7920  0.2599  0.0842
 6998SOL    HW221573   8.935   0.168   1.366  0.8294 -1.4158 -0.7730
 6999SOL     OW21574   8.246   1.229   3.719  0.0439  0.3910  0.0418
 6999SOL    HW121575   8.213   1.153   3.670  2.1994  0.1575 -1.1615
 6999SOL    HW221576   8.188   1.301   3.695 -0.3922 -0.2862 -0.9535
 7000SOL     OW21577   5.490   7.939   0.768  0.0439  0.4228 -0.1336
 7000SOL    HW121578   5.546   8.010   0.737 -0.5147  1.3659  0.9497
 7000SOL    HW221579   5.481   7.955   0.862 -0.0370 -1.1336  0.1372
 7001SOL     OW21580   2.338   4.739   7.832 -0.5224 -0.2525  0.0091
 7001SOL    HW121581   2.364   4.752   7.923  1.6970  0.6145 -0.6952
 7001SOL    HW221582   2.243   4.729   7.836 -0.3547 -1.9325  2.5810
 7002SOL     OW21583   3.003   9.294   6.113  0.3597 -0.0453  0.7797
 7002SOL    HW121584   3.045   9.359   6.057  4.2010 -1.0568  2.1887
 7002SOL    HW221585   3.020   9.325   6.203 -0.3104 -1.5006  1.4417
 7003SOL     OW21586   8.491   1.450   5.958  0.5148  0.1751 -0.2618
 7003SOL    HW121587   8.515   1.498   5.879  0.4583  0.8673  0.1323
 7003SOL    HW221588   8.575   1.424   5.997  0.5628  0.4051 -0.2092
 7004SOL     OW21589   1.473   5.580   6.688  0.3135 -0.4105 -0.4567
 7004SOL    HW121590   1.553   5.628   6.708  0.6710 -0.6406 -1.2851
 7004SOL    HW221591   1.502   5.489   6.674 -0.2415 -0.7150  0.2749
 7005SOL     OW21592   5.309   9.153   1.419  0.7496 -0.2235 -0.1407
 7005SOL    HW121593   5.305   9.226   1.481  0.9549 -1.3023  1.1984
 7005SOL    HW221594   5.265   9.186   1.341 -2.0095  0.3352  1.4954
 7006SOL     OW21595   0.326   2.946   2.977  0.0579  0.7843  0.3358
 7006SOL    HW121596   0.315   3.010   2.907 -0.7607  0.5008  0.1940
 7006SOL    HW221597   0.239   2.908   2.989  0.9391 -2.0152 -1.1914
 7007SOL     OW21598   3.134   5.592   1.790 -0.1184 -0.0141 -0.2399
 7007SOL    HW121599   3.171   5.525   1.848  1.3013  0.0006 -1.0884
 7007SOL    HW221600   3.192   5.667   1.801 -1.7362  1.1548  0.7596
 7008SOL     OW21601   9.006   1.338   1.881 -0.4548  0.1363  0.3099
 7008SOL    HW121602   9.098   1.311   1.882 -1.0278 -2.1465 -0.8964
 7008SOL    HW221603   8.981   1.332   1.788 -1.0398  3.8511  0.0877
 7009SOL     OW21604   3.335   8.198   1.005 -0.1055  0.1727 -0.3696
 7009SOL    HW121605   3.364   8.144   1.079  1.5869  1.2409 -0.2079
 7009SOL    HW221606   3.397   8.176   0.935 -1.2947 -0.3415 -1.2996
 7010SOL     OW21607   6.782   0.327   8.888  0.2706 -0.3108 -0.2723
 7010SOL    HW121608   6.720   0.257   8.868  1.0520 -0.7854 -1.1587
 7010SOL    HW221609   6.728   0.400   8.918 -0.9688  0.1186 -3.2099
 7011SOL     OW21610   7.162   0.944   9.096  0.1397  0.2043  0.3793
 7011SOL    HW121611   7.190   0.854   9.076 -2.0337 -0.0964 -1.8214
 7011SOL    HW221612   7.210   0.998   9.034  0.1155  0.3599  0.4952
 7012SOL     OW21613   4.871   8.500   3.029  0.1434 -0.1087 -0.4594
 7012SOL    HW121614   4.963   8.501   3.053  0.9280 -0.3956 -3.1154
 7012SOL    HW221615   4.834   8.426   3.077  1.1857  0.2094  0.8863
 7013SOL     OW21616   5.479   5.361   4.165  0.0501 -0.3338  0.0917
 7013SOL    HW121617   5.407   5.301   4.185 -0.2793  0.0424  0.0401
 7013SOL    HW221618   5.436   5.444   4.143  0.4982 -0.1097  0.0509
 7014SOL     OW21619   1.624   8.670   7.058  0.1027  0.2029 -0.0542
 7014SOL    HW121620   1.613   8.642   7.149  0.1107 -1.9379 -0.6566
 7014SOL    HW221621   1.595   8.761   7.057 -0.8226 -0.0240  1.8916
 7015SOL     OW21622   5.087   2.765   3.020 -0.2522  0.2664 -0.2217
 7015SOL    HW121623   5.109   2.778   3.112 -0.8386  0.3888 -0.0930
 7015SOL    HW221624   5.004   2.719   3.021  0.9551 -2.0541 -0.6991
 7016SOL     OW21625   2.554   9.350   6.374 -0.3120 -0.0010  0.4314
 7016SOL    HW121626   2.604   9.340   6.293 -3.5546 -1.3452 -1.6051
 7016SOL    HW221627   2.515   9.437   6.368  0.8969  0.6544  1.5373
 7017SOL     OW21628   6.297   3.670   2.664  0.1277 -0.9232  1.7239
 7017SOL    HW121629   6.363   3.738   2.678 -0.4157 -0.1007  0.4298
 7017SOL    HW221630   6.268   3.646   2.752  1.5304 -0.6871  2.2720
 7018SOL     OW21631   0.706   8.324   9.918  0.2334  0.4331 -0.1464
 7018SOL    HW121632   0.633   8.383   9.936  1.6209  2.1960  0.0160
 7018SOL    HW221633   0.686   8.244   9.968 -1.5140  0.8875 -0.0680
 7019SOL     OW21634   4.809   8.367   8.425 -0.0949 -0.0607  0.2243
 7019SOL    HW121635   4.886   8.327   8.383 -0.1446 -2.0746  1.8524
 7019SOL    HW221636   4.764   8.293   8.466 -2.0747  1.2968  0.6295
 7020SOL     OW21637   9.949   7.174   9.567 -0.9956 -0.1296 -0.0266
 7020SOL    HW121638   9.878   7.139   9.514 -0.2415  0.9172 -1.8259
 7020SOL    HW221639   9.978   7.252   9.520  0.1551  0.4858  1.6113
 7021SOL     OW21640   2.423   4.668   4.448 -0.0345 -0.5703  0.6423
 7021SOL    HW121641   2.517   4.679   4.431 -0.2473 -1.5144 -1.3515
 7021SOL    HW221642   2.391   4.758   4.457  1.1530 -0.2484  2.1137
 7022SOL     OW21643   6.565   4.046   8.221 -0.2711  0.0636  0.5379
 7022SOL    HW121644   6.570   4.111   8.151  1.1636 -0.2310  0.3421
 7022SOL    HW221645   6.526   4.093   8.294 -0.1818  0.8601  0.0871
 7023SOL     OW21646   1.596   2.908   3.460 -0.3283  0.0672  0.4016
 7023SOL    HW121647   1.612   2.959   3.539  0.1648  0.7626 -0.1281
 7023SOL    HW221648   1.666   2.843   3.458 -0.6840 -0.3356  0.8348
 7024SOL     OW21649   2.616   7.237   2.895  0.3795 -0.5794  0.6449
 7024SOL    HW121650   2.614   7.198   2.808  0.6587 -4.0268  2.0549
 7024SOL    HW221651   2.539   7.295   2.897  0.4468 -0.2938 -1.8743
 7025SOL     OW21652   6.934   9.842   4.742  0.2853 -0.1497 -0.0780
 7025SOL    HW121653   6.977   9.898   4.677 -0.0349 -0.0480 -0.2041
 7025SOL    HW221654   7.005   9.815   4.801  0.9159 -1.6563 -1.4512
 7026SOL     OW21655   8.787   7.386   5.125 -0.0831 -0.0689 -0.0341
 7026SOL    HW121656   8.827   7.327   5.189  1.0397  0.7501  0.0598
 7026SOL    HW221657   8.717   7.430   5.174  1.5338  1.4395  1.0522
 7027SOL     OW21658   0.282   0.884   6.550  0.3310  0.1683  0.0668
 7027SOL    HW121659   0.362   0.933   6.571 -0.3763  1.8966 -1.0094
 7027SOL    HW221660   0.274   0.892   6.455  0.0493 -1.9181 -0.1227
 7028SOL     OW21661   1.549   0.428   6.817  1.0814  0.2303 -0.0824
 7028SOL    HW121662   1.471   0.480   6.836 -0.1303 -1.5327 -0.0144
 7028SOL    HW221663   1.584   0.466   6.736  0.6488  1.5716  0.3339
 7029SOL     OW21664   2.469   4.023   4.524 -0.3656  0.2835  0.2710
 7029SOL    HW121665   2.516   3.940   4.515 -2.9714 -1.1628 -1.2188
 7029SOL    HW221666   2.492   4.055   4.611  0.3448 -2.2831  1.0995
 7030SOL     OW21667   9.545   3.453   9.268 -0.0648 -0.4770 -0.5029
 7030SOL    HW121668   9.460   3.495   9.251 -0.5525 -1.1396  0.2361
 7030SOL    HW221669   9.569   3.482   9.356 -0.4418 -1.7660  0.0455
 7031SOL     OW21670   0.596   7.471   8.064 -0.2905  0.1994 -0.0494
 7031SOL    HW121671   0.561   7.538   8.122 -2.8864 -0.8953 -0.2170
 7031SOL    HW221672   0.682   7.449   8.101  0.0881  2.6604  0.7109
 7032SOL     OW21673   3.530   5.511  10.015 -0.2209 -0.4882  0.0898
 7032SOL    HW121674   3.441   5.529   9.985 -0.6923  1.7693  2.4245
 7032SOL    HW221675   3.582   5.502   9.935 -1.6755  3.1704 -1.4942
 7033SOL     OW21676   5.305   5.416   7.162  0.3122 -0.2528  0.9872
 7033SOL    HW121677   5.258   5.486   7.207  0.7265  0.2703  0.6159
 7033SOL    HW221678   5.384   5.458   7.128  0.3749 -0.8143  0.4207
 7034SOL     OW21679   6.071   7.165   9.302  0.4799 -0.0222  0.1895
 7034SOL    HW121680   6.034   7.183   9.388 -0.2335 -2.8421  0.5836
 7034SOL    HW221681   6.144   7.106   9.319  1.9829  1.3942 -1.0038
 7035SOL     OW21682   5.894   8.519   3.209  0.4120 -0.4035  0.7688
 7035SOL    HW121683   5.934   8.433   3.203 -0.4567 -0.9427  2.1676
 7035SOL    HW221684   5.831   8.523   3.137  1.3189 -0.4400 -0.0405
 7036SOL     OW21685   1.248   3.033   0.552 -0.4805 -0.6045  0.4486
 7036SOL    HW121686   1.233   2.939   0.538  0.1707 -0.8126  1.1012
 7036SOL    HW221687   1.299   3.061   0.476  0.6168 -1.1212  0.9647
 7037SOL     OW21688   0.114   6.069   0.367  0.1601 -0.2807  0.8812
 7037SOL    HW121689   0.035   6.121   0.383  0.4966  0.2631  0.8125
 7037SOL    HW221690   0.109   6.046   0.275 -0.6563 -1.5133  1.2089
 7038SOL     OW21691   5.371   7.278   1.330 -0.1821  0.0410 -0.3934
 7038SOL    HW121692   5.352   7.357   1.380  2.8051 -0.0190  1.0737
 7038SOL    HW221693   5.310   7.213   1.364 -1.8377  1.3417 -0.7417
 7039SOL     OW21694   1.937   4.046   4.979  0.1334  0.2875 -0.1624
 7039SOL    HW121695   1.989   4.031   4.900  0.4095 -0.0632  0.0748
 7039SOL    HW221696   1.945   3.963   5.028  0.0150  0.5177  0.2522
 7040SOL     OW21697   6.128   7.284   5.399 -0.1125  0.1665  0.4361
 7040SOL    HW121698   6.196   7.332   5.351  0.0144 -0.2870  0.1548
 7040SOL    HW221699   6.149   7.298   5.491 -1.1580  2.2163  0.4268
 7041SOL     OW21700   2.487   5.624   2.393 -0.2695 -0.2341  0.4960
 7041SOL    HW121701   2.406   5.582   2.420  0.8162 -3.1339 -0.3820
 7041SOL    HW221702   2.522   5.569   2.324  0.2687  3.3935 -2.4581
 7042SOL     OW21703   1.143   9.039   3.820  0.8311 -0.1788 -0.0309
 7042SOL    HW121704   1.163   9.109   3.882 -0.5298  0.4134 -0.2414
 7042SOL    HW221705   1.141   9.083   3.735 -2.6459  0.1211  0.0967
 7043SOL     OW21706   0.473   2.521   9.643  0.1562 -0.0415  0.5476
 7043SOL    HW121707   0.386   2.558   9.657  0.6703  1.2117  0.5668
 7043SOL    HW221708   0.475   2.499   9.550 -0.3999 -0.6961  0.6811
 7044SOL     OW21709   3.777   3.469   5.347  0.0423 -0.1720 -0.1999
 7044SOL    HW121710   3.768   3.514   5.263  0.4263 -0.3570 -0.3443
 7044SOL    HW221711   3.712   3.509   5.404 -0.0456  0.1292 -0.5147
 7045SOL     OW21712   9.259   7.256   1.221  0.6319 -0.4042  0.3438
 7045SOL    HW121713   9.201   7.309   1.277  1.3080 -1.0034  1.6676
 7045SOL    HW221714   9.345   7.263   1.263  1.3113 -0.3813 -0.9987
 7046SOL     OW21715   7.706   4.139   0.130 -0.2385 -0.2385  0.3381
 7046SOL    HW121716   7.729   4.047   0.137  3.0014  0.3200 -1.1713
 7046SOL    HW221717   7.727   4.176   0.216 -0.6539 -0.7181  0.6494
 7047SOL     OW21718   1.283   6.852   4.575  0.1890 -0.8249  0.5153
 7047SOL    HW121719   1.221   6.785   4.545  0.0573 -1.3120  1.8484
 7047SOL    HW221720   1.228   6.919   4.616  0.0029  1.5177 -3.0454
 7048SOL     OW21721   1.309   3.888   0.605  0.0278 -0.7214  0.1575
 7048SOL    HW121722   1.279   3.883   0.514  0.1518 -1.6711  0.1656
 7048SOL    HW221723   1.257   3.822   0.651  0.9522 -1.2138  0.5004
 7049SOL     OW21724   0.563   1.841   3.088 -0.0923 -0.0654  0.2726
 7049SOL    HW121725   0.604   1.789   3.019 -0.8323  0.9357 -0.9683
 7049SOL    HW221726   0.469   1.840   3.066 -0.5099 -0.6342  1.9033
 7050SOL     OW21727   1.474   1.775   8.880 -0.6198  0.0203 -1.1258
 7050SOL    HW121728   1.541   1.823   8.831  0.8230 -0.9121 -0.1300
 7050SOL    HW221729   1.422   1.843   8.923  1.8148  0.7508  0.8429
 7051SOL     OW21730   2.175   3.596   7.575  0.1453  0.8245  0.2497
 7051SOL    HW121731   2.121   3.518   7.573 -0.9207  1.5394  0.0622
 7051SOL    HW221732   2.133   3.653   7.640  1.5907  0.7729  1.2722
 7052SOL     OW21733   7.476   0.910   0.306 -0.1804  0.7721 -0.2123
 7052SOL    HW121734   7.439   0.972   0.243 -1.0153  1.0787  0.5409
 7052SOL    HW221735   7.569   0.906   0.285 -0.9045 -1.8909 -3.7527
 7053SOL     OW21736   0.517   2.270   4.885  0.4831 -0.2494  0.2688
 7053SOL    HW121737   0.422   2.286   4.880  0.2176 -2.0447 -2.2267
 7053SOL    HW221738   0.533   2.203   4.818  3.5286 -0.0520  0.6984
 7054SOL     OW21739   3.772   7.229   2.422 -0.0736 -0.3676 -0.2566
 7054SOL    HW121740   3.732   7.267   2.501  0.7494 -0.9655  0.4689
 7054SOL    HW221741   3.860   7.205   2.450  0.0724 -1.0085 -1.2421
 7055SOL     OW21742   7.816   1.797   3.701 -0.3828  0.0416  0.5202
 7055SOL    HW121743   7.745   1.861   3.699 -1.2203 -0.8712 -0.6831
 7055SOL    HW221744   7.877   1.830   3.767 -1.2761  1.5333  0.6369
 7056SOL     OW21745   9.929   9.282   8.596  0.1395  0.2640 -0.4562
 7056SOL    HW121746   9.927   9.289   8.692 -0.4321 -0.4591 -0.4035
 7056SOL    HW221747   9.837   9.290   8.570  0.2367 -0.0455 -0.9022
 7057SOL     OW21748   0.978   5.205   8.571  0.1983 -0.1740  0.0243
 7057SOL    HW121749   0.999   5.142   8.640  1.0540 -0.8154 -0.7908
 7057SOL    HW221750   1.007   5.162   8.490 -0.7665  0.5657 -0.7352
 7058SOL     OW21751   8.142   1.662   1.677  0.0813  0.3225  0.1185
 7058SOL    HW121752   8.223   1.696   1.715 -0.1179  0.8839  0.0514
 7058SOL    HW221753   8.170   1.593   1.618  0.4125 -0.4425  1.1477
 7059SOL     OW21754   3.692   3.532   9.456  0.0178  0.6849 -0.3523
 7059SOL    HW121755   3.713   3.623   9.476 -1.0645  1.0726 -0.8631
 7059SOL    HW221756   3.770   3.482   9.482  0.7736  1.7953 -0.4393
 7060SOL     OW21757   2.313   6.001   7.639  0.4506 -0.5310  0.1716
 7060SOL    HW121758   2.271   5.923   7.604 -1.6617  1.4883 -2.2495
 7060SOL    HW221759   2.339   6.051   7.561  0.8779  1.6033  1.5822
 7061SOL     OW21760   8.143   0.505   8.252 -0.4549 -0.3315  0.3218
 7061SOL    HW121761   8.123   0.480   8.162 -1.2251  0.5237  0.2490
 7061SOL    HW221762   8.119   0.597   8.257 -1.7331 -0.7047  1.7761
 7062SOL     OW21763   6.213   4.576   6.677 -0.5024 -0.5739 -0.2621
 7062SOL    HW121764   6.250   4.623   6.752  2.2917 -1.7715 -0.7583
 7062SOL    HW221765   6.199   4.487   6.708 -0.6277 -0.7517 -0.8084
 7063SOL     OW21766   9.270   0.589   5.088 -0.1448  0.0982 -0.2162
 7063SOL    HW121767   9.275   0.647   5.164 -0.3960 -0.6618  0.3964
 7063SOL    HW221768   9.185   0.608   5.048  1.1213  2.5433 -2.0277
 7064SOL     OW21769   8.169   1.789   4.014 -0.6111 -0.5218 -0.3270
 7064SOL    HW121770   8.084   1.750   4.035  0.1514 -2.1897 -0.1883
 7064SOL    HW221771   8.227   1.714   4.003  0.8286  0.5916 -0.5079
 7065SOL     OW21772   5.345   3.230   3.152 -0.0371  0.2416  0.0683
 7065SOL    HW121773   5.318   3.305   3.099 -0.8989 -0.3932 -0.4323
 7065SOL    HW221774   5.310   3.248   3.239 -0.3374  0.3873 -0.0779
 7066SOL     OW21775   0.313   8.396   1.762 -0.3267  0.2867  0.1557
 7066SOL    HW121776   0.358   8.432   1.839 -0.8940  0.3596  0.4556
 7066SOL    HW221777   0.364   8.428   1.687 -1.4229  2.6529  0.3309
 7067SOL     OW21778   1.041   4.636   3.560  0.0734  0.3481 -0.0565
 7067SOL    HW121779   0.980   4.617   3.489  1.6989  0.7203 -1.6328
 7067SOL    HW221780   1.111   4.572   3.549  1.2148  1.5289  0.1275
 7068SOL     OW21781   6.096   0.299   3.358  0.4024 -0.0771  0.1303
 7068SOL    HW121782   6.018   0.324   3.407  0.2503  0.4200 -0.3468
 7068SOL    HW221783   6.083   0.207   3.337 -0.8333  0.3658 -1.2870
 7069SOL     OW21784   6.499   3.467   1.024  0.3904  0.1507 -0.0230
 7069SOL    HW121785   6.417   3.493   1.066  0.1388 -0.3095 -0.2290
 7069SOL    HW221786   6.519   3.381   1.061  0.0924 -0.3260 -0.9467
 7070SOL     OW21787   6.767   1.462   0.697  0.2623  0.4552 -0.1674
 7070SOL    HW121788   6.804   1.546   0.723 -1.0051  1.5144 -1.6385
 7070SOL    HW221789   6.673   1.477   0.690 -0.2335 -1.5677  1.2261
 7071SOL     OW21790   6.607   3.272   3.542 -0.0289  0.3639  0.2847
 7071SOL    HW121791   6.610   3.177   3.534  1.3975  0.3041  1.1370
 7071SOL    HW221792   6.656   3.290   3.622 -0.1239  1.8357  0.0293
 7072SOL     OW21793   7.733   8.627   7.381 -0.5435 -0.1651  0.2530
 7072SOL    HW121794   7.657   8.673   7.417 -1.1799 -1.7131  0.9931
 7072SOL    HW221795   7.764   8.683   7.311 -1.0429  1.5530  1.3406
 7073SOL     OW21796   2.494   8.014   6.359  0.0800  0.1224 -0.7157
 7073SOL    HW121797   2.445   8.053   6.431 -1.3846 -1.0814 -0.9983
 7073SOL    HW221798   2.579   8.058   6.361  1.7177 -2.4624  4.2666
 7074SOL     OW21799   1.548   1.204   2.016  0.3407 -0.4217 -0.0637
 7074SOL    HW121800   1.523   1.208   1.924 -1.2586  0.0703  0.3588
 7074SOL    HW221801   1.540   1.111   2.039 -1.1081 -0.2965  0.0276
 7075SOL     OW21802   5.976   1.327   0.085 -0.7461  0.4917 -0.2892
 7075SOL    HW121803   5.997   1.341  -0.007 -0.1442 -2.1516 -0.6302
 7075SOL    HW221804   5.897   1.380   0.100 -0.8394  0.9995 -2.2949
 7076SOL     OW21805   9.767   4.387   7.711 -0.4588  0.0606 -0.2654
 7076SOL    HW121806   9.831   4.362   7.644 -0.5997 -1.1696  0.0429
 7076SOL    HW221807   9.802   4.469   7.747  0.0671  0.2863 -1.2365
 7077SOL     OW21808   6.470  10.009   7.122 -0.0540 -0.3108 -0.1912
 7077SOL    HW121809   6.539   9.959   7.167  1.6025  1.5247 -0.5457
 7077SOL    HW221810   6.447   9.954   7.047  1.5424 -0.6898 -0.4454
 7078SOL     OW21811   3.328   5.632   5.678  0.0698  0.1677  0.6944
 7078SOL    HW121812   3.407   5.685   5.691  0.2810 -0.2801  1.2775
 7078SOL    HW221813   3.257   5.686   5.715 -0.4281  1.9057 -2.4516
 7079SOL     OW21814   6.637   8.226   6.077  0.5138 -0.1873 -0.8288
 7079SOL    HW121815   6.625   8.272   5.994 -0.2466  3.8811  1.2578
 7079SOL    HW221816   6.636   8.133   6.054  0.6727  0.7067 -5.3352
 7080SOL     OW21817   9.016   3.161   2.883 -0.4436 -0.5111  0.1521
 7080SOL    HW121818   9.046   3.246   2.913 -2.3065  0.7203 -1.2396
 7080SOL    HW221819   9.043   3.100   2.952 -1.7946  1.6482  2.7629
 7081SOL     OW21820   7.198   6.150   1.160  0.1293 -0.3280  0.2202
 7081SOL    HW121821   7.147   6.069   1.161  0.3546 -0.5220 -1.3320
 7081SOL    HW221822   7.230   6.157   1.070 -0.1640  1.6638  0.2303
 7082SOL     OW21823   5.670   2.860   4.229 -0.2109  0.4564  0.2222
 7082SOL    HW121824   5.705   2.789   4.283 -1.2492  0.8907  1.5067
 7082SOL    HW221825   5.668   2.936   4.287  0.5560  1.4860 -1.0304
 7083SOL     OW21826   9.168   5.282   6.627 -0.6282 -0.0687  0.3424
 7083SOL    HW121827   9.102   5.265   6.559 -1.8370  0.7358  1.2665
 7083SOL    HW221828   9.177   5.377   6.628  1.7243 -0.2147 -0.7946
 7084SOL     OW21829   3.232   2.650   7.942 -0.1541 -0.0764 -0.3484
 7084SOL    HW121830   3.212   2.715   7.875  0.8007  2.5376  1.7592
 7084SOL    HW221831   3.170   2.668   8.013  1.4670 -0.0347  1.1288
 7085SOL     OW21832   3.216   0.378   7.928  0.3837  0.1042 -0.3078
 7085SOL    HW121833   3.303   0.337   7.923  1.3485  1.7157  1.8347
 7085SOL    HW221834   3.233   0.465   7.964 -2.0435  0.8714 -0.8795
 7086SOL     OW21835   8.339   1.381   3.450  0.0423 -0.5615  0.6215
 7086SOL    HW121836   8.327   1.420   3.363  1.2419 -1.8108 -0.1621
 7086SOL    HW221837   8.275   1.425   3.506  0.1859  1.2792 -0.5690
 7087SOL     OW21838   4.092   3.826   4.993  0.3299  0.2345  0.0519
 7087SOL    HW121839   4.160   3.864   5.048 -0.5240  0.8058  0.7342
 7087SOL    HW221840   4.029   3.788   5.054 -0.2254  0.1658 -0.5460
 7088SOL     OW21841   9.057   5.223   5.784  0.0615 -0.2812 -0.3582
 7088SOL    HW121842   9.004   5.164   5.730 -0.6755 -0.5839  0.6785
 7088SOL    HW221843   9.030   5.205   5.874  1.4154  0.0825  0.1472
 7089SOL     OW21844   8.438   4.598   9.977 -0.5579 -0.3490  0.0694
 7089SOL    HW121845   8.500   4.642   9.919  1.5979 -2.0668  0.9035
 7089SOL    HW221846   8.388   4.540   9.919 -1.5382  1.1577 -0.6363
 7090SOL     OW21847   2.771   1.031   2.166  0.5140  0.1162 -0.3102
 7090SOL    HW121848   2.736   1.025   2.077 -0.0185  0.3895 -0.1207
 7090SOL    HW221849   2.695   1.026   2.223  0.9365 -1.0836  0.1789
 7091SOL     OW21850   4.928   2.789   0.568 -0.1529  0.2058 -0.8509
 7091SOL    HW121851   4.957   2.698   0.572  0.0795  0.2235 -1.8613
 7091SOL    HW221852   4.862   2.796   0.637  2.1641  0.1583  1.5145
 7092SOL     OW21853   5.001   5.217   4.101 -0.2886  0.1330 -0.8210
 7092SOL    HW121854   5.004   5.147   4.167  0.4918  0.7851 -0.1444
 7092SOL    HW221855   4.919   5.201   4.054 -1.1200 -0.0662  0.6199
 7093SOL     OW21856   4.465   0.443   3.817 -0.4821 -0.2494  0.6181
 7093SOL    HW121857   4.523   0.515   3.844 -0.1652 -1.1509  2.4964
 7093SOL    HW221858   4.397   0.486   3.765  0.5734  1.1748  0.3461
 7094SOL     OW21859   2.502   4.881   0.738  0.1149 -0.1136  0.0482
 7094SOL    HW121860   2.464   4.862   0.652 -0.2081 -0.0813  0.1812
 7094SOL    HW221861   2.559   4.806   0.756  0.6565  0.1697 -0.4608
 7095SOL     OW21862   3.695   2.506   1.182  0.2349  0.1195  0.6891
 7095SOL    HW121863   3.775   2.463   1.214  0.2183  0.2003  0.8378
 7095SOL    HW221864   3.689   2.479   1.090  0.0090 -0.5253  0.8836
 7096SOL     OW21865   6.296   3.041   4.438 -0.0138  0.1403 -0.4937
 7096SOL    HW121866   6.280   3.045   4.344  0.9704 -1.0320 -0.7302
 7096SOL    HW221867   6.379   2.994   4.447 -0.4000 -0.3153  0.9867
 7097SOL     OW21868   5.581   5.150   0.926  0.5791  0.5387 -0.6655
 7097SOL    HW121869   5.549   5.107   0.847  0.4762  1.1082 -0.9328
 7097SOL    HW221870   5.662   5.102   0.947  1.4726  1.3845 -2.0176
 7098SOL     OW21871   0.771   2.797   5.509 -0.1151 -0.4841 -0.3868
 7098SOL    HW121872   0.789   2.793   5.416 -0.2624 -1.4210 -0.3800
 7098SOL    HW221873   0.857   2.810   5.550 -0.0720  0.1048 -0.6515
 7099SOL     OW21874   1.441   6.109   1.989 -0.0841  0.3446 -0.7928
 7099SOL    HW121875   1.494   6.175   1.944 -1.5328  1.2336 -1.2703
 7099SOL    HW221876   1.441   6.137   2.080  1.4642 -0.5136 -0.4884
 7100SOL     OW21877   2.751   2.685   8.471  0.2059  0.3938  0.5915
 7100SOL    HW121878   2.715   2.596   8.466 -0.3662  0.6755 -2.7394
 7100SOL    HW221879   2.819   2.680   8.538  2.2931 -3.4506 -1.4681
 7101SOL     OW21880   7.297   3.506   6.951 -0.1909  0.5166 -0.0254
 7101SOL    HW121881   7.304   3.500   7.046 -0.5626  0.0430 -0.0279
 7101SOL    HW221882   7.268   3.596   6.935 -0.8994  0.3601  0.3524
 7102SOL     OW21883   9.116   7.148   2.581 -0.4160 -0.4571  0.2056
 7102SOL    HW121884   9.148   7.091   2.650 -0.1018 -0.0976  0.3578
 7102SOL    HW221885   9.161   7.118   2.502 -0.5854 -0.7032  0.2001
 7103SOL     OW21886   3.178   0.211   1.827  0.3551 -0.6742  0.5628
 7103SOL    HW121887   3.082   0.213   1.826  0.3700 -0.1020 -0.0719
 7103SOL    HW221888   3.204   0.222   1.736  1.0548  2.6740  1.0223
 7104SOL     OW21889   7.547   1.410   2.769 -0.3305  0.3796 -0.1920
 7104SOL    HW121890   7.565   1.329   2.721 -0.2078  1.0793 -1.3391
 7104SOL    HW221891   7.567   1.388   2.860 -0.3523 -0.8964 -0.4740
 7105SOL     OW21892   5.276   7.629   2.471 -0.3083  0.0287  0.0388
 7105SOL    HW121893   5.197   7.678   2.494  0.3627  1.0969  0.1690
 7105SOL    HW221894   5.343   7.663   2.530  0.5015 -0.0875 -0.7860
 7106SOL     OW21895   1.879   5.016   6.001 -0.3631  0.2483 -0.0463
 7106SOL    HW121896   1.823   5.062   6.063  0.5711  1.4136 -0.0107
 7106SOL    HW221897   1.823   4.998   5.925 -1.0802  0.3161  0.4664
 7107SOL     OW21898   5.548   7.643   4.982  0.1081  0.0641 -0.0089
 7107SOL    HW121899   5.561   7.705   5.054  0.3230  0.1692 -0.1351
 7107SOL    HW221900   5.634   7.603   4.970 -0.2040 -0.8039  0.5642
 7108SOL     OW21901   3.839   1.148   1.104 -0.0823 -0.1817 -0.0999
 7108SOL    HW121902   3.837   1.090   1.028 -0.7384  0.2999 -0.4619
 7108SOL    HW221903   3.747   1.160   1.127  0.0588  0.5099  0.1301
 7109SOL     OW21904   4.828   7.783   6.916  0.3753  0.0354 -0.2007
 7109SOL    HW121905   4.822   7.810   6.824  0.9991  4.6643  0.9008
 7109SOL    HW221906   4.919   7.755   6.926  0.2321 -0.7681 -1.0068
 7110SOL     OW21907   0.850   4.538   8.837 -0.1070  0.2168 -0.1906
 7110SOL    HW121908   0.848   4.458   8.784 -0.7730  0.0093  0.1404
 7110SOL    HW221909   0.939   4.572   8.824  0.4717 -1.0126  0.2957
 7111SOL     OW21910   6.409   3.416   9.459 -0.3509  0.2061 -0.3287
 7111SOL    HW121911   6.496   3.442   9.430 -0.5568 -0.8757 -2.0100
 7111SOL    HW221912   6.389   3.337   9.409 -2.7124  0.9885 -0.7187
 7112SOL     OW21913   7.604   0.147   8.033 -0.2610 -0.2034 -0.7971
 7112SOL    HW121914   7.517   0.111   8.016 -0.8989  0.4352  0.9097
 7112SOL    HW221915   7.656   0.072   8.063 -0.0428 -0.6900 -2.3152
 7113SOL     OW21916   3.247   2.479   6.043  0.3849  0.5427 -0.4157
 7113SOL    HW121917   3.181   2.515   6.102  0.4898  2.3478 -1.3322
 7113SOL    HW221918   3.324   2.466   6.098  0.2774  1.5619 -0.0055
 7114SOL     OW21919   6.530   8.868   5.654  0.4072  0.5433  0.2910
 7114SOL    HW121920   6.457   8.930   5.648 -0.4529 -0.0983  2.9610
 7114SOL    HW221921   6.489   8.783   5.670  1.6969  0.1410  1.6963
 7115SOL     OW21922   4.302   9.772   7.813  0.3584 -0.3196 -0.0125
 7115SOL    HW121923   4.360   9.708   7.854 -0.6062 -1.1157  0.1386
 7115SOL    HW221924   4.356   9.813   7.745  0.7898 -1.8011 -0.6033
 7116SOL     OW21925   0.474   8.039   5.052  0.0281 -0.1432 -0.1308
 7116SOL    HW121926   0.494   8.038   4.959  0.5089  1.1737 -0.0575
 7116SOL    HW221927   0.404   8.104   5.061 -0.0548 -0.3007  0.4258
 7117SOL     OW21928   8.344   6.419   6.257 -0.0196  0.6351 -0.0196
 7117SOL    HW121929   8.434   6.448   6.274  0.5338  0.7791 -2.7219
 7117SOL    HW221930   8.305   6.490   6.206 -0.9764 -0.3210 -0.6576
 7118SOL     OW21931   1.776   9.582   3.187 -0.1123  0.0505  0.6990
 7118SOL    HW121932   1.695   9.591   3.238 -0.6533  1.2452 -0.3015
 7118SOL    HW221933   1.828   9.659   3.211  0.5102 -0.4369  0.9444
 7119SOL     OW21934   1.598   1.364   7.381  0.9484  0.2213  0.2134
 7119SOL    HW121935   1.693   1.354   7.379  0.8049 -1.2170 -0.5111
 7119SOL    HW221936   1.574   1.343   7.471  1.4079  1.8369  0.7475
 7120SOL     OW21937   1.441   6.546   5.495  0.4937  0.2805  0.0309
 7120SOL    HW121938   1.473   6.612   5.557 -1.6157  1.5302 -0.0855
 7120SOL    HW221939   1.515   6.488   5.480  2.1743  2.1100  0.8570
 7121SOL     OW21940   0.585   8.452   7.076  0.2892  0.2705 -0.0313
 7121SOL    HW121941   0.647   8.521   7.053  0.2231  0.5755  0.7112
 7121SOL    HW221942   0.575   8.458   7.170 -0.9604  0.2901 -0.1568
 7122SOL     OW21943   9.929   0.581   7.274  0.1581  0.1967  0.3769
 7122SOL    HW121944   9.990   0.654   7.264 -0.7222  0.8520 -0.3686
 7122SOL    HW221945   9.906   0.556   7.185 -1.0056  0.2818  0.6284
 7123SOL     OW21946   1.642   9.052   8.760 -0.1871 -0.3762 -0.0902
 7123SOL    HW121947   1.564   8.997   8.767  0.0623 -0.6221  0.8812
 7123SOL    HW221948   1.607   9.140   8.742 -0.8093 -0.1617  1.9344
 7124SOL     OW21949   2.353   8.897   6.483  0.1464 -0.0552  0.9371
 7124SOL    HW121950   2.260   8.920   6.479  0.4747  1.4839  1.4416
 7124SOL    HW221951   2.368   8.843   6.406 -1.0814 -0.0110  0.6458
 7125SOL     OW21952   2.506   1.170   1.597  0.3936 -0.0606 -0.0223
 7125SOL    HW121953   2.593   1.188   1.561 -0.6316 -0.4234 -2.9976
 7125SOL    HW221954   2.483   1.250   1.644  1.9329  0.4134 -0.0022
 7126SOL     OW21955   8.203   5.441   2.163 -0.2434 -1.2476  0.1712
 7126SOL    HW121956   8.182   5.370   2.224  1.6045 -1.8029  0.2058
 7126SOL    HW221957   8.118   5.478   2.140 -1.0638 -1.5214  2.4623
 7127SOL     OW21958   5.789   2.761   7.955 -0.3193  0.0975 -0.2722
 7127SOL    HW121959   5.799   2.665   7.956  1.0297  0.2143  0.6660
 7127SOL    HW221960   5.827   2.789   8.038  0.6422  1.5514 -1.1563
 7128SOL     OW21961   0.362   9.781   2.721  0.2321  0.2855 -0.4287
 7128SOL    HW121962   0.452   9.791   2.691  0.3545 -0.3638 -0.2775
 7128SOL    HW221963   0.335   9.695   2.691  0.5330 -0.6160  1.7154
 7129SOL     OW21964   1.448   4.468   0.336 -0.2639  0.0247 -0.1571
 7129SOL    HW121965   1.438   4.481   0.430 -1.5814 -0.4983 -0.1964
 7129SOL    HW221966   1.386   4.397   0.315  0.6948 -0.5137 -1.2609
 7130SOL     OW21967   2.082   6.620   3.481  0.0145  0.4724 -0.3752
 7130SOL    HW121968   2.048   6.596   3.567 -0.5401  2.3174 -0.0554
 7130SOL    HW221969   2.006   6.615   3.423  0.5954 -1.8489 -1.0501
 7131SOL     OW21970   4.323   3.444   4.858 -0.6652 -0.0453 -0.0962
 7131SOL    HW121971   4.264   3.426   4.784  0.8745 -0.6578 -1.2277
 7131SOL    HW221972   4.382   3.513   4.826 -0.3005  0.0465  0.7463
 7132SOL     OW21973   8.271   3.866   4.943 -0.2661 -0.0648 -0.0082
 7132SOL    HW121974   8.340   3.801   4.957  1.1564  1.0948 -1.2817
 7132SOL    HW221975   8.199   3.837   5.000  0.5766 -2.3017  0.0305
 7133SOL     OW21976   8.510   4.491   8.767  0.2789  0.6317  0.1755
 7133SOL    HW121977   8.519   4.482   8.862 -0.7325 -1.6434  0.1419
 7133SOL    HW221978   8.447   4.563   8.756 -1.0795 -0.3016  1.3630
 7134SOL     OW21979   5.690   4.930   1.631  0.0526 -0.1716 -0.4343
 7134SOL    HW121980   5.637   4.908   1.555 -0.1138 -1.4810  0.0349
 7134SOL    HW221981   5.765   4.977   1.596  1.3620 -3.0743 -1.7579
 7135SOL     OW21982   3.989   5.082   3.263 -0.3996 -0.1969  0.3115
 7135SOL    HW121983   4.023   4.997   3.293  0.8421 -0.4181 -1.5822
 7135SOL    HW221984   3.938   5.060   3.185  0.0484  0.8163 -0.2739
 7136SOL     OW21985   5.996   7.056   5.731  0.4513  0.1433  0.0043
 7136SOL    HW121986   6.040   7.141   5.720  1.7340 -0.3959  0.8672
 7136SOL    HW221987   6.053   6.993   5.687 -1.0033 -0.1770 -1.5392
 7137SOL     OW21988   5.695   0.684   2.851  0.0909 -0.2307  0.5010
 7137SOL    HW121989   5.712   0.623   2.778  1.6070  1.7991 -0.9607
 7137SOL    HW221990   5.699   0.629   2.929  1.5048 -2.0023 -0.7261
 7138SOL     OW21991   4.818   3.897   6.062  0.6288  0.0401  0.1320
 7138SOL    HW121992   4.729   3.930   6.077  0.5837  0.3307 -0.7358
 7138SOL    HW221993   4.855   3.888   6.150 -0.8150 -1.6747  0.6431
 7139SOL     OW21994   4.463   4.947   1.044  0.7145 -0.5138  0.2717
 7139SOL    HW121995   4.526   5.017   1.027 -0.7447  0.3173 -2.2468
 7139SOL    HW221996   4.452   4.904   0.959  0.0171 -2.5116  1.3095
 7140SOL     OW21997   6.141   2.787   8.543 -0.0430 -0.0723  0.3851
 7140SOL    HW121998   6.091   2.721   8.591  0.9045 -0.9733  0.1543
 7140SOL    HW221999   6.119   2.770   8.451  1.1828 -0.9137  0.2304
 7141SOL     OW22000   9.203   0.798   8.622  0.1626  0.6543  0.2603
 7141SOL    HW122001   9.164   0.853   8.554 -0.2796  0.9340  0.7322
 7141SOL    HW222002   9.293   0.829   8.630  1.0116 -0.9573 -1.8737
 7142SOL     OW22003   6.278   3.314   3.296 -0.3882  0.0663  0.2585
 7142SOL    HW122004   6.277   3.219   3.292  1.5115  0.0002  0.3123
 7142SOL    HW222005   6.253   3.342   3.208 -2.1675 -0.4198  0.5690
 7143SOL     OW22006   6.480   6.572   0.871  0.1649 -0.1715 -0.2580
 7143SOL    HW122007   6.453   6.576   0.963 -1.3115 -0.0573 -0.6741
 7143SOL    HW222008   6.465   6.481   0.846  0.2348 -0.1212 -0.4801
 7144SOL     OW22009   1.096   0.721   5.007  0.6487  0.2190  0.4362
 7144SOL    HW122010   1.002   0.704   5.007  0.6983 -0.3198  2.4793
 7144SOL    HW222011   1.121   0.723   4.915 -1.1083 -1.1049 -0.1034
 7145SOL     OW22012   6.939   4.758   7.758  0.2987 -0.2852 -1.0207
 7145SOL    HW122013   6.972   4.693   7.696  0.9792  0.5843 -1.5888
 7145SOL    HW222014   7.010   4.822   7.767 -0.5680  0.6983 -0.9328
 7146SOL     OW22015   1.299   5.892   6.606 -0.3090  0.4057 -0.7664
 7146SOL    HW122016   1.345   5.960   6.655  0.7615 -1.7959  1.5073
 7146SOL    HW222017   1.254   5.840   6.673 -0.7901 -1.3418 -2.3596
 7147SOL     OW22018   6.811   7.027   5.287 -0.2697  0.0435  0.7955
 7147SOL    HW122019   6.854   7.030   5.372 -0.1411 -0.3795  0.7494
 7147SOL    HW222020   6.718   7.025   5.307 -0.2384 -0.1017  0.9252
 7148SOL     OW22021   3.050   4.021   5.043 -0.7623  0.0349  0.0796
 7148SOL    HW122022   3.112   4.093   5.052  0.2431 -0.4372 -2.2191
 7148SOL    HW222023   3.079   3.957   5.108  0.0476  0.5697  0.2686
 7149SOL     OW22024   3.970   3.078   2.069 -0.1911  0.0601 -0.0508
 7149SOL    HW122025   3.906   3.023   2.114  1.0762  0.6613  2.6256
 7149SOL    HW222026   3.923   3.160   2.053 -0.2478  0.3704  1.5636
 7150SOL     OW22027   5.287   1.212   9.295  0.0218 -0.0360  0.4767
 7150SOL    HW122028   5.247   1.204   9.208 -2.0256  2.9178  0.9823
 7150SOL    HW222029   5.234   1.156   9.352  0.1558 -0.4717  0.1764
 7151SOL     OW22030   2.193   2.146   3.503  0.3794 -0.6540  0.0773
 7151SOL    HW122031   2.142   2.218   3.467  0.2509 -0.8281 -0.0890
 7151SOL    HW222032   2.189   2.159   3.598  1.6910  0.4762  0.0095
 7152SOL     OW22033   4.780   6.262   6.324  0.0582 -0.0552 -0.4975
 7152SOL    HW122034   4.714   6.203   6.287 -0.3578  0.2350 -0.2339
 7152SOL    HW222035   4.757   6.348   6.288  0.0127  0.1261 -0.0442
 7153SOL     OW22036   7.825   0.627   2.215 -0.1642 -0.4116 -0.0551
 7153SOL    HW122037   7.868   0.649   2.298  0.4273  0.0327 -0.4631
 7153SOL    HW222038   7.830   0.708   2.164  0.4086 -0.9594 -0.9060
 7154SOL     OW22039   2.572   5.969   9.191 -0.2638  0.6732  0.1013
 7154SOL    HW122040   2.576   6.004   9.280  0.3358  0.1290  0.3013
 7154SOL    HW222041   2.606   6.040   9.136 -2.0227  1.5614  0.1175
 7155SOL     OW22042   7.489   8.396  -0.010 -0.2917 -0.0237  0.1535
 7155SOL    HW122043   7.544   8.434   0.058 -1.6099  0.6800  0.8825
 7155SOL    HW222044   7.436   8.469  -0.042 -0.9244 -0.6950 -0.3906
 7156SOL     OW22045   4.847   8.488   4.825  0.1503 -0.5081 -0.0339
 7156SOL    HW122046   4.921   8.479   4.885  0.6353  0.9583 -0.3829
 7156SOL    HW222047   4.804   8.570   4.850  1.3201  1.0394 -2.6479
 7157SOL     OW22048   0.907   0.542   5.995 -0.4120  0.1706  0.2370
 7157SOL    HW122049   0.884   0.554   6.087 -0.2465 -0.6021  0.3846
 7157SOL    HW222050   0.920   0.448   5.986 -2.7868 -0.1105 -1.1002
 7158SOL     OW22051   2.539   3.836   2.591 -0.1914 -0.3047  0.2661
 7158SOL    HW122052   2.543   3.887   2.511  2.2826  1.0061  1.1198
 7158SOL    HW222053   2.483   3.761   2.570 -0.2799  0.4315 -2.3892
 7159SOL     OW22054   3.045   5.302   7.759 -0.1794 -0.5227 -0.1322
 7159SOL    HW122055   2.981   5.280   7.826  0.6251 -0.1035  0.8005
 7159SOL    HW222056   3.066   5.219   7.717 -1.1321 -0.7008 -0.2768
 7160SOL     OW22057   7.159   3.467   5.220 -0.0933  0.3015  0.4551
 7160SOL    HW122058   7.237   3.427   5.181 -0.1822  0.0991  0.4857
 7160SOL    HW222059   7.085   3.425   5.177 -0.2295  2.7578 -1.9287
 7161SOL     OW22060   6.931   0.427   5.328  0.1058  0.1734  0.1598
 7161SOL    HW122061   6.923   0.371   5.405  0.3203 -0.6235 -0.3804
 7161SOL    HW222062   6.954   0.513   5.362 -2.7760  0.6331  1.2229
 7162SOL     OW22063   5.646   9.764   3.119  1.0245  0.5025  0.4009
 7162SOL    HW122064   5.691   9.848   3.109  3.8081 -0.7968  0.9651
 7162SOL    HW222065   5.672   9.734   3.206  1.2037 -1.5347 -0.3099
 7163SOL     OW22066   1.159   0.342   3.142 -0.1640 -0.6680  0.0891
 7163SOL    HW122067   1.089   0.392   3.099  0.0451 -1.0921 -0.7599
 7163SOL    HW222068   1.240   0.376   3.103 -0.0015 -1.3811 -0.1998
 7164SOL     OW22069   2.401   8.883   5.422  0.1585 -0.2990  0.3675
 7164SOL    HW122070   2.464   8.952   5.440  0.4255 -0.1414 -1.0631
 7164SOL    HW222071   2.414   8.820   5.493  0.8234  0.4818  0.9595
 7165SOL     OW22072   8.233   6.552   2.838 -0.0646  0.2432  0.4645
 7165SOL    HW122073   8.219   6.469   2.793 -1.5973 -0.3418  1.9542
 7165SOL    HW222074   8.160   6.559   2.900  1.3846  1.5296  2.1103
 7166SOL     OW22075   6.464   0.643   1.933 -0.5193 -1.0564 -0.0973
 7166SOL    HW122076   6.404   0.692   1.989 -0.3559 -1.6535  0.6259
 7166SOL    HW222077   6.461   0.687   1.849 -1.2837 -0.5378  0.1972
 7167SOL     OW22078   5.550   7.520   3.221  0.1664  0.2812 -0.1363
 7167SOL    HW122079   5.492   7.444   3.229 -1.0005  1.2546  1.2549
 7167SOL    HW222080   5.501   7.581   3.166 -0.1441  1.0810  0.9817
 7168SOL     OW22081   9.352   5.258   3.726  0.8103  0.3554  0.0919
 7168SOL    HW122082   9.357   5.306   3.643 -0.7270  1.0990  0.3859
 7168SOL    HW222083   9.434   5.280   3.771  1.8975 -0.4540 -1.3907
 7169SOL     OW22084   8.879   0.058   5.679 -0.0567 -0.5842 -0.0301
 7169SOL    HW122085   8.862   0.065   5.773  1.1452  1.1550  0.0995
 7169SOL    HW222086   8.792   0.071   5.639 -0.7259 -2.1727  0.8160
 7170SOL     OW22087   5.745   5.744   0.951 -0.5003 -0.0857 -0.1379
 7170SOL    HW122088   5.710   5.832   0.935  1.5313  0.7933 -0.0554
 7170SOL    HW222089   5.773   5.713   0.865 -1.3061 -0.7195 -0.1831
 7171SOL     OW22090   2.124   6.215   3.418 -0.0985 -0.0251  0.6466
 7171SOL    HW122091   2.213   6.248   3.433  0.2329 -0.7183  0.2368
 7171SOL    HW222092   2.101   6.248   3.331 -0.1094 -0.1415  0.6060
 7172SOL     OW22093   5.413   1.678   5.407 -0.8077 -0.2146  0.0264
 7172SOL    HW122094   5.330   1.712   5.442 -0.2548  1.9131 -0.5487
 7172SOL    HW222095   5.389   1.598   5.361 -2.2043 -0.7620  1.5750
 7173SOL     OW22096   6.452   8.525   4.064 -0.4305  0.3186 -0.3540
 7173SOL    HW122097   6.505   8.530   3.985  0.6058 -0.8615  0.2353
 7173SOL    HW222098   6.405   8.609   4.067  1.3546  1.3827 -0.9205
 7174SOL     OW22099   8.685   8.636   4.549 -0.6775  0.3296 -0.2970
 7174SOL    HW122100   8.750   8.675   4.490 -1.7596  3.5465  0.4136
 7174SOL    HW222101   8.737   8.599   4.621  0.5185 -1.2948 -1.9056
 7175SOL     OW22102   7.511   2.869   9.289 -0.6289  0.4860 -0.4956
 7175SOL    HW122103   7.526   2.797   9.229 -0.2577 -0.1950  0.3959
 7175SOL    HW222104   7.453   2.832   9.356  1.3929  0.2998  1.2320
 7176SOL     OW22105   9.557   1.279   7.132 -0.6976  0.2774  0.3748
 7176SOL    HW122106   9.463   1.295   7.141 -0.7296  0.7110 -0.6562
 7176SOL    HW222107   9.598   1.344   7.189 -0.9555  1.6767 -0.9755
 7177SOL     OW22108   2.379   9.617   1.185  0.3565  0.1551  0.1675
 7177SOL    HW122109   2.460   9.581   1.148  1.2098  0.4650  1.6530
 7177SOL    HW222110   2.378   9.584   1.275  0.2053  2.3078  1.0058
 7178SOL     OW22111   3.544   6.397   8.041 -0.4774 -0.0521  0.3928
 7178SOL    HW122112   3.456   6.363   8.054 -0.0263 -1.2857  0.3508
 7178SOL    HW222113   3.601   6.321   8.048  0.5913  0.7103  0.3575
 7179SOL     OW22114   9.126   4.738   2.410 -0.4739 -0.4598  0.0420
 7179SOL    HW122115   9.076   4.738   2.492  2.0825  1.9392  1.8401
 7179SOL    HW222116   9.090   4.810   2.359 -1.6764 -1.5747 -0.7315
 7180SOL     OW22117   6.260   4.135   2.554  0.6274  0.3632 -0.1374
 7180SOL    HW122118   6.170   4.124   2.524  1.2645  2.3549 -3.3794
 7180SOL    HW222119   6.255   4.203   2.621 -0.4931 -1.5073  1.7669
 7181SOL     OW22120   5.109   3.870   5.208 -0.1560  0.2330 -0.2858
 7181SOL    HW122121   5.163   3.907   5.277 -0.6426  0.0561  0.1943
 7181SOL    HW222122   5.126   3.776   5.212  2.2007  0.4623 -2.4488
 7182SOL     OW22123   8.144   6.097   2.173 -0.3635  0.2386  0.1407
 7182SOL    HW122124   8.069   6.138   2.217  0.8141  0.6546  1.8522
 7182SOL    HW222125   8.130   6.003   2.185 -0.3364  0.3319  0.9744
 7183SOL     OW22126   1.339   7.755   7.294 -0.1127  0.3562 -0.1879
 7183SOL    HW122127   1.407   7.786   7.235 -0.1872  0.5173 -0.1893
 7183SOL    HW222128   1.257   7.787   7.255 -0.0032  2.7962  1.4176
 7184SOL     OW22129   2.508   3.882   5.850 -0.4118 -0.1628 -0.5930
 7184SOL    HW122130   2.541   3.797   5.881 -1.7810 -1.9414 -3.5657
 7184SOL    HW222131   2.587   3.936   5.842  0.2977 -0.3869  3.1509
 7185SOL     OW22132   7.611   0.629   2.815 -0.2083 -0.5092 -0.1889
 7185SOL    HW122133   7.669   0.587   2.878  0.7231  0.3967 -0.4042
 7185SOL    HW222134   7.632   0.588   2.732  0.8003  0.4374 -0.4232
 7186SOL     OW22135   0.559   7.347   6.464  0.2621  0.5639 -0.2038
 7186SOL    HW122136   0.533   7.255   6.470 -0.0848  0.7405  1.5579
 7186SOL    HW222137   0.502   7.392   6.526 -2.1582  2.6201 -3.5479
 7187SOL     OW22138   4.078   3.798   3.270 -0.1904 -0.5730  0.6733
 7187SOL    HW122139   4.059   3.713   3.310  1.6689 -0.8228  1.0978
 7187SOL    HW222140   4.116   3.777   3.185  1.6982 -0.2643  1.3913
 7188SOL     OW22141   1.743   0.585   9.901  0.5586  0.8474 -0.0385
 7188SOL    HW122142   1.719   0.608   9.991 -1.1467  1.2199 -0.5557
 7188SOL    HW222143   1.669   0.614   9.848  1.0150 -0.4200 -1.4428
 7189SOL     OW22144   9.592   8.506   9.702  0.2451 -0.0243  0.1106
 7189SOL    HW122145   9.683   8.478   9.692  0.3933  0.5751 -0.2734
 7189SOL    HW222146   9.548   8.431   9.740  0.7959 -0.4962 -0.1709
 7190SOL     OW22147   8.294   5.525   8.276  0.0211 -0.0900 -0.0531
 7190SOL    HW122148   8.248   5.466   8.335  0.2721  0.4934  0.7508
 7190SOL    HW222149   8.329   5.593   8.333  0.3766  0.4271 -0.8656
 7191SOL     OW22150   4.513   0.360   5.637 -0.4493 -0.4958  0.1748
 7191SOL    HW122151   4.557   0.276   5.623 -1.6056 -1.4461  1.8603
 7191SOL    HW222152   4.467   0.376   5.554  1.9424 -0.0970 -1.1611
 7192SOL     OW22153   1.327   4.738   9.505  0.1555 -0.2192 -0.1266
 7192SOL    HW122154   1.409   4.704   9.470  0.2639  0.6981 -0.7802
 7192SOL    HW222155   1.259   4.699   9.450  0.1690 -0.6572  0.1600
 7193SOL     OW22156   3.682   1.432   9.011  0.0291  0.5203 -0.1598
 7193SOL    HW122157   3.597   1.449   8.972 -1.2391 -1.3053  1.5695
 7193SOL    HW222158   3.699   1.508   9.067 -1.5091  0.0030  1.0825
 7194SOL     OW22159   3.676   2.796   1.803  0.2862  0.6193  0.2739
 7194SOL    HW122160   3.591   2.830   1.831 -1.0571  0.7238 -3.3444
 7194SOL    HW222161   3.739   2.864   1.830 -0.6119  0.3701  3.3330
 7195SOL     OW22162   6.246   3.348   5.605 -0.5199  0.1323  0.6005
 7195SOL    HW122163   6.253   3.369   5.698  1.9664  0.0634  0.4878
 7195SOL    HW222164   6.308   3.276   5.592 -0.7423  0.2090 -1.1455
 7196SOL     OW22165   6.327   2.424   2.351  0.3751 -0.8264  0.0627
 7196SOL    HW122166   6.413   2.384   2.336  0.0125 -1.0436 -1.6027
 7196SOL    HW222167   6.281   2.414   2.268 -1.5473 -1.3754  1.1347
 7197SOL     OW22168   9.179   0.854   9.441 -0.6174  0.0212 -0.4233
 7197SOL    HW122169   9.132   0.895   9.513 -0.7342 -1.6908  0.5421
 7197SOL    HW222170   9.249   0.804   9.484 -1.4601 -2.0518 -1.3502
 7198SOL     OW22171   5.939   9.665   4.775 -0.0801  0.1554 -0.3353
 7198SOL    HW122172   5.882   9.644   4.850 -0.2414 -0.8830 -0.7259
 7198SOL    HW222173   5.883   9.653   4.699  0.1127  1.1173 -0.6346
 7199SOL     OW22174   2.830   5.904   4.234 -0.4965  0.3974 -0.0589
 7199SOL    HW122175   2.830   5.819   4.190  0.9268  0.3315  0.0428
 7199SOL    HW222176   2.841   5.884   4.326  0.0073  0.6919 -0.0509
 7200SOL     OW22177   6.274   2.889   9.784  0.4060 -0.0094  0.1242
 7200SOL    HW122178   6.228   2.971   9.768  0.3305 -0.4003 -1.9317
 7200SOL    HW222179   6.213   2.821   9.755  0.8284 -0.7592  0.9260
 7201SOL     OW22180   1.961   8.912   8.188  0.0861  0.0750 -0.3711
 7201SOL    HW122181   1.973   8.857   8.110  1.4491  1.5838 -1.2878
 7201SOL    HW222182   2.035   8.890   8.245  1.6164  2.0492 -1.4771
 7202SOL     OW22183   5.917   4.184   2.766 -0.7148 -0.2157  0.0838
 7202SOL    HW122184   5.945   4.236   2.841 -1.4512  0.0973  0.1545
 7202SOL    HW222185   5.857   4.119   2.803 -2.5464  1.0762 -0.4229
 7203SOL     OW22186   0.163   2.865   0.069 -0.4438  0.0147 -0.7322
 7203SOL    HW122187   0.250   2.893   0.042 -1.2313  0.7959 -2.5994
 7203SOL    HW222188   0.127   2.821  -0.008 -1.2731 -1.3976  0.4079
 7204SOL     OW22189   5.716   1.959   6.703  0.1710  0.0174 -0.8226
 7204SOL    HW122190   5.767   2.034   6.735 -0.5651 -0.1324  0.8426
 7204SOL    HW222191   5.626   1.990   6.705  0.0199 -0.3348 -1.8985
 7205SOL     OW22192   3.784   2.070   5.621  0.2366 -0.0040 -0.9419
 7205SOL    HW122193   3.772   2.011   5.547 -3.0113 -0.1893 -0.4144
 7205SOL    HW222194   3.700   2.115   5.630  0.9497  1.0035  1.8130
 7206SOL     OW22195   4.396   9.095   1.129 -0.1767 -0.0371  0.2105
 7206SOL    HW122196   4.392   9.116   1.222 -1.4465  0.7519  0.0113
 7206SOL    HW222197   4.489   9.081   1.110  0.3943  2.2529  1.0729
 7207SOL     OW22198   0.558   4.179   2.304  0.2345  0.3996 -0.1670
 7207SOL    HW122199   0.473   4.184   2.259  1.1548  0.3010 -1.9959
 7207SOL    HW222200   0.579   4.086   2.305  0.4058  0.4396  0.1615
 7208SOL     OW22201   3.398   7.760   1.746  0.1219  0.0223  0.2957
 7208SOL    HW122202   3.491   7.779   1.733  0.4827 -0.7522  1.5078
 7208SOL    HW222203   3.362   7.840   1.785  0.0534  0.6657 -1.0533
 7209SOL     OW22204   8.386   1.296   0.239 -0.0682 -0.4007 -0.5315
 7209SOL    HW122205   8.413   1.235   0.307  1.2975  0.4405 -0.2881
 7209SOL    HW222206   8.370   1.378   0.284 -0.0080 -0.0661 -1.1045
 7210SOL     OW22207   7.446   7.402   7.588 -0.0444 -0.2405 -0.2340
 7210SOL    HW122208   7.520   7.388   7.647  0.4052  1.7967 -0.2268
 7210SOL    HW222209   7.428   7.496   7.594 -2.8445 -0.6853  0.0008
 7211SOL     OW22210   3.584   5.175   7.729  0.2237 -0.7126  0.3944
 7211SOL    HW122211   3.526   5.234   7.777 -0.4540  0.1906 -1.4244
 7211SOL    HW222212   3.670   5.189   7.768 -0.4159 -0.6200  1.8420
 7212SOL     OW22213   9.606   7.324   5.436  0.3119 -0.1330  0.0941
 7212SOL    HW122214   9.693   7.322   5.476 -0.1817 -1.0373  1.1745
 7212SOL    HW222215   9.569   7.238   5.455 -0.3526 -0.2140 -1.4369
 7213SOL     OW22216   5.074   6.563   2.393  0.5717 -0.1408  0.5361
 7213SOL    HW122217   5.073   6.622   2.469 -0.9886 -0.1212  0.5241
 7213SOL    HW222218   4.990   6.518   2.397  0.1412  0.3829 -1.5792
 7214SOL     OW22219   7.895   4.678   2.126 -0.4810 -0.2293 -0.3396
 7214SOL    HW122220   7.964   4.667   2.060  0.4566 -1.0476  0.7542
 7214SOL    HW222221   7.826   4.617   2.099  1.1433 -2.8270  1.0200
 7215SOL     OW22222   7.567   2.070   3.483 -0.3675  0.3190 -0.5109
 7215SOL    HW122223   7.610   2.034   3.560 -0.1056 -1.1024 -1.2791
 7215SOL    HW222224   7.609   2.154   3.468  0.5837 -0.0421  0.0585
 7216SOL     OW22225   0.949   8.707   7.731 -0.2312 -0.1040 -0.4186
 7216SOL    HW122226   0.914   8.795   7.731  1.8087  0.7628 -0.0117
 7216SOL    HW222227   0.919   8.668   7.813 -1.1453  0.2030 -0.6070
 7217SOL     OW22228   6.824   1.762   2.205  0.1101  0.0548 -0.0626
 7217SOL    HW122229   6.901   1.705   2.201 -0.3908 -0.5578 -1.6052
 7217SOL    HW222230   6.860   1.849   2.222  1.1925 -0.1641 -1.0858
 7218SOL     OW22231   4.373   9.556   0.069  0.1257  0.2460 -0.1393
 7218SOL    HW122232   4.436   9.488   0.094  0.0247 -0.1340 -0.8905
 7218SOL    HW222233   4.427   9.630   0.042  0.2903 -0.4312 -1.7562
 7219SOL     OW22234   8.924   8.748   2.646 -0.0495 -0.1114  0.1631
 7219SOL    HW122235   8.906   8.807   2.573  0.1601 -0.4788 -0.1855
 7219SOL    HW222236   8.861   8.677   2.636  2.2009 -2.0188 -1.7339
 7220SOL     OW22237   3.363   6.627   0.034  0.2510 -0.3510 -0.2316
 7220SOL    HW122238   3.298   6.567  -0.002 -0.6412  0.5063 -0.0831
 7220SOL    HW222239   3.445   6.600  -0.006 -0.6864  0.6142 -3.1004
 7221SOL     OW22240   5.998   7.464   8.944 -0.5103 -0.1899 -0.2168
 7221SOL    HW122241   6.020   7.473   8.851  1.6275  1.8959  0.4086
 7221SOL    HW222242   5.912   7.506   8.952 -0.2326  0.5794 -1.0841
 7222SOL     OW22243   1.764   1.255   6.123 -0.6854  0.0608  0.2994
 7222SOL    HW122244   1.751   1.345   6.094 -1.8819 -0.4841 -1.0174
 7222SOL    HW222245   1.826   1.261   6.195  0.1664  1.8165 -0.5191
 7223SOL     OW22246   8.768   2.113   9.934 -0.3410 -0.3855 -0.3031
 7223SOL    HW122247   8.714   2.081   9.862 -1.0955  1.0433 -0.3919
 7223SOL    HW222248   8.713   2.102  10.012 -0.7072  0.8951 -0.3679
 7224SOL     OW22249   9.397   0.704   9.495  0.1524  0.1683 -0.2806
 7224SOL    HW122250   9.484   0.720   9.458  1.5152 -1.4649  1.9602
 7224SOL    HW222251   9.378   0.613   9.474 -1.1290  0.5519 -0.8820
 7225SOL     OW22252   2.224   9.558   7.559  0.2033 -0.2263 -0.8552
 7225SOL    HW122253   2.225   9.582   7.651 -1.2588  1.6658 -1.2733
 7225SOL    HW222254   2.311   9.520   7.543  0.9250  0.5520  0.9909
 7226SOL     OW22255   6.665   9.448   3.632  0.5829 -0.0004  0.4309
 7226SOL    HW122256   6.592   9.401   3.593  0.9961 -0.6339  0.3928
 7226SOL    HW222257   6.698   9.389   3.701  1.8235 -0.3055 -0.3756
 7227SOL     OW22258   1.094   7.372   6.675 -0.2995 -0.0930  0.1680
 7227SOL    HW122259   1.135   7.288   6.654 -0.2961 -0.1261  0.3067
 7227SOL    HW222260   1.044   7.394   6.596 -0.0096 -0.0464 -0.0047
 7228SOL     OW22261   0.744   2.251   8.500 -0.1405 -0.2320  0.1017
 7228SOL    HW122262   0.773   2.164   8.473 -1.1564 -0.3690 -0.5795
 7228SOL    HW222263   0.767   2.307   8.426 -1.5787 -0.3439 -0.4507
 7229SOL     OW22264   1.930   1.984   8.899 -0.1706  0.0217  0.0291
 7229SOL    HW122265   1.838   1.958   8.897 -0.3701  0.6752  0.5724
 7229SOL    HW222266   1.948   2.003   8.992  1.0533 -2.0237  0.2818
 7230SOL     OW22267   5.119   0.905   4.878 -0.6633 -0.7135 -0.2000
 7230SOL    HW122268   5.037   0.876   4.916 -1.7558 -0.8558 -2.5006
 7230SOL    HW222269   5.176   0.921   4.953 -2.4471 -1.5674  1.4157
 7231SOL     OW22270   0.997   2.220   8.020 -0.1035 -0.1149  0.3475
 7231SOL    HW122271   0.952   2.303   8.030 -0.3605 -0.0105 -1.3879
 7231SOL    HW222272   1.012   2.212   7.926  0.9356 -1.4976  0.5968
 7232SOL     OW22273   8.870   4.735   7.215 -0.4508  0.1916 -0.2708
 7232SOL    HW122274   8.949   4.788   7.206  0.3025 -0.9843 -0.9491
 7232SOL    HW222275   8.870   4.708   7.307  0.1506 -0.0859 -0.3426
 7233SOL     OW22276   3.299   9.953   8.473 -0.0927 -0.3784  0.2170
 7233SOL    HW122277   3.227   9.934   8.533  1.1885  0.5799  2.1491
 7233SOL    HW222278   3.257  10.000   8.401 -1.5501 -0.7518  0.7678
 7234SOL     OW22279   2.924   6.520   4.714 -0.0791  1.2563  0.5698
 7234SOL    HW122280   2.983   6.508   4.788  0.8614  2.8066  0.1072
 7234SOL    HW222281   2.871   6.440   4.712 -0.5715  1.4274  3.2825
 7235SOL     OW22282   4.611   8.382   3.816 -0.0978 -0.3927  0.0542
 7235SOL    HW122283   4.518   8.404   3.811  0.0668  0.2437 -0.2990
 7235SOL    HW222284   4.628   8.368   3.909 -0.5259 -0.4086  0.1296
 7236SOL     OW22285   6.362   0.213   1.666  0.0366 -0.3529  0.3786
 7236SOL    HW122286   6.371   0.289   1.609  0.7466  0.2857  1.3133
 7236SOL    HW222287   6.452   0.184   1.683 -0.1993 -1.0691  0.4689
 7237SOL     OW22288   7.675   7.929   5.455  0.5772 -0.1158 -0.5132
 7237SOL    HW122289   7.731   8.003   5.432  0.1314  0.6929  0.8540
 7237SOL    HW222290   7.700   7.859   5.394  2.4482  0.4971 -0.5093
 7238SOL     OW22291   3.204   5.949   8.042 -0.1585 -0.3622  0.0708
 7238SOL    HW122292   3.157   6.032   8.036 -1.9815 -1.2779  1.0324
 7238SOL    HW222293   3.226   5.941   8.135  0.4952 -0.7164 -0.1045
 7239SOL     OW22294   4.357   8.155   8.168 -0.2994  0.2581 -0.4511
 7239SOL    HW122295   4.277   8.139   8.118 -2.0198  1.2717  1.8014
 7239SOL    HW222296   4.363   8.251   8.175  0.7624  0.1796 -0.0320
 7240SOL     OW22297   4.613   5.658   0.747  0.3108  0.2740 -0.4405
 7240SOL    HW122298   4.535   5.637   0.696  0.9630  1.1273 -1.8398
 7240SOL    HW222299   4.686   5.629   0.693  1.0234  1.1018  0.0523
 7241SOL     OW22300   7.991   8.060   5.053 -0.2768 -0.1140 -0.5021
 7241SOL    HW122301   7.930   7.986   5.057  0.0186 -0.3120  1.0278
 7241SOL    HW222302   8.055   8.041   5.121  1.2241  0.3539 -1.7221
 7242SOL     OW22303   8.991   5.882   4.048  0.1325 -0.1635 -0.5286
 7242SOL    HW122304   9.077   5.920   4.068  0.3677  0.2104 -2.1065
 7242SOL    HW222305   8.987   5.803   4.102  0.8680  0.5435  0.6079
 7243SOL     OW22306   9.385   7.426   9.619 -0.5058 -0.4731  0.1734
 7243SOL    HW122307   9.405   7.473   9.537 -0.1627 -2.2697 -0.8252
 7243SOL    HW222308   9.290   7.417   9.618 -0.4076 -1.7359 -0.8053
 7244SOL     OW22309   7.453   9.071   8.204 -0.3240  0.0638 -0.0418
 7244SOL    HW122310   7.431   9.017   8.128 -1.9532  2.4739 -1.4178
 7244SOL    HW222311   7.388   9.047   8.270 -0.6120 -0.1058 -0.3851
 7245SOL     OW22312   4.613   9.477   1.430 -0.9296  0.0280 -0.6954
 7245SOL    HW122313   4.533   9.517   1.465  0.1259  1.1907  0.5148
 7245SOL    HW222314   4.597   9.470   1.336 -2.4108  0.3158 -0.4894
 7246SOL     OW22315   0.979   5.944   1.999 -0.2865 -0.6647 -0.2441
 7246SOL    HW122316   1.039   5.970   2.068  0.6804 -1.6116 -0.7068
 7246SOL    HW222317   0.991   5.850   1.990 -1.0458 -0.6956 -1.0871
 7247SOL     OW22318   2.589   5.243   9.562  0.4337  0.0450 -0.1607
 7247SOL    HW122319   2.650   5.223   9.633 -0.3496  0.1914  0.5770
 7247SOL    HW222320   2.610   5.332   9.536  1.4911 -0.4018 -0.9274
 7248SOL     OW22321   5.812   2.043   5.985  0.1692 -0.2366  0.3871
 7248SOL    HW122322   5.903   2.065   6.006  0.0008  1.3566 -0.3405
 7248SOL    HW222323   5.815   1.952   5.957  1.3865 -0.4931  1.2688
 7249SOL     OW22324   2.990   4.759   2.288  0.3085  0.1313 -0.1322
 7249SOL    HW122325   2.926   4.812   2.241  0.3871 -0.3623 -0.8041
 7249SOL    HW222326   3.014   4.689   2.227  2.0397  0.7228 -0.1670
 7250SOL     OW22327   3.344   6.401   0.298  0.4390  0.2677  0.1470
 7250SOL    HW122328   3.347   6.343   0.374 -0.3559  1.4568  1.1233
 7250SOL    HW222329   3.408   6.470   0.319 -0.6930  1.2847  0.3532
 7251SOL     OW22330   9.216   2.407   9.805  0.1085 -0.7504 -0.3826
 7251SOL    HW122331   9.200   2.388   9.897 -0.1297  1.8395  0.1804
 7251SOL    HW222332   9.141   2.461   9.778  0.2763 -1.2970 -2.0513
 7252SOL     OW22333   1.350   9.350   4.230 -0.2020  0.4566  0.2269
 7252SOL    HW122334   1.336   9.441   4.206  1.5202  0.5962 -0.3595
 7252SOL    HW222335   1.276   9.329   4.287  0.8492  3.1024  2.8199
 7253SOL     OW22336   6.675   9.051   5.829  0.1552 -0.3459  0.0358
 7253SOL    HW122337   6.719   9.032   5.913 -0.3513 -1.8267 -0.0054
 7253SOL    HW222338   6.608   8.984   5.822 -1.2665  1.0780 -0.5478
 7254SOL     OW22339   4.844   8.166   4.172 -0.2785 -0.1761 -0.0143
 7254SOL    HW122340   4.880   8.183   4.085  1.2775 -1.2837  0.3752
 7254SOL    HW222341   4.917   8.129   4.221 -1.8719 -2.2327  0.9161
 7255SOL     OW22342   7.250   8.631   8.311 -0.2536  0.4523 -0.3455
 7255SOL    HW122343   7.251   8.625   8.407 -1.9916 -2.6601 -0.4056
 7255SOL    HW222344   7.208   8.715   8.293 -2.0688  0.0779  1.6883
 7256SOL     OW22345   1.150   9.917   9.241  0.3381 -0.4531 -0.0219
 7256SOL    HW122346   1.101   9.844   9.204 -1.2142  0.1910  0.6657
 7256SOL    HW222347   1.123   9.920   9.333  1.3480  0.2021  0.2717
 7257SOL     OW22348   9.243   7.659   5.275  0.4203  0.2833 -0.0716
 7257SOL    HW122349   9.182   7.586   5.263  1.6850 -0.7563 -0.4938
 7257SOL    HW222350   9.330   7.617   5.277  1.0971  1.6430  1.0370
 7258SOL     OW22351   5.468   5.997   2.578  0.1430 -0.2709  0.1545
 7258SOL    HW122352   5.499   6.081   2.544  0.9214 -1.0918 -1.2166
 7258SOL    HW222353   5.390   5.977   2.527 -1.5830  0.7804  2.1953
 7259SOL     OW22354   8.904   6.027   7.964  0.2801 -0.0216  0.2097
 7259SOL    HW122355   8.872   6.045   7.876  0.1375  0.7044  0.4036
 7259SOL    HW222356   8.934   5.936   7.961 -0.8191 -0.3810 -0.2670
 7260SOL     OW22357   3.871   8.947   1.589  0.0065  0.2699  0.4078
 7260SOL    HW122358   3.881   8.896   1.669  0.7549  0.1077  0.2142
 7260SOL    HW222359   3.929   8.905   1.526 -0.9939  0.0595 -0.3957
 7261SOL     OW22360   5.373   6.153   4.527  0.0066 -0.3355  0.1345
 7261SOL    HW122361   5.392   6.190   4.441 -1.2107 -0.3673 -0.1542
 7261SOL    HW222362   5.418   6.068   4.526  0.5033 -0.0758 -0.2344
 7262SOL     OW22363   5.113   7.067   0.616 -0.1718 -0.4473  0.0474
 7262SOL    HW122364   5.126   6.999   0.549 -1.0862 -1.4884  0.8826
 7262SOL    HW222365   5.196   7.071   0.662  0.0500 -0.6500 -0.3251
 7263SOL     OW22366   5.393   9.943   3.608 -0.0846 -0.0029 -0.1602
 7263SOL    HW122367   5.298   9.953   3.612 -0.3808 -1.5545 -1.8219
 7263SOL    HW222368   5.425  10.027   3.574 -0.8307  0.5635  0.5008
 7264SOL     OW22369   0.760   9.584   7.143  0.3919  0.0506 -0.5692
 7264SOL    HW122370   0.753   9.512   7.079 -0.1194  0.7837 -1.3608
 7264SOL    HW222371   0.854   9.594   7.158  0.4949 -0.4249 -0.8670
 7265SOL     OW22372   5.299   9.471   6.247  0.1337  0.3735  0.4904
 7265SOL    HW122373   5.300   9.503   6.157 -1.1452 -0.6789  0.0865
 7265SOL    HW222374   5.389   9.441   6.263  1.0066  2.6678  0.3964
 7266SOL     OW22375   1.779   1.812   8.033  0.3600  0.0067  0.6001
 7266SOL    HW122376   1.828   1.742   8.077  0.4859  0.1465  0.6830
 7266SOL    HW222377   1.809   1.892   8.074  0.8262  0.1807 -0.0534
 7267SOL     OW22378   3.510   5.491   3.775 -0.0084 -0.3533  1.1771
 7267SOL    HW122379   3.417   5.513   3.768  0.1633 -0.0910 -0.8554
 7267SOL    HW222380   3.511   5.398   3.797 -0.7329 -0.1141  2.2831
 7268SOL     OW22381   5.426   3.111   0.552 -0.2245 -0.4629  0.0353
 7268SOL    HW122382   5.397   3.037   0.499  0.9543  0.2063 -1.6194
 7268SOL    HW222383   5.378   3.186   0.518 -1.0152 -0.3312  1.3537
 7269SOL     OW22384   7.923   1.289   7.967 -0.2373 -0.0017  0.0021
 7269SOL    HW122385   7.888   1.210   8.008  0.3504 -0.1669  0.1952
 7269SOL    HW222386   7.858   1.312   7.901  0.7085 -2.0729 -1.8087
 7270SOL     OW22387   3.948   1.249   9.474  0.1274  0.0320 -0.4356
 7270SOL    HW122388   3.914   1.223   9.388 -2.1810 -0.2450  0.4803
 7270SOL    HW222389   4.030   1.200   9.482 -0.7770 -1.8268 -1.5351
 7271SOL     OW22390   6.854   4.977   6.152  0.0947 -0.1889 -0.4643
 7271SOL    HW122391   6.891   5.065   6.143  1.1238 -0.2857  2.0197
 7271SOL    HW222392   6.914   4.921   6.102  0.5462  0.2792 -0.4607
 7272SOL     OW22393   0.186   4.124   9.569  0.0676  0.3857 -0.0271
 7272SOL    HW122394   0.161   4.194   9.508  0.7823  0.9495  0.3196
 7272SOL    HW222395   0.193   4.168   9.654 -0.2826 -0.2697  0.3462
 7273SOL     OW22396   7.770   8.340   3.231  0.7933  0.4438 -0.1797
 7273SOL    HW122397   7.794   8.351   3.323 -1.7537  0.9171  0.5098
 7273SOL    HW222398   7.849   8.306   3.189  1.8281 -0.4070  2.3014
 7274SOL     OW22399   7.514   1.181   9.409  0.4830 -0.4478 -0.5774
 7274SOL    HW122400   7.494   1.274   9.404 -0.4058 -0.6946 -2.0161
 7274SOL    HW222401   7.579   1.167   9.340 -0.4082 -1.1331 -1.2930
 7275SOL     OW22402   3.617   7.631   4.766  0.1912  0.3995  0.0927
 7275SOL    HW122403   3.651   7.577   4.837 -1.0563  0.1788  0.5508
 7275SOL    HW222404   3.526   7.648   4.791 -0.6316 -0.6432 -2.0128
 7276SOL     OW22405   6.645   3.528   7.167 -0.4144 -0.0223 -0.5790
 7276SOL    HW122406   6.552   3.526   7.189 -0.7578 -0.7782 -1.9611
 7276SOL    HW222407   6.687   3.572   7.241 -1.7467 -0.5222  0.5048
 7277SOL     OW22408   4.199   9.706   6.105  0.0662 -0.9688  0.7145
 7277SOL    HW122409   4.124   9.763   6.115 -0.0711 -1.1907  0.9514
 7277SOL    HW222410   4.223   9.713   6.012  0.3356 -0.1776  0.8411
 7278SOL     OW22411   2.405   9.652   0.806 -0.5262  0.8986 -0.3152
 7278SOL    HW122412   2.455   9.632   0.885 -0.9042 -0.5537 -0.4096
 7278SOL    HW222413   2.328   9.700   0.838 -0.0759  1.3772  0.0545
 7279SOL     OW22414   7.803   6.338   7.881  0.4271  0.1586  0.5724
 7279SOL    HW122415   7.818   6.388   7.961  0.4115 -0.0593  0.7110
 7279SOL    HW222416   7.865   6.375   7.818 -0.0438  0.8061  0.4791
 7280SOL     OW22417   7.927   0.930   1.275 -0.0814 -0.0686  0.2937
 7280SOL    HW122418   7.882   1.013   1.263 -0.8923 -0.1695  2.2200
 7280SOL    HW222419   7.953   0.930   1.368  1.0044 -1.4274  0.0304
 7281SOL     OW22420   0.291   1.787   0.722 -0.3813  0.2349  0.0724
 7281SOL    HW122421   0.235   1.797   0.646  1.5780 -0.1968 -1.5260
 7281SOL    HW222422   0.308   1.692   0.727 -0.2585  0.2931  0.8634
 7282SOL     OW22423   5.709   8.194   8.991 -0.1481  0.0486 -0.1012
 7282SOL    HW122424   5.710   8.279   9.035 -0.3773  0.1515 -0.2969
 7282SOL    HW222425   5.642   8.144   9.039 -1.8987  0.8420 -1.6094
 7283SOL     OW22426   7.372   9.111   9.996 -0.2962  0.2928 -0.6244
 7283SOL    HW122427   7.307   9.047  10.027  1.1869 -1.5473 -1.0807
 7283SOL    HW222428   7.338   9.141   9.912 -0.6568 -0.4843 -0.7648
 7284SOL     OW22429   6.164   8.028   1.336 -0.3982  0.2563 -0.2278
 7284SOL    HW122430   6.186   7.973   1.411 -0.5045 -0.8038 -0.9522
 7284SOL    HW222431   6.213   7.990   1.262 -1.2412  0.5185 -0.9437
 7285SOL     OW22432   5.966   1.121   6.532 -0.7627  0.4564 -0.5334
 7285SOL    HW122433   6.021   1.185   6.578 -0.5538 -0.8522  1.1043
 7285SOL    HW222434   6.024   1.085   6.464 -0.3685  0.8278 -0.4050
 7286SOL     OW22435   8.577   1.709   1.063 -0.3054 -0.2508  0.0858
 7286SOL    HW122436   8.493   1.739   1.028 -0.0872  0.2348 -0.0324
 7286SOL    HW222437   8.603   1.637   1.006 -1.1166 -1.0758  0.7183
 7287SOL     OW22438   7.198   3.733   3.871 -0.1385 -0.2260 -0.2297
 7287SOL    HW122439   7.179   3.792   3.798 -0.5503 -0.4518 -0.3091
 7287SOL    HW222440   7.276   3.770   3.912 -0.0434  0.0388 -0.6390
 7288SOL     OW22441   3.528   7.683   3.306  0.0311  0.4323 -0.2809
 7288SOL    HW122442   3.576   7.621   3.360  2.0672  2.0699 -0.1002
 7288SOL    HW222443   3.477   7.735   3.369  1.3848  1.4751 -0.0045
 7289SOL     OW22444   7.689   3.671   4.758  0.3665 -0.0952  0.2886
 7289SOL    HW122445   7.725   3.635   4.838  1.1041 -1.5947 -0.6604
 7289SOL    HW222446   7.727   3.758   4.750  1.8194 -0.6818  0.5923
 7290SOL     OW22447   2.967   8.680   0.051  0.0448  0.4197  0.0837
 7290SOL    HW122448   2.991   8.771   0.034  0.2319  0.5436  0.9533
 7290SOL    HW222449   2.926   8.681   0.138 -2.3407  0.0634 -0.9611
 7291SOL     OW22450   7.659   7.987   1.500  0.1690  0.2478  0.3229
 7291SOL    HW122451   7.592   8.003   1.434  0.6192 -1.6827 -0.6494
 7291SOL    HW222452   7.660   8.068   1.552 -3.3780  0.1100  0.8511
 7292SOL     OW22453   5.229   8.876   8.857  0.4963  0.6360 -0.1073
 7292SOL    HW122454   5.224   8.855   8.764 -1.3521 -1.6400  0.4046
 7292SOL    HW222455   5.182   8.959   8.865  0.8742  0.9810 -1.2020
 7293SOL     OW22456   1.162   9.884   6.790  0.1530 -0.3664 -0.6333
 7293SOL    HW122457   1.079   9.931   6.799  1.2010  1.7240 -1.1117
 7293SOL    HW222458   1.162   9.852   6.700 -0.3972 -0.9220 -0.4375
 7294SOL     OW22459   4.621   6.933   5.095 -0.6847  0.1297 -0.0401
 7294SOL    HW122460   4.639   6.884   5.175  0.7847 -1.1930 -1.1184
 7294SOL    HW222461   4.707   6.950   5.057 -1.3661  0.3979 -1.5405
 7295SOL     OW22462   1.156   0.112   6.422 -0.3844 -0.8016  0.1017
 7295SOL    HW122463   1.207   0.036   6.392  1.6602  0.0562  1.1598
 7295SOL    HW222464   1.126   0.153   6.341 -0.4894 -2.0511 -0.5276
 7296SOL     OW22465   0.162   3.208   7.237 -0.1273 -0.3544 -0.4483
 7296SOL    HW122466   0.179   3.239   7.326  1.8936 -0.3778 -0.7741
 7296SOL    HW222467   0.134   3.117   7.249 -2.4326  0.3925  0.2811
 7297SOL     OW22468   5.453   9.939   0.940 -0.1631  0.3514 -0.1887
 7297SOL    HW122469   5.426   9.848   0.926  1.6066 -0.2430 -0.0680
 7297SOL    HW222470   5.513   9.958   0.868 -0.2939  1.3323 -0.0568
 7298SOL     OW22471   2.093   7.278   6.642  0.3457  0.1529 -0.0067
 7298SOL    HW122472   2.040   7.291   6.564 -0.7989 -0.4789  0.6279
 7298SOL    HW222473   2.153   7.352   6.644 -0.1728  0.6109 -1.0328
 7299SOL     OW22474   2.047   8.810   9.471 -0.5611 -0.6165  0.1620
 7299SOL    HW122475   1.981   8.767   9.526 -0.9141 -0.8145 -0.4013
 7299SOL    HW222476   2.124   8.819   9.527  0.1017 -3.4337 -0.1495
 7300SOL     OW22477   6.403   0.705   3.704 -0.7717  0.4707 -0.0540
 7300SOL    HW122478   6.426   0.798   3.709 -1.0070  0.8049 -3.2052
 7300SOL    HW222479   6.341   0.700   3.631 -1.8067 -2.0268  0.8802
 7301SOL     OW22480   8.772   1.876   9.651 -0.4183 -0.0976  0.0281
 7301SOL    HW122481   8.781   1.952   9.594 -0.6454  0.1777  0.3608
 7301SOL    HW222482   8.697   1.895   9.706  0.2225 -0.0530  0.9041
 7302SOL     OW22483   9.878   2.323   3.606  0.2287 -0.3576  0.0941
 7302SOL    HW122484   9.938   2.366   3.545  0.2642  0.9944  1.0291
 7302SOL    HW222485   9.864   2.236   3.569 -0.3842  0.6774 -2.2444
 7303SOL     OW22486   1.763   7.141   6.593 -0.2443  0.1072  0.0126
 7303SOL    HW122487   1.749   7.177   6.681 -3.3612 -1.1276  0.1232
 7303SOL    HW222488   1.773   7.047   6.606 -1.5309 -0.1940 -0.9971
 7304SOL     OW22489   0.417   6.655   1.665 -0.1105 -0.0618  0.2929
 7304SOL    HW122490   0.337   6.647   1.718  1.1212  1.2638  2.5021
 7304SOL    HW222491   0.418   6.746   1.637  1.5063  0.4554  1.8747
 7305SOL     OW22492   1.952   4.204   9.852 -0.1555  0.1746  0.5549
 7305SOL    HW122493   1.889   4.276   9.848 -0.0085  0.2424 -1.0343
 7305SOL    HW222494   2.032   4.239   9.814  0.2672 -0.4971  0.8053
 7306SOL     OW22495   0.626   3.080   5.502  0.1708  0.2570 -0.7130
 7306SOL    HW122496   0.632   3.105   5.410 -0.5277  1.2820 -0.4982
 7306SOL    HW222497   0.681   3.002   5.509 -1.0825 -0.8730 -2.3652
 7307SOL     OW22498   2.377   3.781   6.840 -0.4219 -0.1576  0.4468
 7307SOL    HW122499   2.427   3.862   6.834 -0.4670 -0.0147  1.7442
 7307SOL    HW222500   2.285   3.810   6.837 -0.4684  0.0264  2.5053
 7308SOL     OW22501   5.251   4.215   0.127 -0.8956  0.3884 -0.0692
 7308SOL    HW122502   5.270   4.302   0.093  0.0221  0.7649  1.3067
 7308SOL    HW222503   5.320   4.199   0.191 -0.1314 -1.9778 -1.3356
 7309SOL     OW22504   8.264   3.755   3.536 -0.6107 -0.0780  0.1049
 7309SOL    HW122505   8.291   3.740   3.626  0.7831 -1.0534 -0.4294
 7309SOL    HW222506   8.325   3.822   3.504 -1.3293  0.5260 -0.0154
 7310SOL     OW22507   6.293   7.444   5.237  0.7086 -0.2527  0.1965
 7310SOL    HW122508   6.249   7.529   5.243  0.2422 -0.0017 -3.7600
 7310SOL    HW222509   6.385   7.466   5.220  1.2500 -0.6851  2.2827
 7311SOL     OW22510   1.420   2.005   8.160  0.3764 -0.2409  0.3766
 7311SOL    HW122511   1.462   2.087   8.137 -2.2002  0.8354 -0.8860
 7311SOL    HW222512   1.407   2.011   8.255  2.1725 -0.2447  0.6650
 7312SOL     OW22513   0.624   8.908   4.137 -0.3352 -0.6244  0.3113
 7312SOL    HW122514   0.603   8.818   4.160 -0.6409 -0.7762 -0.5305
 7312SOL    HW222515   0.710   8.923   4.177 -0.7799 -0.9069  1.4141
 7313SOL     OW22516   5.141   9.716   8.113  0.2693 -0.3334 -0.6055
 7313SOL    HW122517   5.131   9.811   8.103  0.1726  0.3574  4.1016
 7313SOL    HW222518   5.058   9.687   8.151  1.8878 -1.3321  2.5132
 7314SOL     OW22519   2.713   8.809   9.565 -0.6186 -0.0876  0.0357
 7314SOL    HW122520   2.795   8.835   9.607 -0.7805  1.4808 -0.5669
 7314SOL    HW222521   2.645   8.836   9.626 -0.7658  0.5206 -0.3846
 7315SOL     OW22522   2.739   8.169   2.816  0.0212 -0.8522  0.3334
 7315SOL    HW122523   2.810   8.213   2.863 -0.7716 -0.5582  1.2810
 7315SOL    HW222524   2.775   8.154   2.728  0.3506  1.6348 -0.0412
 7316SOL     OW22525   2.688   0.197   9.544 -0.1542  0.1684 -0.1136
 7316SOL    HW122526   2.603   0.152   9.536 -1.0552  1.1048  2.9283
 7316SOL    HW222527   2.666   0.290   9.541  0.7548  0.4195  0.6336
 7317SOL     OW22528   0.561   6.499   7.211  0.2286  0.2386 -0.2450
 7317SOL    HW122529   0.466   6.488   7.205 -0.1450  2.6552  0.3345
 7317SOL    HW222530   0.591   6.421   7.258 -1.9277  0.9135  2.5200
 7318SOL     OW22531   9.107   5.126   1.713  0.1418  0.5149  0.3530
 7318SOL    HW122532   9.062   5.087   1.639  1.5309 -1.2956  0.3844
 7318SOL    HW222533   9.039   5.139   1.779 -0.5482 -1.0550 -0.0068
 7319SOL     OW22534   0.872   8.126   5.322 -0.0278 -0.1604 -0.1059
 7319SOL    HW122535   0.806   8.061   5.344 -1.1598  1.6584  2.2889
 7319SOL    HW222536   0.917   8.144   5.405  0.2565  2.0600 -0.6736
 7320SOL     OW22537   0.655   3.020   9.617 -0.3786 -0.0809 -0.1175
 7320SOL    HW122538   0.662   2.993   9.526 -1.2067  0.7514 -0.4456
 7320SOL    HW222539   0.579   2.972   9.651  0.2313 -0.7770  0.2909
 7321SOL     OW22540   3.186   5.468   4.463  0.3109 -0.0271 -0.2570
 7321SOL    HW122541   3.155   5.383   4.432 -0.3331  0.1759 -0.1816
 7321SOL    HW222542   3.238   5.503   4.390 -0.6725  0.1700 -0.8831
 7322SOL     OW22543   4.891   3.603   4.646 -0.6129 -0.5515  0.4570
 7322SOL    HW122544   4.923   3.613   4.736  0.1204 -1.7959  0.3571
 7322SOL    HW222545   4.967   3.572   4.597 -0.7299  1.0317 -0.8267
 7323SOL     OW22546   5.218   7.253   1.071 -0.0753 -0.1931  0.7216
 7323SOL    HW122547   5.155   7.315   1.036 -0.5905 -0.0346  1.8740
 7323SOL    HW222548   5.262   7.300   1.142  1.7142 -0.1299 -0.3655
 7324SOL     OW22549   1.780   1.253   7.583  0.4259 -0.4812  0.1105
 7324SOL    HW122550   1.830   1.294   7.513  2.3441 -0.8500  1.1865
 7324SOL    HW222551   1.833   1.176   7.608 -0.9857 -1.2346  0.9180
 7325SOL     OW22552   7.670   5.957   7.424  0.5392  0.3605 -0.0189
 7325SOL    HW122553   7.719   5.892   7.373  0.1090 -0.0146  0.0407
 7325SOL    HW222554   7.613   5.904   7.481 -2.0854  0.7537 -2.0905
 7326SOL     OW22555   3.924   6.119   5.900  0.4359  0.1350  0.2320
 7326SOL    HW122556   3.988   6.060   5.861 -0.5676 -0.5690 -0.3944
 7326SOL    HW222557   3.912   6.084   5.989  0.1040 -0.4090 -0.0197
 7327SOL     OW22558   2.810   6.813   2.459  0.2470  0.2907  0.1653
 7327SOL    HW122559   2.849   6.762   2.530  1.5996  2.2472  0.9372
 7327SOL    HW222560   2.838   6.769   2.379  2.1316  0.2858  0.7742
 7328SOL     OW22561   6.158   2.819   5.841 -0.2550 -0.2586  0.2866
 7328SOL    HW122562   6.228   2.757   5.820 -0.0549 -0.2421  0.8751
 7328SOL    HW222563   6.204   2.901   5.857 -0.3807 -0.3175  0.9648
 7329SOL     OW22564   7.949   2.042   8.247 -0.7676 -0.4222  0.3254
 7329SOL    HW122565   7.869   2.092   8.262 -0.5469  0.2352 -0.6129
 7329SOL    HW222566   8.018   2.109   8.243 -0.7771 -0.4726 -3.5232
 7330SOL     OW22567   9.360   0.370   3.871 -0.5271  0.4615 -0.0536
 7330SOL    HW122568   9.271   0.341   3.849 -0.1854 -0.7694  0.1384
 7330SOL    HW222569   9.363   0.365   3.967 -0.2138  0.3707 -0.0679
 7331SOL     OW22570   3.773   9.506   3.658  0.0919 -0.0762  0.0252
 7331SOL    HW122571   3.840   9.476   3.597 -0.3754 -0.4031 -0.3351
 7331SOL    HW222572   3.760   9.433   3.718  0.2755  0.1015  0.2840
 7332SOL     OW22573   1.876   8.752   9.032  0.4197  0.3043 -0.1241
 7332SOL    HW122574   1.914   8.734   8.946  1.0938  1.8531 -0.1897
 7332SOL    HW222575   1.949   8.741   9.094  0.4922  1.2983 -0.0147
 7333SOL     OW22576   1.082   4.537   5.575 -0.3020 -0.2739  0.6168
 7333SOL    HW122577   1.147   4.501   5.515 -2.2965  0.2909 -2.0849
 7333SOL    HW222578   1.068   4.468   5.640  1.5229 -1.1605  0.1424
 7334SOL     OW22579   8.014   4.189   1.132 -0.0750  0.2573 -0.2977
 7334SOL    HW122580   8.075   4.141   1.188  0.9617  0.5645 -1.1333
 7334SOL    HW222581   8.046   4.280   1.135 -1.8792  0.9092  1.1012
 7335SOL     OW22582   1.810   3.751   9.728 -0.0379  0.0242  0.5106
 7335SOL    HW122583   1.890   3.803   9.731 -0.6676  0.9858  1.0198
 7335SOL    HW222584   1.840   3.660   9.718  1.1234  0.3280  1.1571
 7336SOL     OW22585   3.586   2.921   9.920 -0.2582  0.6828  0.3334
 7336SOL    HW122586   3.534   2.841   9.917 -3.0320  2.3524 -2.0396
 7336SOL    HW222587   3.641   2.911   9.998 -3.1268 -1.9139  2.2956
 7337SOL     OW22588   4.548   3.970   6.132 -0.6235 -0.0069 -0.0382
 7337SOL    HW122589   4.475   4.009   6.085  0.2594  1.7666  0.0096
 7337SOL    HW222590   4.559   4.024   6.210  2.1088  1.1629 -1.1158
 7338SOL     OW22591   1.795   5.480   9.316 -0.2747 -0.0908 -0.4272
 7338SOL    HW122592   1.723   5.430   9.276 -0.4820 -0.5003  0.4367
 7338SOL    HW222593   1.753   5.561   9.347 -0.3567 -0.3044  0.0258
 7339SOL     OW22594   7.937   2.536   4.127  0.1591  0.0732 -0.4652
 7339SOL    HW122595   7.852   2.493   4.131 -0.3916  1.1088 -0.6394
 7339SOL    HW222596   7.994   2.474   4.082  0.0379 -1.4730  1.3803
 7340SOL     OW22597   1.513   3.287   7.852 -0.1007  0.1433 -0.2032
 7340SOL    HW122598   1.590   3.299   7.908  0.8672  1.2597 -1.7121
 7340SOL    HW222599   1.521   3.354   7.784 -1.2106 -1.1693 -1.7122
 7341SOL     OW22600   6.891   2.281   4.434  0.4583 -0.4144  0.0984
 7341SOL    HW122601   6.941   2.362   4.426 -0.3499  0.3735  2.2391
 7341SOL    HW222602   6.895   2.260   4.527 -0.6196 -2.0219 -0.1788
 7342SOL     OW22603   3.422   3.113   1.741  0.3130 -0.0960  0.4608
 7342SOL    HW122604   3.378   3.041   1.696  0.2664 -0.0854  0.4886
 7342SOL    HW222605   3.452   3.171   1.671 -0.3996  0.2923  0.4671
 7343SOL     OW22606   8.701   9.218   7.361  0.4149 -0.2148 -0.3931
 7343SOL    HW122607   8.640   9.284   7.393  0.4696 -1.0163  1.4781
 7343SOL    HW222608   8.709   9.237   7.267 -0.4906  1.6566 -0.1464
 7344SOL     OW22609   2.146   5.035   5.463  0.3437 -0.3319 -0.3684
 7344SOL    HW122610   2.153   4.961   5.524  1.1546  0.6992  0.8433
 7344SOL    HW222611   2.214   5.096   5.492 -0.6714  1.1437 -0.9838
 7345SOL     OW22612   9.352   3.474   2.459 -0.1234 -0.1777 -0.5590
 7345SOL    HW122613   9.322   3.512   2.542 -0.5721 -0.4513 -0.5969
 7345SOL    HW222614   9.414   3.538   2.425 -0.4494  0.2587 -0.3429
 7346SOL     OW22615   0.189   1.524   3.787 -0.2963  0.8992  0.0061
 7346SOL    HW122616   0.215   1.432   3.798 -0.4386  0.9645  0.9927
 7346SOL    HW222617   0.233   1.552   3.707 -1.4650 -0.4687 -1.1623
 7347SOL     OW22618   1.223   4.143   3.234 -0.0561 -0.2588  0.6534
 7347SOL    HW122619   1.284   4.153   3.161 -1.2721  0.0288 -0.3630
 7347SOL    HW222620   1.279   4.130   3.311  1.3338  1.5726  0.0323
 7348SOL     OW22621   5.382   4.806   3.703 -0.1214 -0.3079 -0.0622
 7348SOL    HW122622   5.380   4.850   3.788 -0.8110  0.8713 -0.6459
 7348SOL    HW222623   5.383   4.878   3.640 -0.4972 -1.1506 -1.0599
 7349SOL     OW22624   8.379   9.015   8.960  0.0400 -0.2629 -0.1165
 7349SOL    HW122625   8.342   8.999   9.047 -1.0456  0.0792 -0.4996
 7349SOL    HW222626   8.349   8.942   8.907  0.7876 -0.5242 -0.1870
 7350SOL     OW22627   9.125   7.444   1.423 -0.3260  0.1565 -0.1993
 7350SOL    HW122628   9.185   7.458   1.496  0.2759  1.8091 -0.9514
 7350SOL    HW222629   9.053   7.504   1.439 -0.2336  0.4730 -0.8881
 7351SOL     OW22630   6.625   6.642   2.466  0.1066  0.2126  0.1042
 7351SOL    HW122631   6.559   6.601   2.522  1.4705 -0.4702  1.3101
 7351SOL    HW222632   6.677   6.568   2.433 -0.5117  0.6198 -1.9282
 7352SOL     OW22633   5.036   5.604   5.665 -0.2566  0.7965  0.5160
 7352SOL    HW122634   5.046   5.603   5.570 -1.8217  2.9423  0.2504
 7352SOL    HW222635   5.110   5.553   5.698  0.0384 -0.4449 -1.8469
 7353SOL     OW22636   7.978   0.426   2.080  0.0776 -0.0748  0.0774
 7353SOL    HW122637   8.053   0.452   2.133 -0.6008  0.4719  0.7912
 7353SOL    HW222638   7.912   0.493   2.097 -1.0797 -1.3059  0.5737
 7354SOL     OW22639   6.324   6.807   6.054  0.1211 -0.1722 -0.0164
 7354SOL    HW122640   6.307   6.713   6.052  2.1366 -0.5896  0.3328
 7354SOL    HW222641   6.352   6.828   5.965  1.1157 -0.2222  0.2754
 7355SOL     OW22642   0.909   1.023   6.817  0.4393 -0.4035  0.7245
 7355SOL    HW122643   0.878   0.938   6.786  0.5785 -0.6307  1.1952
 7355SOL    HW222644   0.905   1.080   6.740 -3.1102  0.1614  1.1958
 7356SOL     OW22645   1.969   1.659   2.866 -0.3067  0.5838 -0.7463
 7356SOL    HW122646   1.972   1.566   2.843  0.4823  0.1213  1.0441
 7356SOL    HW222647   2.054   1.676   2.907 -0.4794  2.0855 -0.9740
 7357SOL     OW22648   9.675   3.197   4.126 -0.5081  0.2842 -0.0385
 7357SOL    HW122649   9.769   3.180   4.137 -0.5807  0.8309  1.6884
 7357SOL    HW222650   9.644   3.125   4.071  1.0244  0.4476 -1.1867
 7358SOL     OW22651   2.880   1.601   8.827 -0.1037 -0.3516  0.0495
 7358SOL    HW122652   2.850   1.558   8.907 -0.4305 -1.2235 -0.5325
 7358SOL    HW222653   2.800   1.622   8.779  0.0482  0.8324  0.2607
 7359SOL     OW22654   2.094   3.983   7.601 -0.2393 -0.1347  0.1314
 7359SOL    HW122655   2.046   3.913   7.646 -1.8618  1.5984  1.2182
 7359SOL    HW222656   2.144   4.026   7.671  1.6911 -0.8906 -0.7254
 7360SOL     OW22657   7.250   0.727   0.373 -0.4096  0.0290 -0.2678
 7360SOL    HW122658   7.320   0.787   0.346  0.4061 -1.7454 -2.4384
 7360SOL    HW222659   7.291   0.672   0.441 -0.1530 -0.0619 -0.4928
 7361SOL     OW22660   8.803   6.106   4.017  0.2900  0.4042  0.5637
 7361SOL    HW122661   8.854   6.025   4.020  0.8715  0.7886  1.9091
 7361SOL    HW222662   8.822   6.149   4.100 -0.9498  1.3547  0.3866
 7362SOL     OW22663   6.533   7.304   0.285  0.4040 -0.7859  0.1577
 7362SOL    HW122664   6.592   7.304   0.209  0.6811 -0.6255  0.3700
 7362SOL    HW222665   6.588   7.277   0.358  0.0095 -1.4647  0.2107
 7363SOL     OW22666   4.099   1.571   0.434  1.4504  0.0261  0.0318
 7363SOL    HW122667   4.089   1.524   0.351 -0.5352 -0.7414  0.6550
 7363SOL    HW222668   4.168   1.524   0.480  1.6966 -0.3183 -0.6788
 7364SOL     OW22669   1.516   9.621   3.307 -0.5936 -0.1850  0.5878
 7364SOL    HW122670   1.437   9.668   3.282  0.6911  1.7470 -0.0350
 7364SOL    HW222671   1.496   9.586   3.394 -2.0582  0.3850  0.5103
 7365SOL     OW22672   3.466   7.376   3.536 -0.2758 -0.0288 -0.7327
 7365SOL    HW122673   3.430   7.436   3.601 -1.0155 -1.6241  0.3921
 7365SOL    HW222674   3.559   7.398   3.533 -0.9069  2.9989 -2.4291
 7366SOL     OW22675   0.448   6.057   3.368 -0.2807  0.2339 -0.2491
 7366SOL    HW122676   0.423   5.996   3.438 -1.3367  0.2826 -0.5686
 7366SOL    HW222677   0.484   6.002   3.299  0.0953  0.1199  0.0307
 7367SOL     OW22678   2.046   2.651   9.042  0.2390 -0.0522  0.3473
 7367SOL    HW122679   2.106   2.719   9.011 -1.5676  0.9951 -1.0459
 7367SOL    HW222680   1.993   2.629   8.966 -0.1825 -2.0224  1.1473
 7368SOL     OW22681   6.313   3.589   9.239  0.2720 -0.0347 -0.4449
 7368SOL    HW122682   6.234   3.583   9.293  0.0256  0.5821 -0.7153
 7368SOL    HW222683   6.300   3.524   9.170  0.3453 -0.4543 -0.0669
 7369SOL     OW22684   3.720   1.557   3.485 -0.4767 -0.1976 -0.7128
 7369SOL    HW122685   3.701   1.532   3.395  0.5363  1.2103 -1.3571
 7369SOL    HW222686   3.638   1.594   3.518 -0.6364 -0.0253 -1.3061
 7370SOL     OW22687   3.025   5.437   4.130 -0.6267  0.4620  0.0147
 7370SOL    HW122688   2.934   5.413   4.113 -0.6342  0.4892  0.0181
 7370SOL    HW222689   3.068   5.353   4.149 -0.6229  0.4344 -0.1168
 7371SOL     OW22690   0.838   4.479   1.613 -0.2531  0.7929  0.5964
 7371SOL    HW122691   0.814   4.452   1.702  1.7650  0.3246  1.0465
 7371SOL    HW222692   0.924   4.520   1.623 -0.3362  1.4218 -1.0505
 7372SOL     OW22693   5.791   4.285   1.680 -0.3118  0.2967 -0.4096
 7372SOL    HW122694   5.748   4.217   1.732  1.1262 -2.2199 -2.2996
 7372SOL    HW222695   5.721   4.322   1.627 -0.6880 -2.0319 -1.6806
 7373SOL     OW22696   3.631   3.280   0.208  0.2970 -0.0319  0.3038
 7373SOL    HW122697   3.619   3.307   0.299  1.1573  2.6175 -0.2580
 7373SOL    HW222698   3.546   3.297   0.166  0.4603  0.6525  0.2330
 7374SOL     OW22699   5.499   6.178   7.301 -0.1515  0.0592 -0.0576
 7374SOL    HW122700   5.587   6.145   7.287  0.4981  0.2868  2.8200
 7374SOL    HW222701   5.507   6.273   7.291  0.0622  0.1279  0.7461
 7375SOL     OW22702   4.344   0.746   1.976 -0.4632 -0.3678 -0.2008
 7375SOL    HW122703   4.414   0.809   1.993 -1.4379  0.4527  0.9019
 7375SOL    HW222704   4.366   0.708   1.891  0.4374  1.0697 -0.6432
 7376SOL     OW22705   2.463   2.298   4.752  0.4036 -0.2992  0.1789
 7376SOL    HW122706   2.405   2.361   4.708 -0.2905  0.0852  1.5755
 7376SOL    HW222707   2.535   2.352   4.785  0.2724 -0.3690  0.5883
 7377SOL     OW22708   6.447   8.025   8.235  0.8304  0.1720 -0.9151
 7377SOL    HW122709   6.465   8.060   8.148  1.0249 -1.6193 -1.6439
 7377SOL    HW222710   6.358   8.054   8.255 -0.0776 -1.2044 -2.6978
 7378SOL     OW22711   2.507  -0.026   2.208  0.2745 -0.0467 -0.1281
 7378SOL    HW122712   2.502  -0.011   2.113  0.0286  1.5172  0.1176
 7378SOL    HW222713   2.523   0.060   2.245  1.8259 -0.8459  1.1724
 7379SOL     OW22714   2.292   0.496   1.096  0.2527  0.5497 -0.1380
 7379SOL    HW122715   2.263   0.549   1.021 -0.0675 -0.4505 -0.7375
 7379SOL    HW222716   2.238   0.418   1.093 -0.3184  0.8371  1.6355
 7380SOL     OW22717   7.253   1.268   8.803  0.6836 -0.0883 -0.3631
 7380SOL    HW122718   7.260   1.241   8.711 -0.3765 -0.5775 -0.3170
 7380SOL    HW222719   7.305   1.203   8.850 -0.4284 -1.0669 -0.4338
 7381SOL     OW22720   9.116   3.664   1.351  0.1323  0.5063  0.2311
 7381SOL    HW122721   9.177   3.594   1.326  0.2366  0.2041  1.3045
 7381SOL    HW222722   9.144   3.739   1.300 -0.3345 -0.3689 -1.3924
 7382SOL     OW22723   1.380   6.655   3.941  0.3215  0.7154 -0.4147
 7382SOL    HW122724   1.288   6.630   3.926  0.4074 -0.8766  1.4078
 7382SOL    HW222725   1.376   6.749   3.958 -0.9812  0.6585 -0.3000
 7383SOL     OW22726   7.190   7.987   2.038 -0.0641  0.0706  0.1302
 7383SOL    HW122727   7.141   8.020   2.114  0.1034 -0.1383  0.3308
 7383SOL    HW222728   7.126   7.983   1.968  0.2430  2.3572 -0.3573
 7384SOL     OW22729   4.503   9.651   2.631  0.6334  0.1623  0.1476
 7384SOL    HW122730   4.453   9.571   2.645  2.1071 -0.8391 -0.1188
 7384SOL    HW222731   4.436   9.720   2.625 -0.8494 -1.3055 -1.7586
 7385SOL     OW22732   9.453   3.813   3.808 -0.3142  0.4497  0.0548
 7385SOL    HW122733   9.479   3.822   3.717  1.0880 -0.9730  0.2594
 7385SOL    HW222734   9.524   3.854   3.857 -0.8453  0.8186  0.5272
 7386SOL     OW22735   0.172   1.590   1.504 -0.0497 -0.3125 -0.2910
 7386SOL    HW122736   0.187   1.639   1.423 -1.6728 -0.3724 -0.6604
 7386SOL    HW222737   0.127   1.652   1.561  0.3585 -0.5348  0.2871
 7387SOL     OW22738   4.378   2.052   0.736 -0.1024  0.3038 -0.5410
 7387SOL    HW122739   4.359   2.129   0.790 -1.9713 -0.6505  0.2651
 7387SOL    HW222740   4.421   1.991   0.795 -1.0563 -0.2807 -0.4345
 7388SOL     OW22741   4.430   3.191   4.849 -0.3050 -0.3878 -0.1232
 7388SOL    HW122742   4.442   3.189   4.754  1.5851 -0.2284  0.0710
 7388SOL    HW222743   4.385   3.274   4.866  1.2654  0.6539 -0.7455
 7389SOL     OW22744   1.140   5.104   0.934  0.1543  0.0980 -0.3204
 7389SOL    HW122745   1.052   5.083   0.963  0.4492 -1.4353 -0.4608
 7389SOL    HW222746   1.188   5.022   0.940  1.4282  0.7723 -0.7970
 7390SOL     OW22747   2.450   0.327   1.303  0.1446 -0.1234  0.1042
 7390SOL    HW122748   2.519   0.306   1.241  0.1757  0.1503  0.0421
 7390SOL    HW222749   2.494   0.379   1.371  0.5606 -2.1630  1.4756
 7391SOL     OW22750   0.486   9.094   7.226 -0.1721  0.0654 -0.1227
 7391SOL    HW122751   0.442   9.152   7.288 -2.9789 -0.3926 -1.5062
 7391SOL    HW222752   0.530   9.152   7.165  0.1483  0.6032  0.6092
 7392SOL     OW22753   6.703   2.342   2.755  0.1333  0.5006 -0.8336
 7392SOL    HW122754   6.718   2.252   2.785  0.3328  0.6469 -0.4922
 7392SOL    HW222755   6.627   2.335   2.697  0.2678  0.0795 -0.9679
 7393SOL     OW22756   1.333   3.521   0.687  0.5869  0.0594  0.0206
 7393SOL    HW122757   1.378   3.581   0.628  1.6356 -1.3419 -0.6690
 7393SOL    HW222758   1.344   3.560   0.774  1.4007  0.7750 -0.3903
 7394SOL     OW22759   5.262   7.749   7.802 -0.1633  0.1392 -0.2060
 7394SOL    HW122760   5.231   7.752   7.893  2.9643 -1.6180  1.0746
 7394SOL    HW222761   5.307   7.833   7.790  0.5407 -0.1450  0.3671
 7395SOL     OW22762   1.622   7.706   9.398 -0.1254 -0.2696  0.0290
 7395SOL    HW122763   1.627   7.800   9.420 -0.7122 -0.4972  1.2404
 7395SOL    HW222764   1.657   7.700   9.309  0.4405  1.0234  0.1413
 7396SOL     OW22765   0.148   5.243   1.328 -0.2237 -0.0328 -0.7461
 7396SOL    HW122766   0.147   5.172   1.264 -0.1249 -0.3439 -0.4037
 7396SOL    HW222767   0.070   5.229   1.381  0.3926 -0.5605  0.0491
 7397SOL     OW22768   3.804   3.157   3.509  0.0899  0.0863  0.4779
 7397SOL    HW122769   3.747   3.099   3.458  1.3700 -0.0936 -0.8203
 7397SOL    HW222770   3.863   3.196   3.444  0.4275  1.4734  1.5667
 7398SOL     OW22771   5.182   6.884   0.451  0.6445  0.0079  0.1578
 7398SOL    HW122772   5.264   6.908   0.409  0.7515  0.2185  0.4815
 7398SOL    HW222773   5.130   6.844   0.381  2.0291 -2.6686  0.4870
 7399SOL     OW22774   2.624   3.603   8.383 -0.4823 -0.7660 -0.2893
 7399SOL    HW122775   2.705   3.552   8.379  0.9160  1.1820  0.9445
 7399SOL    HW222776   2.597   3.612   8.292  2.6465  1.3070 -1.2029
 7400SOL     OW22777   9.615   8.712   0.864 -0.1512 -0.6129 -0.0362
 7400SOL    HW122778   9.667   8.791   0.854 -1.3822  0.0021 -2.0036
 7400SOL    HW222779   9.624   8.666   0.781 -1.7230 -1.0961  0.0197
 7401SOL     OW22780   9.619   6.293   2.915  0.0973 -0.3771  0.1636
 7401SOL    HW122781   9.644   6.324   2.828  0.0030 -0.1397  0.2218
 7401SOL    HW222782   9.535   6.248   2.901 -0.2221  0.1874  0.2308
 7402SOL     OW22783   7.596   2.603   9.191  0.3105 -0.3549  0.1216
 7402SOL    HW122784   7.661   2.607   9.120 -0.1345 -0.0485 -0.2712
 7402SOL    HW222785   7.524   2.552   9.155  0.5530 -1.1725  0.7520
 7403SOL     OW22786   4.469   5.832   5.330 -0.0789  0.3041 -0.6935
 7403SOL    HW122787   4.453   5.912   5.280  3.5534  0.9170 -1.1943
 7403SOL    HW222788   4.559   5.842   5.363  0.0996 -3.0546  0.2349
 7404SOL     OW22789   7.146   6.510   9.673  0.0921 -0.2118 -0.1185
 7404SOL    HW122790   7.135   6.415   9.668 -0.4324 -0.0947 -1.5654
 7404SOL    HW222791   7.058   6.545   9.660  0.5343  0.4998 -1.3148
 7405SOL     OW22792   0.395   2.796   5.618 -0.0906 -0.3533 -0.1407
 7405SOL    HW122793   0.352   2.871   5.576 -0.2061 -1.1345 -1.4861
 7405SOL    HW222794   0.327   2.730   5.627  0.7459 -1.7245 -2.5920
 7406SOL     OW22795   4.949   1.516   7.846 -0.6467 -0.1319  0.5152
 7406SOL    HW122796   5.003   1.460   7.790 -0.9366 -0.2790  0.3743
 7406SOL    HW222797   4.988   1.603   7.838 -1.1259  0.0070 -0.5289
 7407SOL     OW22798   1.282   8.663   5.484 -0.3522  0.4880  0.1168
 7407SOL    HW122799   1.294   8.727   5.414 -2.2787  0.6114 -0.1667
 7407SOL    HW222800   1.209   8.608   5.454  0.7065 -1.3272  0.7290
 7408SOL     OW22801   4.802   2.273   2.869 -0.4087 -0.7731 -0.4231
 7408SOL    HW122802   4.817   2.182   2.894 -0.6643 -0.4605  0.8921
 7408SOL    HW222803   4.864   2.323   2.922  0.4400 -0.2319 -1.8537
 7409SOL     OW22804   0.942   7.767   2.476 -0.6427 -0.0549 -0.1042
 7409SOL    HW122805   0.994   7.698   2.517  0.4709  0.6528 -0.2661
 7409SOL    HW222806   0.855   7.729   2.467 -0.5287 -0.7832  1.4631
 7410SOL     OW22807   8.329   2.946   2.630  0.0249  0.1049  0.1408
 7410SOL    HW122808   8.254   2.889   2.648  1.2963 -1.4316  0.8120
 7410SOL    HW222809   8.378   2.900   2.561  0.6430  0.8044  0.1020
 7411SOL     OW22810   0.979   0.127   6.982  0.3850 -0.2457  0.0094
 7411SOL    HW122811   0.935   0.211   6.996 -1.7254 -1.4197  0.9288
 7411SOL    HW222812   0.969   0.110   6.889 -0.5201 -0.1617  0.0842
 7412SOL     OW22813   3.693   5.238   1.279  0.3756 -0.2961  0.4234
 7412SOL    HW122814   3.703   5.332   1.290  0.0586 -0.3843  1.5776
 7412SOL    HW222815   3.695   5.203   1.369  0.1197 -1.3474  0.0315
 7413SOL     OW22816   3.570   4.482   4.361 -0.3569 -0.4074  0.1754
 7413SOL    HW122817   3.581   4.519   4.273 -0.8498  0.6063  0.5250
 7413SOL    HW222818   3.624   4.538   4.417 -1.1014 -0.2194  0.7192
 7414SOL     OW22819   5.773   0.988   6.317 -0.3371  0.0847 -0.2323
 7414SOL    HW122820   5.825   0.910   6.295 -0.5142  0.1610 -0.9346
 7414SOL    HW222821   5.810   1.018   6.400 -0.3245 -0.8024  0.0980
 7415SOL     OW22822   2.430   7.786   1.216  0.2757  0.5821 -0.0166
 7415SOL    HW122823   2.494   7.849   1.250  2.1399 -1.1909  0.0082
 7415SOL    HW222824   2.480   7.704   1.209 -2.7715 -1.8471  3.1731
 7416SOL     OW22825   0.905   8.901   8.548 -0.0681 -0.1489 -1.2181
 7416SOL    HW122826   0.976   8.932   8.492 -0.1514 -0.4252 -1.4811
 7416SOL    HW222827   0.882   8.815   8.512 -1.2854  0.4042 -1.8471
 7417SOL     OW22828   6.733   6.574   4.070  0.1034 -0.0205  0.2269
 7417SOL    HW122829   6.767   6.628   4.141  1.7956 -0.8576  0.0997
 7417SOL    HW222830   6.809   6.525   4.038 -0.4061  0.8767 -2.6832
 7418SOL     OW22831   9.427   7.916   3.105 -0.5949 -0.6482 -0.1270
 7418SOL    HW122832   9.467   7.845   3.054 -1.7518 -1.9454  0.7164
 7418SOL    HW222833   9.501   7.971   3.131  0.3186 -1.4448 -0.9339
 7419SOL     OW22834   6.466   0.697   6.477  0.1255  0.1665  0.8850
 7419SOL    HW122835   6.445   0.604   6.483  0.4743  0.1379  2.0027
 7419SOL    HW222836   6.544   0.701   6.423  0.0045 -0.1728  0.6839
 7420SOL     OW22837   2.594   4.540   9.529 -0.5771  0.1090 -1.0448
 7420SOL    HW122838   2.537   4.613   9.506 -1.9951 -0.5440  0.2311
 7420SOL    HW222839   2.538   4.463   9.520 -0.4429 -0.4187  1.8093
 7421SOL     OW22840   7.894   7.807   3.165 -0.4102  0.2445  0.4492
 7421SOL    HW122841   7.853   7.726   3.196 -0.9029  0.8222  1.3453
 7421SOL    HW222842   7.829   7.875   3.183  0.8306  1.1543  1.7014
 7422SOL     OW22843   5.726   6.572   7.742 -0.3037  0.7081 -0.3578
 7422SOL    HW122844   5.672   6.621   7.804  0.6222 -0.2838  1.3373
 7422SOL    HW222845   5.668   6.504   7.707 -0.9769  1.5934 -0.9927
 7423SOL     OW22846   0.075   3.634   9.246 -0.0234 -0.1286  0.1454
 7423SOL    HW122847   0.014   3.562   9.257 -0.1685 -0.0517 -0.1662
 7423SOL    HW222848   0.027   3.711   9.278 -0.2797  0.0189 -0.5806
 7424SOL     OW22849   7.498   4.043   3.869 -0.0922 -0.2613 -0.0558
 7424SOL    HW122850   7.490   4.056   3.774  0.4572  2.6542  0.2069
 7424SOL    HW222851   7.575   4.095   3.893 -4.2216  5.5646  2.8948
 7425SOL     OW22852   1.235   8.730   2.457  0.7470  0.5392  0.2798
 7425SOL    HW122853   1.325   8.703   2.441  0.4608 -0.5133  0.3596
 7425SOL    HW222854   1.242   8.821   2.487  1.6468  0.9697 -1.1661
 7426SOL     OW22855   6.186   9.406   0.243  0.0783 -0.5501 -0.6064
 7426SOL    HW122856   6.237   9.326   0.229 -0.1130 -0.8794  0.4978
 7426SOL    HW222857   6.222   9.443   0.323  1.0040  1.1462 -1.7340
 7427SOL     OW22858   8.300   0.073   9.291 -0.0782  0.6960 -0.6185
 7427SOL    HW122859   8.307   0.167   9.307  0.2864  0.4918  0.4665
 7427SOL    HW222860   8.205   0.057   9.286 -0.1337  1.2771 -1.8851
 7428SOL     OW22861   1.558   4.525   7.880 -0.4986  0.0003 -0.1430
 7428SOL    HW122862   1.612   4.448   7.864  2.0064  1.4284  0.8078
 7428SOL    HW222863   1.555   4.532   7.976 -1.5278  0.5587 -0.1987
 7429SOL     OW22864   6.254   0.603   3.016  0.1319 -0.3243  0.3886
 7429SOL    HW122865   6.177   0.659   3.018  0.3973  0.1160 -0.8326
 7429SOL    HW222866   6.261   0.569   3.105 -1.9771 -1.0788  0.3209
 7430SOL     OW22867   9.879   0.592   3.232  0.1199  0.3768 -0.5962
 7430SOL    HW122868   9.866   0.514   3.179  1.4293  0.9341 -1.8137
 7430SOL    HW222869   9.806   0.650   3.210 -0.2121 -0.0271 -0.5648
 7431SOL     OW22870   2.713   3.038   5.685 -0.2799 -0.5771  0.0345
 7431SOL    HW122871   2.765   2.961   5.708  0.2866 -0.1003  0.3739
 7431SOL    HW222872   2.696   3.027   5.591 -0.8329 -1.4801  0.2229
 7432SOL     OW22873   1.852   2.598   2.547 -0.2360  0.4392 -0.3034
 7432SOL    HW122874   1.760   2.606   2.574 -0.0183 -0.6905  0.8167
 7432SOL    HW222875   1.887   2.687   2.557 -0.2842  0.2208  2.8099
 7433SOL     OW22876   8.729   8.383   6.086 -0.2801  0.0219 -0.2378
 7433SOL    HW122877   8.823   8.404   6.081 -0.2372  0.2163  1.0987
 7433SOL    HW222878   8.686   8.457   6.044  0.1067  0.6172  0.3860
 7434SOL     OW22879   0.544   6.037   9.878  0.2838  0.4551 -0.2864
 7434SOL    HW122880   0.456   6.016   9.847  0.7937  1.0774 -2.2678
 7434SOL    HW222881   0.596   5.960   9.854  0.2309 -0.1256  1.3240
 7435SOL     OW22882   6.601   7.389   8.989  0.2090 -0.4993  0.2636
 7435SOL    HW122883   6.553   7.393   9.072 -1.4352 -0.7260 -0.6241
 7435SOL    HW222884   6.653   7.310   8.995  0.7511 -0.0819  1.3893
 7436SOL     OW22885   6.949   3.235   3.678 -0.0828  0.1558 -0.8924
 7436SOL    HW122886   6.986   3.151   3.652 -1.1335 -0.6496  0.0937
 7436SOL    HW222887   6.927   3.224   3.770  1.2103  2.0641 -0.3011
 7437SOL     OW22888   9.440   0.114   7.856  0.0319 -0.8721 -0.5736
 7437SOL    HW122889   9.354   0.116   7.898 -0.0866 -1.3375 -0.7815
 7437SOL    HW222890   9.482   0.036   7.891  0.4868 -0.4902 -0.2575
 7438SOL     OW22891   4.213   9.414   7.910  0.1827  0.0308 -0.0369
 7438SOL    HW122892   4.292   9.462   7.885  0.6676 -0.3432  0.7342
 7438SOL    HW222893   4.210   9.340   7.849 -0.0142  0.4780 -0.5776
 7439SOL     OW22894   6.740   3.011   3.605 -0.1559 -0.1240 -0.5437
 7439SOL    HW122895   6.798   2.948   3.645 -0.5212  1.1920  2.2945
 7439SOL    HW222896   6.707   3.064   3.678 -4.0423 -0.0701 -2.0834
 7440SOL     OW22897   2.298   2.583   0.608  0.3473 -0.1398  0.5230
 7440SOL    HW122898   2.371   2.558   0.551  0.8727 -2.4467  2.0804
 7440SOL    HW222899   2.319   2.672   0.636  1.1977  0.2122 -1.0758
 7441SOL     OW22900   6.911   2.910   7.582 -0.2030  0.0629  0.0521
 7441SOL    HW122901   6.953   2.995   7.587  0.3823 -0.0778 -1.7467
 7441SOL    HW222902   6.960   2.863   7.514 -1.0797 -1.3812  0.3728
 7442SOL     OW22903   5.107   6.084   6.528  0.2527 -0.5209  0.0933
 7442SOL    HW122904   5.023   6.130   6.524  1.1633  1.2215 -0.0186
 7442SOL    HW222905   5.117   6.063   6.621  0.8724  1.6998  0.6006
 7443SOL     OW22906   6.159   0.829   1.750 -0.0354 -0.0348  0.4928
 7443SOL    HW122907   6.148   0.779   1.831 -0.9569 -1.1054 -0.2698
 7443SOL    HW222908   6.126   0.772   1.681  0.2698  1.0519 -0.5949
 7444SOL     OW22909   5.183   5.384   2.117 -0.1407 -0.0070  0.2074
 7444SOL    HW122910   5.138   5.353   2.196  0.2477 -0.0712  0.4028
 7444SOL    HW222911   5.241   5.453   2.148 -0.5463  0.4956 -0.1363
 7445SOL     OW22912   6.851   3.325   2.168  0.3487 -0.1319  0.0519
 7445SOL    HW122913   6.915   3.387   2.132 -1.2234  0.4418 -1.9706
 7445SOL    HW222914   6.777   3.380   2.194 -0.8529 -1.0580 -1.2471
 7446SOL     OW22915   4.066   1.302   7.584  0.4847  0.2334  0.1283
 7446SOL    HW122916   4.080   1.389   7.546 -1.2351  0.8712  0.8253
 7446SOL    HW222917   4.014   1.318   7.663 -0.4155 -1.4699 -0.0610
 7447SOL     OW22918   2.757   9.014   1.962  0.5940 -0.1915  0.1176
 7447SOL    HW122919   2.698   8.973   2.025  0.5068  1.0245  0.8626
 7447SOL    HW222920   2.756   9.107   1.985  0.5722  0.2856 -1.6731
 7448SOL     OW22921   4.255   2.911   2.325 -0.0429  0.1207 -0.3489
 7448SOL    HW122922   4.314   2.891   2.252 -0.5633 -0.2063 -0.6868
 7448SOL    HW222923   4.173   2.866   2.302  0.0236 -0.6095  0.7907
 7449SOL     OW22924   2.870   0.189   9.738 -0.5348 -0.2780  0.5324
 7449SOL    HW122925   2.869   0.280   9.767  0.1796  0.1116 -0.5960
 7449SOL    HW222926   2.802   0.183   9.672  0.8466  0.0101 -0.9661
 7450SOL     OW22927   5.541   3.419   5.598 -0.7123  0.4692  0.0318
 7450SOL    HW122928   5.606   3.475   5.555  1.0737 -1.3136  0.2843
 7450SOL    HW222929   5.505   3.366   5.527 -0.6940  0.3294  0.1259
 7451SOL     OW22930   2.901   7.356   8.078 -0.3970  0.3856  0.1330
 7451SOL    HW122931   2.881   7.262   8.079 -0.7400  0.3457 -2.3751
 7451SOL    HW222932   2.932   7.372   7.989  0.9779  2.4241  0.9119
 7452SOL     OW22933   7.484   1.094   4.415  0.4147 -0.3001  0.3310
 7452SOL    HW122934   7.396   1.095   4.377  0.1744 -0.4206  0.8714
 7452SOL    HW222935   7.469   1.107   4.509  0.9857 -0.1557  0.4041
 7453SOL     OW22936   3.793   6.654   2.100  0.2608  0.5609  0.5959
 7453SOL    HW122937   3.845   6.727   2.067 -1.8355  0.6580 -2.9885
 7453SOL    HW222938   3.769   6.679   2.189  1.7892  2.9532  0.4213
 7454SOL     OW22939   1.542   2.941   6.786 -0.2890  0.5651 -0.2801
 7454SOL    HW122940   1.585   2.958   6.702  1.0559  3.9457  0.9476
 7454SOL    HW222941   1.494   3.021   6.805 -2.0351 -0.7843  1.4192
 7455SOL     OW22942   7.864   4.705   3.464  0.0448  0.0720 -0.0358
 7455SOL    HW122943   7.834   4.668   3.381  0.6498  0.2220 -0.3326
 7455SOL    HW222944   7.946   4.749   3.441  0.3828 -0.1626  0.7089
 7456SOL     OW22945   9.452   3.743   7.308 -0.3561 -0.0289  0.2439
 7456SOL    HW122946   9.443   3.824   7.257  0.2330  0.3070  0.6610
 7456SOL    HW222947   9.489   3.771   7.392  0.8398 -0.8371  0.0271
 7457SOL     OW22948   2.341   8.231   1.722 -0.5324  0.0576 -0.0594
 7457SOL    HW122949   2.276   8.231   1.651 -0.4961 -0.7706 -0.1090
 7457SOL    HW222950   2.292   8.202   1.799 -0.5088  0.6886  0.1956
 7458SOL     OW22951   5.692   5.612   4.673 -0.7988  0.0033  0.1850
 7458SOL    HW122952   5.775   5.635   4.715 -1.7723  2.0495  1.1562
 7458SOL    HW222953   5.712   5.606   4.580  0.7963 -1.5060  0.5749
 7459SOL     OW22954   5.681   4.632   1.468  0.1095  0.3695 -0.1566
 7459SOL    HW122955   5.726   4.647   1.550  0.4962 -1.3343 -0.0245
 7459SOL    HW222956   5.626   4.709   1.456  3.0413  2.5684 -0.3658
 7460SOL     OW22957   9.581   0.616   7.224  0.6522  0.7290 -0.4774
 7460SOL    HW122958   9.505   0.673   7.211 -0.5317 -0.6407  0.1130
 7460SOL    HW222959   9.657   0.674   7.212 -0.4750  2.5799  0.8189
 7461SOL     OW22960   5.139   1.630   6.673 -0.0871  0.2004  0.3042
 7461SOL    HW122961   5.164   1.697   6.737 -0.7930 -0.0480  0.8434
 7461SOL    HW222962   5.058   1.592   6.707  0.3330 -0.9822  0.0440
 7462SOL     OW22963   6.153   9.554   4.981 -0.0662 -0.0833  0.1627
 7462SOL    HW122964   6.227   9.496   5.002 -0.8637 -1.4390 -0.6322
 7462SOL    HW222965   6.155   9.561   4.886 -1.5631 -0.9915  0.0381
 7463SOL     OW22966   6.943   5.795   6.306  0.2001  0.1185 -0.1692
 7463SOL    HW122967   6.899   5.732   6.364  0.9733  0.4497  0.7916
 7463SOL    HW222968   7.019   5.747   6.273  0.9496  0.6171  0.7878
 7464SOL     OW22969   6.217   1.274   2.661 -0.4284 -0.0926  0.3291
 7464SOL    HW122970   6.279   1.269   2.734  1.3227  0.6727 -1.0268
 7464SOL    HW222971   6.224   1.189   2.618  1.5819  0.7769 -1.2218
 7465SOL     OW22972   6.925   7.268   5.204  0.4442 -0.0307 -0.5111
 7465SOL    HW122973   6.855   7.282   5.268  2.3611  1.8895  1.3495
 7465SOL    HW222974   6.939   7.173   5.205 -1.0775 -0.2798  0.2417
 7466SOL     OW22975   5.210   8.757   4.698  0.2910 -0.3795 -0.6981
 7466SOL    HW122976   5.221   8.684   4.759  1.7373  1.2673  1.1638
 7466SOL    HW222977   5.116   8.761   4.682 -0.8523  1.2495  4.4478
 7467SOL     OW22978   3.829   3.143   8.817  0.2258 -0.3763  0.1160
 7467SOL    HW122979   3.794   3.229   8.843  0.2014 -0.6279  0.9358
 7467SOL    HW222980   3.914   3.163   8.779  0.1879  0.0231  0.2361
 7468SOL     OW22981   1.786   3.573   0.252  0.0433 -0.2509 -0.0956
 7468SOL    HW122982   1.823   3.635   0.189 -0.0445  1.3259  1.3413
 7468SOL    HW222983   1.862   3.533   0.293  0.1019 -1.3185 -1.1849
 7469SOL     OW22984   2.280   1.971   4.583 -0.1280 -0.0619  0.8738
 7469SOL    HW122985   2.349   1.998   4.644  1.5627 -1.2304 -0.4269
 7469SOL    HW222986   2.210   2.034   4.597  1.0344  0.9554  2.5271
 7470SOL     OW22987   3.328   5.295   2.564 -0.0959 -0.9633  0.2259
 7470SOL    HW122988   3.258   5.360   2.571 -0.6316 -1.4790 -0.1149
 7470SOL    HW222989   3.400   5.341   2.521  0.0389 -0.2305  1.2038
 7471SOL     OW22990   4.530   5.335   0.029 -0.3914 -0.5227  0.4679
 7471SOL    HW122991   4.460   5.376   0.079  0.6000  4.0977 -1.4317
 7471SOL    HW222992   4.601   5.324   0.092 -0.7856  0.5941  1.1366
 7472SOL     OW22993   6.671   7.911   5.789  0.2079  0.0032 -0.0149
 7472SOL    HW122994   6.739   7.976   5.808  0.7602  0.1231 -2.0922
 7472SOL    HW222995   6.617   7.953   5.722  0.3252 -1.4833 -1.0798
 7473SOL     OW22996   3.648   9.286   3.081  0.1009 -0.1292  0.1580
 7473SOL    HW122997   3.562   9.305   3.119  0.3731  1.0906  0.1872
 7473SOL    HW222998   3.636   9.202   3.037 -1.5537  0.7185 -1.1388
 7474SOL     OW22999   0.650   3.262   2.333  0.3320 -0.4085  0.0066
 7474SOL    HW123000   0.689   3.176   2.317 -2.0279 -1.5085 -0.4205
 7474SOL    HW223001   0.632   3.263   2.427  0.5986 -0.2951  0.0540
 7475SOL     OW23002   9.408   5.086   8.505  0.1651 -0.5338 -0.3394
 7475SOL    HW123003   9.473   5.105   8.573  0.1913  1.0777 -0.7965
 7475SOL    HW223004   9.334   5.143   8.525 -0.4567 -1.1667 -0.7786
 7476SOL     OW23005   1.211   5.508   6.781 -0.0549 -0.1189  0.6466
 7476SOL    HW123006   1.232   5.423   6.818 -0.5355 -0.4976  0.0682
 7476SOL    HW223007   1.294   5.541   6.748  0.1248 -0.3798  0.8345
 7477SOL     OW23008   6.837   5.447   9.006  0.8970  0.0998  0.0243
 7477SOL    HW123009   6.828   5.436   8.911 -1.0094  1.2417  0.0264
 7477SOL    HW223010   6.787   5.375   9.044 -0.0466  0.7788  0.1160
 7478SOL     OW23011   2.241   1.674   2.966 -0.3122  0.3540 -0.2292
 7478SOL    HW123012   2.281   1.631   2.890 -1.9762 -1.7627  0.0125
 7478SOL    HW223013   2.313   1.684   3.028  0.0090 -3.3565  0.1950
 7479SOL     OW23014   5.976   5.398   9.601 -0.2441  0.0885 -0.3784
 7479SOL    HW123015   5.889   5.365   9.622  0.2559 -1.0191  0.0457
 7479SOL    HW223016   6.031   5.319   9.596  0.7126  0.7557 -0.7377
 7480SOL     OW23017   1.425   3.741   4.446 -0.4563 -0.0148 -0.1557
 7480SOL    HW123018   1.505   3.772   4.404  0.3422 -1.0598  0.5148
 7480SOL    HW223019   1.391   3.817   4.493  0.9550  0.0923  0.7377
 7481SOL     OW23020   4.652   1.190   1.563  0.1400 -1.0648  0.6940
 7481SOL    HW123021   4.731   1.210   1.614 -0.3466 -1.2580  1.5425
 7481SOL    HW223022   4.647   1.260   1.499 -0.1630  0.1956  2.0278
 7482SOL     OW23023   6.378   8.571   8.422 -0.7320  0.4722  0.5991
 7482SOL    HW123024   6.430   8.593   8.500  1.1395  0.9575 -0.7110
 7482SOL    HW223025   6.389   8.477   8.411 -1.5980  0.2741  1.2971
 7483SOL     OW23026   9.728   0.528   0.760 -0.2685  0.5841  0.4389
 7483SOL    HW123027   9.692   0.439   0.752  0.1386  0.3943  0.7597
 7483SOL    HW223028   9.654   0.585   0.737 -0.2303  0.1429 -0.9023
 7484SOL     OW23029   3.517   7.063   7.821 -0.2932 -0.1430  0.2023
 7484SOL    HW123030   3.515   7.157   7.838  1.6287 -0.0816  0.3717
 7484SOL    HW223031   3.589   7.030   7.876 -0.2924 -1.5423 -0.5751
 7485SOL     OW23032   7.505   6.473   5.490 -0.1386 -0.9095 -0.2369
 7485SOL    HW123033   7.565   6.423   5.546  0.0901 -1.5427 -1.0119
 7485SOL    HW223034   7.503   6.423   5.408 -0.3475  0.0644 -0.8432
 7486SOL     OW23035   9.299   3.908   8.788  0.2052  0.1709  0.7060
 7486SOL    HW123036   9.209   3.885   8.813 -0.1112  0.9970  0.3453
 7486SOL    HW223037   9.313   3.994   8.826  0.0553  1.0337 -1.1055
 7487SOL     OW23038   6.163   3.575   8.586 -0.7540 -0.7792  0.0414
 7487SOL    HW123039   6.226   3.647   8.584 -0.6153 -0.8642  1.0227
 7487SOL    HW223040   6.099   3.597   8.519 -0.0587 -0.3441 -0.4881
 7488SOL     OW23041   0.264   4.692   5.272  0.5460  0.2194 -1.0979
 7488SOL    HW123042   0.285   4.784   5.260 -0.5298  0.5572 -0.5563
 7488SOL    HW223043   0.202   4.673   5.201  0.9402 -0.1417 -1.3432
 7489SOL     OW23044   8.819   9.638   5.344  0.3636 -1.3960 -0.1019
 7489SOL    HW123045   8.746   9.690   5.378  0.6675  0.4090 -2.0235
 7489SOL    HW223046   8.893   9.660   5.401  0.1226 -0.9037  0.0290
 7490SOL     OW23047   3.221   9.857   0.737  0.5873  0.3173  0.2835
 7490SOL    HW123048   3.283   9.801   0.783 -0.1232 -1.3016 -0.6490
 7490SOL    HW223049   3.232   9.835   0.645 -1.9631 -0.7293  0.1380
 7491SOL     OW23050   7.089   6.925   7.535 -0.0818  0.4886 -0.7027
 7491SOL    HW123051   7.154   6.986   7.500  0.5513  0.2014 -0.0486
 7491SOL    HW223052   7.076   6.861   7.465  1.6026 -0.4158 -0.2369
 7492SOL     OW23053   9.707   1.785   4.006 -0.3705  0.1922 -0.3113
 7492SOL    HW123054   9.679   1.808   3.918 -1.0593  1.3163  0.1762
 7492SOL    HW223055   9.701   1.690   4.010 -3.3808  0.2850 -0.5151
 7493SOL     OW23056   8.438   8.056   8.204  0.4263 -0.6545  0.0788
 7493SOL    HW123057   8.531   8.034   8.207  0.3024 -1.3436 -0.6448
 7493SOL    HW223058   8.434   8.147   8.232  1.5932  0.1585 -2.1359
 7494SOL     OW23059   3.256   8.884   2.751  0.1355  0.6511 -0.5505
 7494SOL    HW123060   3.175   8.872   2.802 -0.3953 -1.1348 -1.6953
 7494SOL    HW223061   3.239   8.959   2.695  0.0769  1.5699  0.6701
 7495SOL     OW23062   8.138   6.705   9.943  0.4228  0.0912 -0.3620
 7495SOL    HW123063   8.062   6.756   9.914  2.1010  2.2273 -1.3265
 7495SOL    HW223064   8.118   6.615   9.918 -3.5854 -0.3422  3.2112
 7496SOL     OW23065   9.232   0.565   2.285 -0.0855 -0.6628 -0.1938
 7496SOL    HW123066   9.276   0.631   2.338 -0.0177 -1.1657  0.3951
 7496SOL    HW223067   9.298   0.538   2.220 -1.0513  2.0072 -2.4844
 7497SOL     OW23068   4.314   3.998   4.678 -0.0970  0.0750  0.0693
 7497SOL    HW123069   4.308   4.044   4.761 -1.9920  1.3930 -0.7035
 7497SOL    HW223070   4.251   3.926   4.685  0.7511 -0.6711  0.2408
 7498SOL     OW23071   4.021   0.582   5.423 -0.0129  0.4468 -0.2534
 7498SOL    HW123072   3.927   0.585   5.405 -0.0088  0.7058 -0.2448
 7498SOL    HW223073   4.045   0.490   5.413  0.0483  0.6126 -1.8270
 7499SOL     OW23074   4.808   4.929   9.108 -0.0746  0.1206  0.0724
 7499SOL    HW123075   4.812   4.850   9.162 -1.3964  0.4497  0.6986
 7499SOL    HW223076   4.795   4.897   9.019 -4.9356 -0.4844  0.7191
 7500SOL     OW23077   2.502   1.963   6.653  0.2632 -0.8064  0.3011
 7500SOL    HW123078   2.535   1.881   6.616 -0.4638 -1.4523  1.0633
 7500SOL    HW223079   2.522   1.958   6.746 -1.3518 -0.9108  0.6684
 7501SOL     OW23080   6.566   6.235   7.737  0.3892 -0.2511  0.7304
 7501SOL    HW123081   6.482   6.233   7.782  0.3411  0.5465  0.6824
 7501SOL    HW223082   6.547   6.274   7.651  0.6353 -0.9535  0.3498
 7502SOL     OW23083   0.242   9.476   0.791 -0.2061  0.3228  0.0397
 7502SOL    HW123084   0.299   9.438   0.724 -0.9400  0.9303 -0.9623
 7502SOL    HW223085   0.242   9.569   0.771 -2.3705  0.2228 -0.6810
 7503SOL     OW23086   2.289   0.623   5.540  0.2460 -0.8432 -0.0730
 7503SOL    HW123087   2.315   0.533   5.522  2.9801  0.0041 -0.8503
 7503SOL    HW223088   2.250   0.654   5.458  1.0320 -0.7643 -0.4185
 7504SOL     OW23089   7.351   6.878   2.818 -0.3196 -0.1571  0.3820
 7504SOL    HW123090   7.405   6.827   2.878 -1.1933 -1.2040  0.3041
 7504SOL    HW223091   7.341   6.822   2.741 -0.7414  0.4113  0.0138
 7505SOL     OW23092   8.411   4.997   3.559 -0.1724 -0.1416 -1.0530
 7505SOL    HW123093   8.458   5.024   3.480  1.1460  0.2559 -0.1763
 7505SOL    HW223094   8.320   5.020   3.542 -0.0976 -0.9969 -2.8452
 7506SOL     OW23095   0.604   2.398   1.507 -0.2173  0.0231 -0.2172
 7506SOL    HW123096   0.614   2.466   1.440  1.7677 -0.0269 -0.0320
 7506SOL    HW223097   0.634   2.440   1.588  0.1222 -0.7632  0.0763
 7507SOL     OW23098   1.609   8.029   4.225 -0.0423  0.3931 -0.0239
 7507SOL    HW123099   1.650   7.944   4.241  1.0268  0.9082  0.0252
 7507SOL    HW223100   1.680   8.092   4.233 -0.6047  1.2013 -1.1659
 7508SOL     OW23101   0.950   1.585   5.363  0.1541  0.2267 -0.8151
 7508SOL    HW123102   0.950   1.656   5.298 -4.0295  0.4384 -0.8296
 7508SOL    HW223103   0.866   1.542   5.352 -0.7918  0.1450  4.2845
 7509SOL     OW23104   1.427   3.919   9.471  0.1791 -0.0992  0.0204
 7509SOL    HW123105   1.487   3.874   9.413 -0.4807 -1.2465  0.2010
 7509SOL    HW223106   1.460   3.901   9.559 -0.7306 -1.2093  0.1477
 7510SOL     OW23107   3.385   9.408   3.140  0.4847  0.1561  0.5703
 7510SOL    HW123108   3.316   9.348   3.112 -0.3352  0.7517  1.2731
 7510SOL    HW223109   3.381   9.481   3.078  0.3742  0.2698  0.7112
 7511SOL     OW23110   8.955   7.847   8.204 -0.0580 -0.0201  0.0739
 7511SOL    HW123111   8.890   7.794   8.249 -0.1026  0.3129  0.4116
 7511SOL    HW223112   8.941   7.830   8.111 -0.6528  0.0763  0.1424
 7512SOL     OW23113   1.515   1.215   8.015  0.3067 -0.0539  0.0139
 7512SOL    HW123114   1.459   1.177   8.083  1.1911 -2.1803 -0.3670
 7512SOL    HW223115   1.454   1.254   7.953 -0.5691  0.8175  1.3700
 7513SOL     OW23116   3.453   1.444   4.353  0.0702 -0.4786  0.1414
 7513SOL    HW123117   3.420   1.358   4.329  1.1099 -1.2407  1.2942
 7513SOL    HW223118   3.424   1.502   4.283 -0.6709 -1.7589 -0.6430
 7514SOL     OW23119   7.239   9.404   9.974 -0.4362  0.6001  0.5200
 7514SOL    HW123120   7.276   9.489   9.948  0.2451 -0.6773 -3.5099
 7514SOL    HW223121   7.310   9.342   9.960 -1.9550 -1.0482 -0.3191
 7515SOL     OW23122   2.919   4.786   3.035 -0.1725  0.3900  0.1612
 7515SOL    HW123123   3.002   4.740   3.025  0.6723  1.2023  2.5778
 7515SOL    HW223124   2.856   4.718   3.055  0.0771 -0.1519 -0.8350
 7516SOL     OW23125   3.470   6.446   2.320 -0.5381  0.3779  0.2223
 7516SOL    HW123126   3.532   6.519   2.318  0.5478 -0.4826 -2.3557
 7516SOL    HW223127   3.393   6.478   2.273  0.9836 -0.8026 -3.4294
 7517SOL     OW23128   3.147   1.673   0.351 -0.3137 -0.5816  0.1689
 7517SOL    HW123129   3.123   1.704   0.264  0.3059  1.6425  0.7454
 7517SOL    HW223130   3.209   1.738   0.385  0.8081 -2.2791  1.6198
 7518SOL     OW23131   6.777   0.793   0.662  0.5569 -0.8253  0.0583
 7518SOL    HW123132   6.801   0.876   0.703 -0.0490 -0.3775 -0.4764
 7518SOL    HW223133   6.821   0.795   0.577 -2.1571  0.5239 -1.4439
 7519SOL     OW23134   0.439   8.352   0.724  0.3958  0.5162  0.4478
 7519SOL    HW123135   0.409   8.354   0.633  2.2553  0.4458 -0.1997
 7519SOL    HW223136   0.485   8.269   0.732  0.9520  0.8898  1.2085
 7520SOL     OW23137   4.722   1.374   4.368 -0.3442  0.0952  0.2386
 7520SOL    HW123138   4.732   1.398   4.275 -1.3338  0.1987  0.1541
 7520SOL    HW223139   4.699   1.456   4.411  0.8537  0.2037  0.7191
 7521SOL     OW23140   0.141   2.025   2.947 -0.0893  0.1825 -0.1878
 7521SOL    HW123141   0.206   2.094   2.929 -0.1750 -0.4025 -3.4258
 7521SOL    HW223142   0.060   2.073   2.962  0.2670  0.8593 -0.3637
 7522SOL     OW23143   1.778   6.045   2.910 -0.1276  0.4283  0.0988
 7522SOL    HW123144   1.791   5.956   2.942  1.6240  0.3986 -0.5787
 7522SOL    HW223145   1.734   6.090   2.982  0.4745 -0.5607  1.1191
 7523SOL     OW23146   2.604   7.520   8.445  0.1323  0.5010 -0.2698
 7523SOL    HW123147   2.598   7.481   8.533 -1.5318  0.9250 -0.1697
 7523SOL    HW223148   2.515   7.547   8.424  0.7146  1.5069 -1.6104
 7524SOL     OW23149   8.822   5.999   4.752 -0.1166  0.5978 -1.0020
 7524SOL    HW123150   8.799   5.907   4.764 -0.9826  0.6801 -1.9396
 7524SOL    HW223151   8.756   6.046   4.802  1.2877  0.7007  0.8727
 7525SOL     OW23152   6.094   4.221   6.343 -0.0946  0.1341 -0.2317
 7525SOL    HW123153   6.003   4.202   6.323  0.1805  0.1901 -1.7001
 7525SOL    HW223154   6.106   4.313   6.319 -0.4107  1.1491  3.0225
 7526SOL     OW23155   8.311   8.544   6.621 -0.0561  0.4360 -0.1402
 7526SOL    HW123156   8.400   8.519   6.595 -0.8462 -1.3676 -1.3569
 7526SOL    HW223157   8.279   8.597   6.548 -0.3711  0.0741 -0.2694
 7527SOL     OW23158   1.395   4.718   7.285 -0.4751 -0.5884  0.1462
 7527SOL    HW123159   1.490   4.718   7.292 -0.5051 -0.7771  0.5367
 7527SOL    HW223160   1.365   4.780   7.352 -0.4476  2.5887 -2.5245
 7528SOL     OW23161   7.481   8.091   7.480 -0.4733  0.1154  0.4204
 7528SOL    HW123162   7.524   8.008   7.458 -1.5288 -0.2451 -0.3999
 7528SOL    HW223163   7.393   8.066   7.507 -1.2618  1.0193 -1.1321
 7529SOL     OW23164   3.655   9.561   6.336 -0.0969  0.2506  0.3245
 7529SOL    HW123165   3.587   9.628   6.325 -0.2019  0.1387  0.2845
 7529SOL    HW223166   3.725   9.587   6.277  0.8442  1.5755  1.9177
 7530SOL     OW23167   6.899   6.256   3.411 -0.2754  0.1230  0.3372
 7530SOL    HW123168   6.966   6.287   3.350 -1.1910  0.2156 -0.6498
 7530SOL    HW223169   6.930   6.169   3.438  0.3446  0.2500  0.0436
 7531SOL     OW23170   5.127   0.576   9.571 -0.2063 -0.0926 -0.1485
 7531SOL    HW123171   5.199   0.574   9.635 -0.5269  0.2097  0.2227
 7531SOL    HW223172   5.166   0.615   9.493 -0.5264  2.2021  0.7738
 7532SOL     OW23173   4.964   2.592   8.350  0.1731 -0.2087 -0.2221
 7532SOL    HW123174   5.049   2.610   8.390 -0.3115  1.8177  0.0500
 7532SOL    HW223175   4.930   2.679   8.326 -1.8422 -0.9483 -0.2740
 7533SOL     OW23176   1.772   5.116   3.485 -0.5494  0.0052 -0.1909
 7533SOL    HW123177   1.802   5.056   3.416 -0.8566 -0.3290 -0.0411
 7533SOL    HW223178   1.791   5.070   3.567 -1.0076  0.0014 -0.0813
 7534SOL     OW23179   7.578   0.307   7.157  0.9656  0.9919  0.1075
 7534SOL    HW123180   7.591   0.394   7.121  1.9075  0.5026 -0.8168
 7534SOL    HW223181   7.483   0.297   7.164  0.8633  2.2162  0.5970
 7535SOL     OW23182   8.370   1.355   8.644  0.2942 -0.1819 -0.0327
 7535SOL    HW123183   8.425   1.429   8.617  0.6122 -0.5052 -0.2812
 7535SOL    HW223184   8.337   1.381   8.730 -2.0357  1.5773 -1.3387
 7536SOL     OW23185   3.120   9.625   3.742 -0.2438  0.3837  0.4260
 7536SOL    HW123186   3.088   9.642   3.831  0.2254  0.0697  0.6620
 7536SOL    HW223187   3.159   9.708   3.714 -2.3133  1.1597 -0.3474
 7537SOL     OW23188   4.141   6.837   9.173  0.2834  0.5358  0.6543
 7537SOL    HW123189   4.170   6.822   9.083 -0.8213 -1.2576  0.5481
 7537SOL    HW223190   4.108   6.752   9.202  0.2902  1.1652  2.6505
 7538SOL     OW23191   9.721   4.122   6.834  0.4127  0.3844 -0.2207
 7538SOL    HW123192   9.716   4.064   6.910 -0.4993  0.4555 -0.2082
 7538SOL    HW223193   9.791   4.183   6.854  1.1485 -0.4953 -0.0769
 7539SOL     OW23194   0.202   1.466   1.903  0.0249  0.1144 -0.0664
 7539SOL    HW123195   0.255   1.545   1.896  0.7355 -0.4001 -0.7541
 7539SOL    HW223196   0.251   1.400   1.854  0.4335 -1.2608  2.0404
 7540SOL     OW23197   2.469   8.473   3.987 -0.0758  0.4296 -0.2532
 7540SOL    HW123198   2.465   8.469   4.083 -0.6648 -2.6495 -0.3337
 7540SOL    HW223199   2.550   8.428   3.965  1.2037  2.9934 -1.2340
 7541SOL     OW23200   0.973   4.710   8.564 -0.0459  0.7747 -0.2187
 7541SOL    HW123201   1.030   4.663   8.503  0.9232  0.5823  0.8065
 7541SOL    HW223202   1.014   4.698   8.649 -2.8543 -1.4500  1.0164
 7542SOL     OW23203   7.084   6.256   4.519 -0.2601 -0.2962 -0.0848
 7542SOL    HW123204   7.127   6.293   4.442 -0.2818  0.5349  0.2955
 7542SOL    HW223205   7.135   6.176   4.538  0.5774  0.2008 -0.1660
 7543SOL     OW23206   3.707   6.264   1.930  0.1094 -0.3024  0.1654
 7543SOL    HW123207   3.679   6.180   1.893 -0.3030 -0.4686  0.8356
 7543SOL    HW223208   3.791   6.245   1.972  0.2533 -0.2630 -0.0995
 7544SOL     OW23209   1.524   0.885   8.753  0.2034 -0.2759 -0.2396
 7544SOL    HW123210   1.465   0.906   8.681 -3.0655 -1.0331  1.9926
 7544SOL    HW223211   1.531   0.966   8.803 -0.0959 -0.5411  0.2387
 7545SOL     OW23212   4.041   2.535   2.381 -0.3360 -0.0644 -0.2194
 7545SOL    HW123213   4.010   2.605   2.437 -0.7320 -1.4736  1.4114
 7545SOL    HW223214   4.136   2.535   2.392 -0.4383 -0.5510  0.7565
 7546SOL     OW23215   4.051   0.605   9.465 -0.8410  0.2837 -0.1242
 7546SOL    HW123216   3.988   0.571   9.402  2.5690 -2.7975 -2.2666
 7546SOL    HW223217   4.115   0.652   9.412  0.7960 -0.1735  1.3647
 7547SOL     OW23218   7.813   1.799   2.510  0.3781 -0.1087 -0.0745
 7547SOL    HW123219   7.881   1.839   2.564 -1.5716  3.0316  0.3201
 7547SOL    HW223220   7.775   1.731   2.567  0.2970  1.1403  1.4423
 7548SOL     OW23221   2.926   1.502   7.922  0.0063  0.2134  0.4959
 7548SOL    HW123222   2.952   1.409   7.922  0.6341  0.3653  2.1278
 7548SOL    HW223223   2.915   1.523   7.829  2.6768 -0.7355 -0.1348
 7549SOL     OW23224   0.722   0.536   9.205  0.0160  0.2500  0.0236
 7549SOL    HW123225   0.787   0.467   9.220  1.5411  1.8250  1.1738
 7549SOL    HW223226   0.761   0.591   9.137  0.9268  2.2793  2.0371
 7550SOL     OW23227   9.718   4.134   2.629  0.0152 -0.0189  0.1290
 7550SOL    HW123228   9.773   4.196   2.581 -0.8510  1.8874  1.4813
 7550SOL    HW223229   9.705   4.174   2.715 -0.5874 -2.1032  1.0857
 7551SOL     OW23230   9.779   5.424   7.535 -0.2705  0.2096  0.4506
 7551SOL    HW123231   9.772   5.331   7.514  4.3224 -0.4704  0.8896
 7551SOL    HW223232   9.793   5.427   7.629 -1.4032  1.4751  0.6037
 7552SOL     OW23233   4.913   2.187   6.893 -0.4245 -0.1217 -0.3760
 7552SOL    HW123234   4.932   2.094   6.890 -3.4995 -1.0187  2.1210
 7552SOL    HW223235   4.831   2.196   6.843 -1.4553  0.7546  1.3910
 7553SOL     OW23236   9.455   4.067   5.915  0.4153  0.0299 -0.3902
 7553SOL    HW123237   9.549   4.052   5.907  0.2406 -0.0521 -4.4188
 7553SOL    HW223238   9.417   3.979   5.919  0.4512  0.0486  0.4980
 7554SOL     OW23239   7.690   7.812   7.676  0.1185  0.3862 -0.0623
 7554SOL    HW123240   7.641   7.771   7.747  1.6790  0.3947  1.0753
 7554SOL    HW223241   7.667   7.905   7.683  1.2320  0.5991  1.3092
 7555SOL     OW23242   4.925   7.136   2.973 -0.4622 -0.0856  0.2006
 7555SOL    HW123243   4.858   7.075   2.944 -0.3605  0.2871 -0.8356
 7555SOL    HW223244   4.966   7.167   2.893  0.6977 -0.0148  0.8024
 7556SOL     OW23245   8.562   2.215   8.716 -0.2884 -0.3579  0.1939
 7556SOL    HW123246   8.485   2.259   8.679  0.5769  0.4810 -0.6691
 7556SOL    HW223247   8.542   2.122   8.709 -0.4345 -0.2158 -1.8359
 7557SOL     OW23248   8.354   5.450   3.689  0.1042 -0.2823 -0.2576
 7557SOL    HW123249   8.321   5.387   3.753 -2.5216 -0.0242 -1.2467
 7557SOL    HW223250   8.284   5.457   3.624  0.7270  2.8918 -0.7400
 7558SOL     OW23251   8.906   2.636   4.402  0.0578 -0.0507  0.0632
 7558SOL    HW123252   8.910   2.567   4.336  1.4493 -0.8827  0.9811
 7558SOL    HW223253   8.813   2.646   4.421 -0.1879 -1.4259 -0.3449
 7559SOL     OW23254   6.547   4.996   1.062 -0.1013  0.0101  0.5752
 7559SOL    HW123255   6.499   4.989   0.979 -0.8761 -1.0282  1.0822
 7559SOL    HW223256   6.509   4.927   1.117  0.2165  0.8573  1.8888
 7560SOL     OW23257   8.325   3.842   2.740  0.5077  0.2144  0.2129
 7560SOL    HW123258   8.288   3.915   2.789  1.5286  0.2990  0.8926
 7560SOL    HW223259   8.254   3.812   2.684  0.1473  1.9263 -0.3107
 7561SOL     OW23260   8.659   8.023   9.744  0.0654  0.3376 -0.4293
 7561SOL    HW123261   8.575   8.020   9.792 -0.3029  0.0206 -1.0775
 7561SOL    HW223262   8.705   7.944   9.773 -1.0677 -1.0599 -2.1714
 7562SOL     OW23263   8.536   5.380   1.247 -0.2628  0.4028 -0.4074
 7562SOL    HW123264   8.623   5.358   1.280 -0.7363 -0.5033  0.2765
 7562SOL    HW223265   8.476   5.334   1.305 -1.2399  1.6299 -0.4053
 7563SOL     OW23266   3.906   8.496   4.698 -0.1307  0.7844  0.2236
 7563SOL    HW123267   3.829   8.479   4.752 -0.2851  0.9187  0.0444
 7563SOL    HW223268   3.878   8.563   4.636 -0.0960  0.2954 -0.3331
 7564SOL     OW23269   6.542   0.933   3.639  0.7863  0.5877  0.0332
 7564SOL    HW123270   6.576   0.895   3.558  0.9953  1.7318 -0.4394
 7564SOL    HW223271   6.597   1.010   3.653  1.8839 -0.5230  2.2035
 7565SOL     OW23272   5.458   6.932   5.371 -0.7052  0.1382  0.0258
 7565SOL    HW123273   5.536   6.919   5.425 -0.3251  1.0224 -0.2794
 7565SOL    HW223274   5.438   6.846   5.336  0.2306 -0.0798 -0.0051
 7566SOL     OW23275   1.981   2.499   1.567  0.4740 -0.0180 -0.3720
 7566SOL    HW123276   1.925   2.567   1.530  0.2923  0.4447  0.6957
 7566SOL    HW223277   2.019   2.455   1.491  2.8157  3.0795 -1.1990
 7567SOL     OW23278   8.154   2.054   1.608  0.0825  0.1294  0.0566
 7567SOL    HW123279   8.249   2.054   1.597  0.0960  0.3827  0.1726
 7567SOL    HW223280   8.127   1.966   1.583  0.2026  0.4426 -1.3097
 7568SOL     OW23281   4.222   5.005   8.320  0.4434 -0.0876  0.2623
 7568SOL    HW123282   4.314   4.983   8.311  0.1102 -1.0368 -1.1915
 7568SOL    HW223283   4.208   5.076   8.257 -0.3419 -1.7667 -1.5742
 7569SOL     OW23284   1.310   9.829   3.297  0.6439  0.4204  0.0317
 7569SOL    HW123285   1.265   9.851   3.215  2.1566  1.3025 -0.6118
 7569SOL    HW223286   1.240   9.822   3.361 -0.7771 -1.9898 -1.6346
 7570SOL     OW23287   3.459   2.936   9.224  0.2189 -0.4504 -0.0074
 7570SOL    HW123288   3.501   2.860   9.184  1.0594  0.4066 -0.8179
 7570SOL    HW223289   3.528   3.002   9.226 -0.2807  0.0429  1.4112
 7571SOL     OW23290   9.064   4.226   0.965 -0.0873 -0.0423 -0.5071
 7571SOL    HW123291   9.021   4.196   1.045 -0.4009 -0.6511 -0.9018
 7571SOL    HW223292   9.144   4.269   0.996 -0.5783  0.3993  0.1767
 7572SOL     OW23293   3.338   1.160   2.458  0.3163  0.1482 -0.6629
 7572SOL    HW123294   3.304   1.242   2.493  0.9983 -0.6224  2.0735
 7572SOL    HW223295   3.432   1.175   2.447  0.1913  0.2078 -1.7062
 7573SOL     OW23296   0.504   6.543   7.762 -0.0077  0.1786 -0.2024
 7573SOL    HW123297   0.449   6.618   7.740 -0.5502  0.3129  1.5191
 7573SOL    HW223298   0.509   6.544   7.857  0.9639 -1.2800 -0.2173
 7574SOL     OW23299   8.051   6.065   1.282 -0.1412  0.0316  0.0050
 7574SOL    HW123300   8.048   5.969   1.284 -0.5609  0.0472  0.3790
 7574SOL    HW223301   8.117   6.086   1.216  0.0917 -0.5172  0.0576
 7575SOL     OW23302   4.446   5.474   3.423 -0.3804 -0.1015 -0.3851
 7575SOL    HW123303   4.453   5.457   3.517  1.4127  0.2773 -0.4294
 7575SOL    HW223304   4.404   5.395   3.388  0.7738 -1.1406  0.4717
 7576SOL     OW23305   8.292   5.132   1.817  0.6351 -0.7368 -0.0168
 7576SOL    HW123306   8.305   5.043   1.787  0.4602 -0.6408 -0.3781
 7576SOL    HW223307   8.374   5.177   1.793  0.1261 -0.4217 -1.2343
 7577SOL     OW23308   1.136   1.622   6.289 -0.1510 -0.3986  0.5517
 7577SOL    HW123309   1.112   1.655   6.376  1.4104  2.9226 -0.0930
 7577SOL    HW223310   1.060   1.644   6.234 -0.7712 -1.6992  0.8396
 7578SOL     OW23311   5.414   1.024   3.001 -0.4611  0.1484 -0.4695
 7578SOL    HW123312   5.464   0.994   2.924 -0.1859  2.1502 -1.1321
 7578SOL    HW223313   5.481   1.041   3.067 -0.4102  0.9439 -0.7045
 7579SOL     OW23314   2.073   4.298   3.883 -0.4963 -0.1704 -0.1737
 7579SOL    HW123315   1.986   4.323   3.913 -0.1064  0.1634  0.7155
 7579SOL    HW223316   2.122   4.281   3.963  0.4640  0.3628 -0.6318
 7580SOL     OW23317   1.876   1.792   5.098  0.1576 -0.5684 -0.0050
 7580SOL    HW123318   1.846   1.880   5.120  0.4414 -0.6455  0.6918
 7580SOL    HW223319   1.918   1.802   5.012  0.2797 -0.0107  0.1160
 7581SOL     OW23320   0.025   6.258   2.117 -0.3027 -0.3424 -0.1255
 7581SOL    HW123321   0.042   6.165   2.103 -0.3343 -0.4012  0.2166
 7581SOL    HW223322  -0.064   6.271   2.085  0.2234 -0.1160 -1.5473
 7582SOL     OW23323   7.631   8.987   0.796 -0.2975  0.4020  0.5116
 7582SOL    HW123324   7.650   9.068   0.748  0.5932  0.2776  0.6253
 7582SOL    HW223325   7.567   8.941   0.743  0.6867  0.2571 -0.5939
 7583SOL     OW23326   6.561   4.492   9.937  0.0550  0.2796 -0.2788
 7583SOL    HW123327   6.642   4.533   9.966  0.9713 -1.5182 -0.1666
 7583SOL    HW223328   6.584   4.449   9.855 -0.0413 -2.3417  0.9493
 7584SOL     OW23329   0.121   4.778   5.541  0.6457 -0.4649 -0.1905
 7584SOL    HW123330   0.058   4.770   5.612  1.0657 -0.2918  0.2035
 7584SOL    HW223331   0.091   4.854   5.491  0.2305 -0.7128 -0.3264
 7585SOL     OW23332   2.927   3.615   4.144  0.4197  0.8169 -0.1160
 7585SOL    HW123333   2.931   3.540   4.204 -0.0503  1.5829  0.8891
 7585SOL    HW223334   2.857   3.670   4.179 -1.2475  0.3506 -2.4861
 7586SOL     OW23335   4.510   0.386   1.431 -0.5671  0.2826  0.5182
 7586SOL    HW123336   4.510   0.327   1.355 -0.7616 -0.4121  1.0466
 7586SOL    HW223337   4.603   0.404   1.447 -0.4895 -0.1253  0.5372
 7587SOL     OW23338   0.712   5.408   1.968 -0.1625  0.1859  0.6413
 7587SOL    HW123339   0.788   5.370   2.012 -1.0277 -0.2865  1.7614
 7587SOL    HW223340   0.644   5.342   1.976 -0.2554 -0.0764 -1.7862
 7588SOL     OW23341   9.940   3.638   9.738 -0.2365  0.1404  0.5790
 7588SOL    HW123342   9.968   3.728   9.722 -0.1050  0.3051  1.6862
 7588SOL    HW223343   9.986   3.587   9.670 -0.2323  0.8780  0.0105
 7589SOL     OW23344   2.644   2.523   3.993  0.0443 -0.4323 -0.1019
 7589SOL    HW123345   2.716   2.585   4.001 -0.3228 -0.1701  5.5196
 7589SOL    HW223346   2.687   2.438   3.982  1.0682  0.0172  0.2797
 7590SOL     OW23347   5.125   8.561   3.363  0.0728 -0.4082  1.0724
 7590SOL    HW123348   5.131   8.521   3.276  1.5527 -0.0984  1.0175
 7590SOL    HW223349   5.177   8.641   3.357 -1.0979  0.4381  1.8062
 7591SOL     OW23350   1.586   1.254   2.870  0.2798  0.3436  0.7346
 7591SOL    HW123351   1.629   1.302   2.940  1.0469 -0.0302  0.5239
 7591SOL    HW223352   1.548   1.177   2.912  1.8729 -0.5851  0.5551
 7592SOL     OW23353   4.653   0.955   7.105 -0.4081  0.5331  0.0229
 7592SOL    HW123354   4.685   0.885   7.162 -0.6489 -0.5358 -1.0900
 7592SOL    HW223355   4.564   0.971   7.135 -0.1485  0.7899  0.6694
 7593SOL     OW23356   8.519   3.657   8.671  0.4580 -0.2505 -0.0611
 7593SOL    HW123357   8.487   3.619   8.589 -0.7252  1.3245 -0.3707
 7593SOL    HW223358   8.461   3.620   8.738  2.2221 -2.5545  0.3265
 7594SOL     OW23359   9.343   9.527   6.624 -0.0991  0.2831 -0.1859
 7594SOL    HW123360   9.254   9.562   6.617 -0.3008  0.0640  1.0538
 7594SOL    HW223361   9.397   9.601   6.649 -0.1017  0.2296 -0.0155
 7595SOL     OW23362   7.078   0.121   9.577  0.2470  0.0319 -0.2351
 7595SOL    HW123363   7.003   0.068   9.551 -0.6723  0.2348  1.7443
 7595SOL    HW223364   7.041   0.209   9.591  0.4193 -0.1956  2.2502
 7596SOL     OW23365   0.362   9.802   2.997  0.4259 -0.1631 -0.3730
 7596SOL    HW123366   0.362   9.893   3.027  1.4338 -0.1658 -0.3391
 7596SOL    HW223367   0.355   9.808   2.901 -0.4235 -0.0899 -0.3178
 7597SOL     OW23368   2.748   9.313   1.973 -0.7260 -0.3069  0.2749
 7597SOL    HW123369   2.747   9.397   2.017 -2.3997 -0.8426  1.3666
 7597SOL    HW223370   2.662   9.307   1.931 -0.4273 -1.2412 -0.2287
 7598SOL     OW23371   0.710   2.650   8.035  0.4392  0.5723  0.3300
 7598SOL    HW123372   0.732   2.564   8.000 -0.3351 -0.2429  1.7233
 7598SOL    HW223373   0.794   2.688   8.061  0.6599 -0.6073  1.4760
 7599SOL     OW23374   3.129   1.067   4.231 -0.1010  0.1038  0.2508
 7599SOL    HW123375   3.108   0.980   4.196  0.9477  0.2526 -0.8102
 7599SOL    HW223376   3.100   1.063   4.322 -1.4588 -0.8442 -0.1760
 7600SOL     OW23377   5.744   6.486   6.230  0.4450 -0.4896  0.0830
 7600SOL    HW123378   5.651   6.488   6.253  0.3652 -2.0519  0.0645
 7600SOL    HW223379   5.779   6.411   6.278  1.6590 -0.0310 -0.0506
 7601SOL     OW23380   4.691   8.272   2.849 -0.0772  0.3993  0.6609
 7601SOL    HW123381   4.753   8.243   2.915  1.6211 -0.0296 -1.0331
 7601SOL    HW223382   4.649   8.192   2.817 -0.9342  0.6097  1.2166
 7602SOL     OW23383   7.480   4.812   6.609 -0.3000  0.3746 -0.7283
 7602SOL    HW123384   7.557   4.854   6.571 -0.9946  1.3114 -1.1198
 7602SOL    HW223385   7.514   4.761   6.683  0.3013  3.7124  1.5071
 7603SOL     OW23386   3.951   4.985   1.054 -0.4072  0.0603 -0.4827
 7603SOL    HW123387   3.940   5.079   1.067 -0.8149 -0.3035  2.8161
 7603SOL    HW223388   3.983   4.953   1.138  0.8046 -2.6367 -1.8500
 7604SOL     OW23389   1.382   8.411   6.535  0.2292 -0.0936 -0.1560
 7604SOL    HW123390   1.347   8.462   6.608  0.6326  0.0606 -0.0685
 7604SOL    HW223391   1.467   8.450   6.517 -1.0361  1.8209 -2.6471
 7605SOL     OW23392   1.109   9.493   9.829  0.3572  0.0167  0.4336
 7605SOL    HW123393   1.060   9.460   9.754  1.9446  0.2241 -0.7496
 7605SOL    HW223394   1.075   9.443   9.904 -0.6214 -0.8466 -0.5498
 7606SOL     OW23395   7.379   5.394   7.351  0.1936 -0.4229 -0.3634
 7606SOL    HW123396   7.386   5.462   7.418  2.4371 -1.2780  0.3638
 7606SOL    HW223397   7.464   5.395   7.308 -0.9589 -0.3579 -2.8151
 7607SOL     OW23398   8.478   9.247   5.736  0.1021 -0.0487  0.1308
 7607SOL    HW123399   8.477   9.330   5.784  1.9465  0.5452 -0.7502
 7607SOL    HW223400   8.471   9.272   5.644  1.8563 -0.7062 -0.2309
 7608SOL     OW23401   2.499   5.388   5.450  0.4178  0.5541  0.4663
 7608SOL    HW123402   2.449   5.458   5.407  0.1333 -0.0349 -0.1820
 7608SOL    HW223403   2.518   5.422   5.537 -0.9085  0.8978  0.6443
 7609SOL     OW23404   4.194   3.150   7.064 -0.0772 -0.0188  0.2177
 7609SOL    HW123405   4.239   3.205   7.000 -0.4586  0.0184 -0.0207
 7609SOL    HW223406   4.256   3.141   7.136 -0.1419  1.0272  0.4214
 7610SOL     OW23407   6.064   3.678   5.216 -0.3049  0.3460 -0.4469
 7610SOL    HW123408   6.018   3.616   5.272  0.2079  1.0683  0.8041
 7610SOL    HW223409   6.009   3.756   5.217  0.7201  1.0700  0.7196
 7611SOL     OW23410   5.599   0.730   5.342 -0.6043  0.1621 -0.1414
 7611SOL    HW123411   5.679   0.678   5.350  0.8581  2.4245  1.2606
 7611SOL    HW223412   5.528   0.666   5.341  1.0455 -1.8451  1.6445
 7612SOL     OW23413   7.469   1.787   7.480  0.8562  0.5741 -0.2167
 7612SOL    HW123414   7.375   1.806   7.478  0.8208  0.4701  0.4063
 7612SOL    HW223415   7.498   1.818   7.565  1.4120  0.6947 -0.4440
 7613SOL     OW23416   3.727   8.082   9.571  0.2706  0.1327 -0.0606
 7613SOL    HW123417   3.743   8.129   9.489 -0.1336 -1.1030 -0.8861
 7613SOL    HW223418   3.644   8.118   9.603  0.5465  0.7853 -0.0847
 7614SOL     OW23419   4.833   8.669   0.836  0.2108 -0.1175 -0.1935
 7614SOL    HW123420   4.751   8.654   0.882  0.3523 -1.0155 -0.1991
 7614SOL    HW223421   4.826   8.616   0.757  0.2914  0.7906 -0.8166
 7615SOL     OW23422   9.698   3.190   8.868  0.3473 -0.5890 -0.2051
 7615SOL    HW123423   9.791   3.193   8.848  0.2680 -1.8678 -0.8549
 7615SOL    HW223424   9.684   3.262   8.930  1.9836 -1.1068  0.8240
 7616SOL     OW23425   7.868   0.063   8.204  0.2773 -0.4781  0.4698
 7616SOL    HW123426   7.872   0.005   8.128  0.4931  0.6920 -0.4584
 7616SOL    HW223427   7.867   0.005   8.280  0.2613 -1.6768 -0.4247
 7617SOL     OW23428   9.332   5.527   0.155  0.0884 -0.2205  0.4171
 7617SOL    HW123429   9.267   5.532   0.226 -0.3322  0.0633  0.0202
 7617SOL    HW223430   9.414   5.503   0.199 -0.3819 -1.0561  0.8644
 7618SOL     OW23431   9.222   0.873   3.194 -0.0945 -0.2157  0.2969
 7618SOL    HW123432   9.261   0.929   3.127  3.3300 -2.7373 -0.0988
 7618SOL    HW223433   9.192   0.934   3.261 -0.2524  2.2274 -1.8091
 7619SOL     OW23434   3.265   4.451   5.002 -0.3724  0.1867 -0.3351
 7619SOL    HW123435   3.316   4.520   5.045 -1.4432  0.9437 -0.2114
 7619SOL    HW223436   3.197   4.499   4.953 -2.3297 -0.7796  1.2796
 7620SOL     OW23437   5.514   9.242   3.684 -0.7643  0.2300 -0.2534
 7620SOL    HW123438   5.609   9.241   3.672 -0.8808  2.8918 -2.2485
 7620SOL    HW223439   5.501   9.276   3.773  0.1130 -0.6397  0.2276
 7621SOL     OW23440   6.682   0.836   3.853 -0.2429  0.1743 -0.0693
 7621SOL    HW123441   6.627   0.885   3.792 -0.5425 -0.9446 -0.7509
 7621SOL    HW223442   6.750   0.798   3.797 -1.4608 -2.2240 -0.0558
 7622SOL     OW23443   4.795   7.875   8.253  0.1320 -0.0113  0.3705
 7622SOL    HW123444   4.710   7.900   8.289 -0.0170  0.0622 -0.0317
 7622SOL    HW223445   4.858   7.907   8.318 -0.1827 -0.9023  1.1536
 7623SOL     OW23446   6.744   8.495   3.390  0.4192 -0.2544 -0.4668
 7623SOL    HW123447   6.681   8.560   3.358 -0.5798 -0.7939  0.3339
 7623SOL    HW223448   6.820   8.546   3.417 -0.3744  0.6130  0.2111
 7624SOL     OW23449   4.014   5.684   8.452 -0.3530  0.2942  0.1969
 7624SOL    HW123450   4.046   5.665   8.364 -2.4942  0.3920 -0.6784
 7624SOL    HW223451   3.969   5.768   8.443 -0.8638  0.1529  1.3105
 7625SOL     OW23452   3.072   2.742   0.450 -0.6108  0.1167  0.3788
 7625SOL    HW123453   3.137   2.777   0.389 -1.6628 -0.9701 -1.4499
 7625SOL    HW223454   3.011   2.815   0.464  1.2892  1.4014  2.7155
 7626SOL     OW23455   0.028   7.367   9.352  0.5577  0.2673  0.2963
 7626SOL    HW123456   0.030   7.314   9.272 -1.2809 -1.5934  1.3684
 7626SOL    HW223457  -0.056   7.413   9.348  0.2404 -0.1968  1.3364
 7627SOL     OW23458   5.444   2.099   1.770  0.0845  0.7388 -0.5373
 7627SOL    HW123459   5.533   2.133   1.760  0.7072 -1.0886 -1.6542
 7627SOL    HW223460   5.403   2.113   1.685 -0.7351  1.5439 -0.0387
 7628SOL     OW23461   9.397   8.542   6.469  0.2565 -0.4749 -0.1441
 7628SOL    HW123462   9.443   8.553   6.386  1.2035 -1.1884  0.2684
 7628SOL    HW223463   9.403   8.628   6.511 -0.4476 -0.0408 -0.9077
 7629SOL     OW23464   3.422   1.474   7.423 -0.6427  0.2172 -0.1285
 7629SOL    HW123465   3.380   1.503   7.342  1.0837  1.0903 -0.7626
 7629SOL    HW223466   3.513   1.458   7.399 -0.4070 -0.9393  1.3404
 7630SOL     OW23467   9.830   2.883   2.165  0.2232 -0.1683 -0.4619
 7630SOL    HW123468   9.905   2.878   2.105  0.0067 -0.9184 -0.6782
 7630SOL    HW223469   9.818   2.977   2.180  2.4976 -0.0637  1.1992
 7631SOL     OW23470   1.563   9.784   4.078 -0.3298 -0.1533 -0.0365
 7631SOL    HW123471   1.499   9.834   4.029  1.4814  1.6794 -0.6971
 7631SOL    HW223472   1.623   9.850   4.113  2.5155 -1.8138 -1.3829
 7632SOL     OW23473   5.477   2.761   0.686  0.6318 -0.0466 -0.1578
 7632SOL    HW123474   5.523   2.822   0.628  0.7065 -0.4400 -0.5167
 7632SOL    HW223475   5.396   2.739   0.640  0.7513 -0.4595 -0.1812
 7633SOL     OW23476   5.108   9.108   0.730  0.0443 -0.3916 -0.0922
 7633SOL    HW123477   5.082   9.065   0.811 -0.2623 -0.5518 -0.2713
 7633SOL    HW223478   5.051   9.069   0.663  0.1392 -0.1008 -0.3452
 7634SOL     OW23479   5.057   1.103   0.220  0.3171 -0.0938 -0.3100
 7634SOL    HW123480   4.964   1.083   0.228  0.2108  0.1800 -0.8130
 7634SOL    HW223481   5.100   1.048   0.286 -0.4817  2.1268  2.2211
 7635SOL     OW23482   0.076   7.755   8.060  0.3343 -0.4038 -0.0392
 7635SOL    HW123483   0.052   7.819   8.127  0.8924  0.6100 -0.7984
 7635SOL    HW223484   0.167   7.775   8.039  1.6464 -3.4483  1.9488
 7636SOL     OW23485   0.113   3.492   8.453  0.2197  0.0616 -0.0316
 7636SOL    HW123486   0.129   3.568   8.509 -0.7572  0.5175 -0.3509
 7636SOL    HW223487   0.044   3.520   8.393  0.6869 -0.6806 -0.9524
 7637SOL     OW23488   3.638   2.446   9.459  0.3208  0.0465  0.7457
 7637SOL    HW123489   3.545   2.434   9.479 -0.0879  1.3900 -0.2251
 7637SOL    HW223490   3.649   2.540   9.452  1.0443 -0.1551 -2.3515
 7638SOL     OW23491   7.215   0.052   0.713  0.4757 -0.4346 -0.6783
 7638SOL    HW123492   7.286   0.046   0.649 -0.7479  0.7511 -2.2276
 7638SOL    HW223493   7.156   0.118   0.677 -0.3817  0.1479  1.5955
 7639SOL     OW23494   8.124   8.143   6.167 -0.3249 -0.1177 -0.1084
 7639SOL    HW123495   8.132   8.218   6.226 -1.0757  0.5920 -0.8928
 7639SOL    HW223496   8.118   8.067   6.225 -0.1151  0.4799  0.7047
 7640SOL     OW23497   9.571   9.595   5.456  0.3737 -0.6961  0.3706
 7640SOL    HW123498   9.560   9.671   5.400  1.3825 -0.9732 -0.2148
 7640SOL    HW223499   9.659   9.604   5.493  1.7476 -3.0150 -2.0065
 7641SOL     OW23500   2.742   6.201   3.168  0.4662 -0.3070  0.4957
 7641SOL    HW123501   2.648   6.190   3.162  0.4096 -0.4291  1.4985
 7641SOL    HW223502   2.772   6.205   3.077 -0.3419 -1.5994  0.1479
 7642SOL     OW23503   2.722   5.111   1.220  0.4545 -0.1837 -0.6177
 7642SOL    HW123504   2.679   5.078   1.141  0.5678 -0.7789 -0.4353
 7642SOL    HW223505   2.654   5.163   1.263  0.1099 -0.5824 -0.6633
 7643SOL     OW23506   3.372   4.797   1.148 -0.6954 -1.0499 -0.3615
 7643SOL    HW123507   3.348   4.827   1.060  1.1521  1.3926 -0.1394
 7643SOL    HW223508   3.289   4.771   1.188 -1.8569 -0.2434 -2.1116
 7644SOL     OW23509   0.051   8.069   6.172  0.2340 -0.7320 -0.4310
 7644SOL    HW123510   0.032   7.977   6.154  1.2990 -1.5656  2.2092
 7644SOL    HW223511  -0.013   8.094   6.239 -0.1186  0.5376 -1.1959
 7645SOL     OW23512   4.824   9.422   3.816 -0.3359 -0.1621 -0.2433
 7645SOL    HW123513   4.751   9.419   3.754  0.1071  0.4434 -0.8054
 7645SOL    HW223514   4.783   9.446   3.899 -0.9805 -1.3010 -0.2089
 7646SOL     OW23515   1.045   3.813   4.971 -0.3065  0.5768 -0.4919
 7646SOL    HW123516   1.114   3.830   4.907  1.2254 -0.3202  0.8416
 7646SOL    HW223517   0.997   3.896   4.976  0.2727  1.0342 -1.9068
 7647SOL     OW23518   3.072   5.397   5.669  0.4464 -0.1588 -0.4111
 7647SOL    HW123519   3.162   5.367   5.671  0.6837  0.5127  2.3084
 7647SOL    HW223520   3.020   5.321   5.696  0.3807 -0.0010 -0.0934
 7648SOL     OW23521   8.517   7.743   6.988 -0.0125  0.0299  0.1084
 7648SOL    HW123522   8.481   7.659   7.018 -0.6898 -0.2480 -1.3950
 7648SOL    HW223523   8.585   7.719   6.925 -0.0937  0.6118 -0.2083
 7649SOL     OW23524   9.346   0.068   4.716  0.1732 -0.5575  1.1806
 7649SOL    HW123525   9.376   0.039   4.630  1.2297 -2.1216  2.0246
 7649SOL    HW223526   9.298  -0.007   4.750 -0.3220  0.0898  1.9338
 7650SOL     OW23527   4.174   5.040   6.526  0.3166  0.3968  0.5850
 7650SOL    HW123528   4.118   5.075   6.595 -1.4898  0.4450 -0.8547
 7650SOL    HW223529   4.114   5.015   6.456  2.1338  1.0822 -1.3238
 7651SOL     OW23530   6.985   6.735   3.364  0.4639 -0.0544 -0.1364
 7651SOL    HW123531   6.953   6.734   3.454  0.3924 -1.8300 -0.1339
 7651SOL    HW223532   7.066   6.684   3.367 -0.4467 -1.6807 -1.3365
 7652SOL     OW23533   5.653   5.942   9.105  1.0089  0.0100 -0.2165
 7652SOL    HW123534   5.587   5.891   9.059  1.7071 -2.7307  1.5576
 7652SOL    HW223535   5.711   5.974   9.036  0.5785 -1.7193 -1.4572
 7653SOL     OW23536   6.095   3.600   1.762 -0.1879 -0.0809  0.2675
 7653SOL    HW123537   6.035   3.675   1.765 -0.6927 -0.4577 -0.0506
 7653SOL    HW223538   6.172   3.628   1.811  0.7580  1.6436 -2.0194
 7654SOL     OW23539   4.183   5.618   7.812 -0.4067  0.0933 -0.2758
 7654SOL    HW123540   4.227   5.686   7.862  0.7003  0.5489 -1.8098
 7654SOL    HW223541   4.133   5.569   7.877 -0.1410  1.5216  1.0479
 7655SOL     OW23542   2.970   6.810   3.564 -0.1328  0.2504  0.1356
 7655SOL    HW123543   2.928   6.732   3.599  0.1188  0.0550  0.0034
 7655SOL    HW223544   3.042   6.828   3.623  0.9979 -0.7451 -0.8949
 7656SOL     OW23545   1.729   7.937   9.738 -0.5485 -0.1329  0.1262
 7656SOL    HW123546   1.810   7.945   9.788 -0.8005  2.2839  0.2878
 7656SOL    HW223547   1.750   7.976   9.653 -0.9317 -1.5968 -0.6819
 7657SOL     OW23548   2.779   0.667   9.393  0.0314 -0.0128  0.3574
 7657SOL    HW123549   2.859   0.633   9.352 -0.7529 -1.3101 -0.1570
 7657SOL    HW223550   2.728   0.703   9.320  0.9284  2.6276  0.8996
 7658SOL     OW23551   2.652   5.126   3.891 -0.1288 -0.6167  0.6382
 7658SOL    HW123552   2.697   5.143   3.808 -0.2162  0.1966  0.7560
 7658SOL    HW223553   2.604   5.206   3.910  0.6827 -0.4245  1.9819
 7659SOL     OW23554   3.285   1.387   3.562 -0.0725  0.2593  0.3122
 7659SOL    HW123555   3.279   1.363   3.470 -0.3799  1.5024 -0.0051
 7659SOL    HW223556   3.250   1.311   3.609  1.9940 -1.2477 -0.4471
 7660SOL     OW23557   6.861   9.264   7.322  0.6137 -0.4657 -0.1009
 7660SOL    HW123558   6.775   9.255   7.362 -0.4442  1.7786 -1.6584
 7660SOL    HW223559   6.898   9.343   7.362  0.9963 -0.1667 -1.0075
 7661SOL     OW23560   7.049   0.139   5.285 -0.2512  0.1493 -0.2249
 7661SOL    HW123561   6.992   0.145   5.361  0.3098 -0.1228  0.2180
 7661SOL    HW223562   7.000   0.084   5.223 -1.3183  1.5068 -0.6311
 7662SOL     OW23563   0.801   5.174   7.661  0.6860 -0.0810 -0.5059
 7662SOL    HW123564   0.819   5.246   7.600 -2.2435 -0.9424 -2.5676
 7662SOL    HW223565   0.746   5.114   7.612  0.1631 -2.0496  2.2783
 7663SOL     OW23566   0.202   2.618   8.448  0.1935  0.0532  0.7081
 7663SOL    HW123567   0.264   2.689   8.468  1.4218  0.0331 -2.4639
 7663SOL    HW223568   0.123   2.663   8.417 -0.7113  0.0330  2.8331
 7664SOL     OW23569   6.475   1.740   0.205  0.1616 -0.1981  0.0574
 7664SOL    HW123570   6.526   1.767   0.128 -0.0472 -0.4919 -0.1855
 7664SOL    HW223571   6.540   1.736   0.276  0.8253 -2.1632 -0.6026
 7665SOL     OW23572   5.378   1.363   3.635 -0.6505  0.1666  0.4874
 7665SOL    HW123573   5.422   1.280   3.655 -0.2586  0.4272  0.7216
 7665SOL    HW223574   5.304   1.367   3.695 -2.6862 -1.5602 -1.6787
 7666SOL     OW23575   5.309   5.581   9.912 -0.2417 -0.2516 -0.5779
 7666SOL    HW123576   5.289   5.492   9.884  1.8151 -0.4726 -1.5380
 7666SOL    HW223577   5.270   5.636   9.844 -1.2956 -0.4115 -0.1196
 7667SOL     OW23578   9.033   4.435   9.427 -0.4804 -0.5522  0.1733
 7667SOL    HW123579   8.989   4.423   9.343 -1.0911 -0.1637  0.4355
 7667SOL    HW223580   9.025   4.529   9.445 -0.4089 -0.6450  0.6963
 7668SOL     OW23581   4.472   2.602   7.001 -0.0821 -0.2705  0.2774
 7668SOL    HW123582   4.563   2.603   6.972  0.1317 -2.1896  0.7312
 7668SOL    HW223583   4.474   2.556   7.085 -1.2952  1.0394  1.0669
 7669SOL     OW23584   9.535   0.921   9.815 -0.2719  0.1652 -0.3737
 7669SOL    HW123585   9.584   0.970   9.882 -0.5926  0.7267 -0.5415
 7669SOL    HW223586   9.565   0.959   9.732  1.9577 -2.1478 -0.7526
 7670SOL     OW23587   9.385   7.813   0.492  0.3619  0.0180  0.5672
 7670SOL    HW123588   9.363   7.720   0.496  1.4809 -0.2308  1.3304
 7670SOL    HW223589   9.448   7.826   0.562 -0.2544  1.5013  0.8884
 7671SOL     OW23590   7.440   6.013   6.665 -0.3767  0.3375  0.4489
 7671SOL    HW123591   7.460   6.010   6.758  1.5998  0.5014  0.0643
 7671SOL    HW223592   7.432   5.921   6.639  2.2658  0.1076  0.1958
 7672SOL     OW23593   0.332   3.350   2.278  0.0898 -0.0713 -0.1689
 7672SOL    HW123594   0.421   3.333   2.248  0.0772  0.2046 -0.3672
 7672SOL    HW223595   0.314   3.440   2.251 -0.1418 -0.0230  0.1335
 7673SOL     OW23596   4.326   8.751   2.314  0.1326  0.4623  0.5993
 7673SOL    HW123597   4.361   8.810   2.381  1.3095  1.6080 -0.9680
 7673SOL    HW223598   4.303   8.808   2.241 -0.1793 -0.8605 -0.3673
 7674SOL     OW23599   7.285   3.358   3.526 -0.0356  0.3734  0.4138
 7674SOL    HW123600   7.319   3.287   3.580 -0.3898 -0.5168 -0.5082
 7674SOL    HW223601   7.225   3.315   3.465  1.0144  1.2353 -1.2731
 7675SOL     OW23602   7.792   3.396   8.345  0.5423 -0.0980  0.1864
 7675SOL    HW123603   7.702   3.379   8.318  1.1641 -1.0803 -1.3911
 7675SOL    HW223604   7.815   3.479   8.304  0.4409  0.0458  0.4148
 7676SOL     OW23605   9.250   8.392   0.174 -0.1377  0.4702 -0.3237
 7676SOL    HW123606   9.155   8.387   0.163 -0.4841  0.1173  2.1885
 7676SOL    HW223607   9.278   8.301   0.179  0.3598  0.5720 -1.1779
 7677SOL     OW23608   2.105   1.026   8.340  0.1480  0.1878  0.0288
 7677SOL    HW123609   2.153   0.944   8.348  1.4603  0.9128 -0.0747
 7677SOL    HW223610   2.023   1.011   8.387  0.0925 -1.3731 -0.5244
 7678SOL     OW23611   5.468   3.768   8.060 -0.6509  0.1572 -0.4537
 7678SOL    HW123612   5.487   3.739   7.971 -2.2145 -0.5434 -0.6046
 7678SOL    HW223613   5.453   3.687   8.109  1.1092  0.4876  0.7045
 7679SOL     OW23614   9.178   7.200   2.273  0.0035 -1.0152 -0.2668
 7679SOL    HW123615   9.192   7.105   2.267 -2.2507 -1.5948  2.0752
 7679SOL    HW223616   9.083   7.210   2.282  0.0811  1.5849 -1.3552
 7680SOL     OW23617   0.907   1.731   7.170 -0.1241  0.3064 -0.1154
 7680SOL    HW123618   0.980   1.737   7.230 -0.0403  3.2628 -0.3500
 7680SOL    HW223619   0.834   1.699   7.223  1.0829 -2.0320  0.2659
 7681SOL     OW23620   2.839   9.887   4.123 -0.0105 -0.4696  0.1017
 7681SOL    HW123621   2.879   9.974   4.122  1.7360 -1.2273 -1.4197
 7681SOL    HW223622   2.857   9.853   4.211  1.4850 -0.2389 -0.1000
 7682SOL     OW23623   7.174   4.127   4.255  0.4987 -0.6991  0.4716
 7682SOL    HW123624   7.117   4.117   4.179  1.1929 -0.4316 -0.1003
 7682SOL    HW223625   7.260   4.148   4.218  0.5336  0.9700  1.3552
 7683SOL     OW23626   7.546   0.159   4.847 -0.0518 -0.5971  0.3815
 7683SOL    HW123627   7.527   0.180   4.938  1.5779 -0.5578  0.7534
 7683SOL    HW223628   7.489   0.216   4.796 -0.2909  0.0758  1.3859
 7684SOL     OW23629   7.875   8.153   3.942 -0.3611  0.6397 -0.5347
 7684SOL    HW123630   7.876   8.057   3.948 -1.3746  0.7051  1.1531
 7684SOL    HW223631   7.955   8.180   3.987 -0.3698  0.5984 -0.4938
 7685SOL     OW23632   0.203   4.889   6.880 -0.5944  0.2635 -0.6005
 7685SOL    HW123633   0.193   4.838   6.800 -2.2204 -0.5172  0.0580
 7685SOL    HW223634   0.151   4.842   6.945  1.0008  0.6513  1.0399
 7686SOL     OW23635   1.895   7.636   7.016 -0.3568  0.0824 -0.9196
 7686SOL    HW123636   1.924   7.596   6.934  1.1453 -0.7037 -0.0382
 7686SOL    HW223637   1.801   7.615   7.020  0.0751 -2.2376 -1.1616
 7687SOL     OW23638   1.021   4.353   2.789 -0.1073 -0.0972 -0.5558
 7687SOL    HW123639   1.045   4.384   2.702 -2.0994 -1.2931 -1.6082
 7687SOL    HW223640   0.927   4.339   2.785 -0.0388 -1.6156  1.3349
 7688SOL     OW23641   3.011   0.480   4.464  0.7240  0.1788 -0.5342
 7688SOL    HW123642   2.946   0.502   4.398  2.1431  2.7808 -1.2137
 7688SOL    HW223643   2.976   0.516   4.545  0.2865 -0.4980 -0.4126
 7689SOL     OW23644   9.092   3.128   6.217  0.1982  0.0205  0.0371
 7689SOL    HW123645   9.028   3.163   6.154  0.7872  2.0762  0.5043
 7689SOL    HW223646   9.119   3.044   6.179 -1.0331  0.2046 -1.3600
 7690SOL     OW23647   5.638   3.894   0.443  0.4521  0.0247  0.3290
 7690SOL    HW123648   5.609   3.890   0.351 -0.1262  2.7335  0.3100
 7690SOL    HW223649   5.730   3.869   0.440  0.2286 -0.7794 -0.8322
 7691SOL     OW23650   8.612   0.937   2.552 -0.1639 -0.3937  0.5313
 7691SOL    HW123651   8.519   0.957   2.552  0.1422  1.1667  0.1903
 7691SOL    HW223652   8.632   0.912   2.643 -0.4976  1.4783  1.1593
 7692SOL     OW23653   4.118   0.775   3.133 -0.3987 -0.2193 -0.0556
 7692SOL    HW123654   4.176   0.767   3.208 -1.6547 -0.9653  0.8957
 7692SOL    HW223655   4.152   0.848   3.082  0.7840 -0.0397  0.9731
 7693SOL     OW23656   6.225   2.689   0.600 -0.1470 -0.2616  0.1127
 7693SOL    HW123657   6.240   2.782   0.584  0.2105 -0.1710  0.9070
 7693SOL    HW223658   6.201   2.653   0.515  0.3001  0.4437 -0.3202
 7694SOL     OW23659   7.246   6.636   7.851  0.1857 -0.0230  0.1128
 7694SOL    HW123660   7.305   6.579   7.899  1.8600  1.4356 -0.1225
 7694SOL    HW223661   7.193   6.679   7.918  0.4280 -0.2121  0.4259
 7695SOL     OW23662   8.321   2.613   1.866 -0.6329  0.0809 -0.1473
 7695SOL    HW123663   8.227   2.633   1.861 -0.8947 -0.7474  0.9112
 7695SOL    HW223664   8.332   2.534   1.814 -0.9008 -0.8926  1.2015
 7696SOL     OW23665   2.633   6.283   6.158  0.5432  0.4099 -0.0092
 7696SOL    HW123666   2.654   6.303   6.250  0.3472  1.6584 -0.2225
 7696SOL    HW223667   2.554   6.229   6.163  1.3175 -0.7054  0.6072
 7697SOL     OW23668   7.213   3.485   6.580  0.3007 -0.5612 -0.5386
 7697SOL    HW123669   7.220   3.458   6.488 -0.3417  0.8781 -1.0301
 7697SOL    HW223670   7.281   3.551   6.591 -0.5648  0.3300 -0.3972
 7698SOL     OW23671   0.201   2.316   1.202 -0.6097  0.2136 -0.2631
 7698SOL    HW123672   0.123   2.335   1.149  0.7099 -1.3810 -2.9660
 7698SOL    HW223673   0.243   2.401   1.215 -2.0963  0.9210  0.1378
 7699SOL     OW23674   3.867   5.176   9.478 -0.0275  0.7502 -0.0239
 7699SOL    HW123675   3.779   5.157   9.510  0.3384  1.3247  1.4085
 7699SOL    HW223676   3.866   5.150   9.386 -0.7366 -2.2347  0.7414
 7700SOL     OW23677   0.860   7.104   2.825  0.3410 -0.0811  0.0326
 7700SOL    HW123678   0.920   7.118   2.751  0.7748 -1.7602  0.0212
 7700SOL    HW223679   0.891   7.024   2.866 -0.4270  0.3560  1.5427
 7701SOL     OW23680   3.058   5.601   7.134 -0.4671  0.1399 -0.1686
 7701SOL    HW123681   2.962   5.607   7.129 -0.4411  1.1596  0.3157
 7701SOL    HW223682   3.088   5.691   7.118  0.1765  0.9720  4.3011
 7702SOL     OW23683   9.830   9.042   2.535 -0.5219 -0.8959  0.2627
 7702SOL    HW123684   9.861   8.991   2.460 -1.4758 -0.6695 -0.3104
 7702SOL    HW223685   9.736   9.026   2.537 -0.6377 -0.1905  0.8774
 7703SOL     OW23686   8.832   3.933   8.757  0.7194 -0.1586 -0.1633
 7703SOL    HW123687   8.830   3.980   8.673 -0.5312 -0.5645 -0.3880
 7703SOL    HW223688   8.773   3.982   8.814  1.4184  0.0067  0.4257
 7704SOL     OW23689   4.368   5.490   4.589 -0.1070 -0.0905 -0.4566
 7704SOL    HW123690   4.398   5.514   4.502 -0.3592  0.0859 -0.4955
 7704SOL    HW223691   4.282   5.449   4.575 -1.4627  2.4588 -0.0668
 7705SOL     OW23692   8.033   3.342   1.606 -0.4967 -0.4593  0.0024
 7705SOL    HW123693   8.002   3.359   1.695  0.6147 -1.3800  0.5930
 7705SOL    HW223694   8.066   3.427   1.576  0.2285 -0.3853  0.9464
 7706SOL     OW23695   8.066   7.143   9.928  0.1452 -0.0937 -0.7165
 7706SOL    HW123696   8.104   7.079   9.867 -2.3686 -2.4004 -0.0355
 7706SOL    HW223697   8.100   7.116  10.014 -1.5406 -1.0806 -0.3281
 7707SOL     OW23698   0.335   1.073   7.901  0.4161 -0.1979  0.6819
 7707SOL    HW123699   0.351   1.161   7.869  0.5383 -0.4948 -0.1026
 7707SOL    HW223700   0.274   1.084   7.974 -0.4735  0.4494 -0.1406
 7708SOL     OW23701   7.839   5.172   1.652 -0.3987 -0.4735 -0.0563
 7708SOL    HW123702   7.829   5.162   1.557  0.1702 -1.1827 -0.0423
 7708SOL    HW223703   7.793   5.098   1.689  1.3946 -1.5588  0.1299
 7709SOL     OW23704   8.475   4.346   6.599  0.6612  0.8609  1.1500
 7709SOL    HW123705   8.492   4.387   6.684  0.0801  1.1757  1.1247
 7709SOL    HW223706   8.395   4.389   6.568  0.4117  0.1709  0.8175
 7710SOL     OW23707   9.398   3.804   6.381  0.1264  0.0482  0.3840
 7710SOL    HW123708   9.311   3.815   6.420  0.2899 -0.8603  1.0265
 7710SOL    HW223709   9.439   3.735   6.433  0.7146 -0.4982 -0.7735
 7711SOL     OW23710   5.962   8.281   6.558 -0.5080 -0.1987 -0.5078
 7711SOL    HW123711   5.918   8.210   6.605  0.0667 -0.1603  0.0961
 7711SOL    HW223712   6.055   8.261   6.566 -0.0462  2.4588  2.7539
 7712SOL     OW23713   7.151   6.963   3.267 -0.0411 -0.0042 -0.1560
 7712SOL    HW123714   7.126   6.874   3.291 -0.6239  0.4547  1.0488
 7712SOL    HW223715   7.095   7.019   3.322  0.5599  1.0979 -0.6311
 7713SOL     OW23716   3.757   8.497   7.473 -0.1485  1.0599 -0.0921
 7713SOL    HW123717   3.793   8.426   7.525 -1.7481  0.3635  0.1031
 7713SOL    HW223718   3.796   8.485   7.386  0.3789  0.5565  0.2094
 7714SOL     OW23719   8.910   6.332   8.937  0.6007 -0.7283  0.4054
 7714SOL    HW123720   8.976   6.301   8.875 -0.0915  0.7087 -1.1406
 7714SOL    HW223721   8.916   6.272   9.011  3.4282 -0.8227  0.2080
 7715SOL     OW23722   3.142   4.914   4.602  0.5043  0.2103 -0.1203
 7715SOL    HW123723   3.130   4.985   4.539  1.7399 -0.1105 -0.7499
 7715SOL    HW223724   3.085   4.844   4.570 -0.3889  0.7521  0.2590
 7716SOL     OW23725   0.145   1.122   7.278 -0.0050  0.5544 -0.1016
 7716SOL    HW123726   0.164   1.205   7.321 -0.6020 -0.0073  1.2985
 7716SOL    HW223727   0.218   1.110   7.217  0.3648  1.8363  0.0471
 7717SOL     OW23728   4.236   7.633   6.938  0.2756 -0.3853 -0.3680
 7717SOL    HW123729   4.203   7.555   6.981 -1.7260  0.1411 -0.8339
 7717SOL    HW223730   4.260   7.604   6.850 -1.1361 -0.3873 -0.7801
 7718SOL     OW23731   4.581   0.796   6.452 -0.4512 -0.2348  0.4172
 7718SOL    HW123732   4.497   0.796   6.405 -0.5579  2.0766  0.4914
 7718SOL    HW223733   4.638   0.851   6.399  1.8395 -3.4771 -0.8097
 7719SOL     OW23734   8.794   8.402   3.531  0.4399 -0.0778 -0.3866
 7719SOL    HW123735   8.755   8.322   3.566  0.4876 -0.0035 -0.1670
 7719SOL    HW223736   8.837   8.374   3.450 -0.6204 -0.0568 -0.9874
 7720SOL     OW23737   8.856   9.036   7.985  0.3201  0.0014  0.3723
 7720SOL    HW123738   8.931   9.006   8.036  1.6057  0.5810 -1.0909
 7720SOL    HW223739   8.793   9.067   8.051  1.3658 -0.4585  1.6376
 7721SOL     OW23740   8.804   5.002   2.625  0.9956 -0.1335  0.1797
 7721SOL    HW123741   8.724   4.993   2.677  1.3447  0.3134  0.8151
 7721SOL    HW223742   8.813   4.919   2.579 -0.0050 -0.0640 -0.1556
 7722SOL     OW23743   6.366   9.785   4.602  0.1308 -0.0959  0.6956
 7722SOL    HW123744   6.437   9.831   4.557 -0.6242  0.0664 -0.3779
 7722SOL    HW223745   6.335   9.722   4.537 -1.4176  0.5819  0.7532
 7723SOL     OW23746   0.754   7.845   3.647 -0.6277  0.5192  0.5256
 7723SOL    HW123747   0.825   7.810   3.699 -1.4603 -1.4806  0.3977
 7723SOL    HW223748   0.716   7.769   3.603 -2.0004  1.7026 -0.4536
 7724SOL     OW23749   5.551   5.499   7.025 -0.2048 -0.2641 -0.4173
 7724SOL    HW123750   5.647   5.494   7.030 -0.2863 -0.6630  1.4734
 7724SOL    HW223751   5.529   5.452   6.944  1.1365 -1.3341 -0.2014
 7725SOL     OW23752   8.584   4.678   1.257 -0.0910 -0.6006  0.5235
 7725SOL    HW123753   8.516   4.674   1.324 -1.0293  0.9249 -0.2918
 7725SOL    HW223754   8.539   4.707   1.178  1.1330 -1.5947 -0.5987
 7726SOL     OW23755   4.850   0.520   9.606 -0.2288  0.1164 -0.1470
 7726SOL    HW123756   4.875   0.463   9.533  1.0819  0.0607  0.3201
 7726SOL    HW223757   4.929   0.570   9.625 -0.9796  1.1519  0.3095
 7727SOL     OW23758   9.562   1.952   4.888 -0.0141  0.2703 -0.0736
 7727SOL    HW123759   9.489   2.003   4.924 -0.1029 -0.5364  0.9375
 7727SOL    HW223760   9.574   1.987   4.800 -2.2254 -0.1681 -0.6190
 7728SOL     OW23761   3.445   2.890   4.304 -0.2756 -0.6118  0.2708
 7728SOL    HW123762   3.462   2.869   4.212  0.8896  0.2328  0.2654
 7728SOL    HW223763   3.527   2.869   4.348 -1.0428 -1.6685  1.2666
 7729SOL     OW23764   1.352   2.625   6.151  0.3738 -0.1477  0.2183
 7729SOL    HW123765   1.276   2.677   6.126  2.2015  1.3891 -2.6821
 7729SOL    HW223766   1.391   2.673   6.225  0.6593  1.2757 -0.8226
 7730SOL     OW23767   0.834   2.035   7.390  0.0562  0.9665 -0.1009
 7730SOL    HW123768   0.818   1.980   7.467 -1.6077  1.6390  0.0803
 7730SOL    HW223769   0.747   2.051   7.353  0.8489  0.0444 -2.6051
 7731SOL     OW23770   9.132   2.379   9.161  0.1507 -0.3207 -0.2344
 7731SOL    HW123771   9.123   2.433   9.240  2.1675  0.9945 -0.8245
 7731SOL    HW223772   9.043   2.349   9.143 -1.6348  4.4696 -0.9415
 7732SOL     OW23773   6.948   9.510   5.403  0.1656 -0.3671  0.0524
 7732SOL    HW123774   6.979   9.423   5.377 -0.2338 -0.0478 -1.5616
 7732SOL    HW223775   6.896   9.541   5.329 -1.4167  0.4228  1.4207
 7733SOL     OW23776   0.247   6.385   3.165 -0.0922 -0.1131 -0.2694
 7733SOL    HW123777   0.226   6.291   3.168  0.7617 -0.3072  2.4486
 7733SOL    HW223778   0.315   6.392   3.098 -0.7816 -1.2467 -1.1464
 7734SOL     OW23779   6.066   7.237   8.299  0.1199  0.2969 -0.0491
 7734SOL    HW123780   6.104   7.150   8.290 -1.2749 -0.2990 -0.6276
 7734SOL    HW223781   6.000   7.227   8.367 -0.1106  0.8751 -0.1801
 7735SOL     OW23782   5.638   5.625   8.655 -0.0336 -0.3444  0.3064
 7735SOL    HW123783   5.645   5.546   8.601 -0.6468 -0.3235  0.1847
 7735SOL    HW223784   5.708   5.617   8.719  2.8173  1.1031 -2.3462
 7736SOL     OW23785   7.802   7.184   9.315  0.0372  0.1444  0.5730
 7736SOL    HW123786   7.732   7.226   9.366 -1.1355 -0.5231 -0.4344
 7736SOL    HW223787   7.877   7.242   9.325 -0.9231  1.3596  0.9570
 7737SOL     OW23788   9.455   7.070   7.260  0.1651  0.0183  0.2524
 7737SOL    HW123789   9.541   7.077   7.300 -0.6129  0.2491  1.9690
 7737SOL    HW223790   9.410   7.002   7.310 -0.9567  0.5381 -0.0036
 7738SOL     OW23791   3.380   6.872   2.382 -0.8487  0.0965  0.0068
 7738SOL    HW123792   3.364   6.936   2.313 -2.3293  0.2510  0.4747
 7738SOL    HW223793   3.469   6.892   2.413 -0.1456  0.0221 -1.8129
 7739SOL     OW23794   7.249   5.205   9.378  0.3043  0.1978  0.1992
 7739SOL    HW123795   7.185   5.276   9.379  0.7171  0.6510 -1.8040
 7739SOL    HW223796   7.199   5.127   9.402 -0.8113  0.6863 -0.4728
 7740SOL     OW23797   7.810   2.960   7.335  0.3169  0.1028  0.0345
 7740SOL    HW123798   7.869   2.910   7.392  0.0847  0.8172  0.9353
 7740SOL    HW223799   7.868   3.016   7.283  0.5239 -0.4542 -0.3395
 7741SOL     OW23800   1.014   0.691   6.486  0.1760  0.3816 -0.3940
 7741SOL    HW123801   1.091   0.695   6.430  0.6347  0.4389  0.2394
 7741SOL    HW223802   1.030   0.616   6.544  0.8668  1.8134  1.3386
 7742SOL     OW23803   9.229   9.487   1.783  0.1616 -0.2546  0.2469
 7742SOL    HW123804   9.199   9.484   1.874 -0.2235  0.3592  0.1472
 7742SOL    HW223805   9.240   9.581   1.765  0.4616 -0.3878 -0.2645
 7743SOL     OW23806   2.646   9.051   6.031  0.2257 -0.5255  0.3930
 7743SOL    HW123807   2.695   9.003   6.097  0.4890 -1.6311 -0.5725
 7743SOL    HW223808   2.628   9.136   6.072  0.6229 -1.0688  1.7577
 7744SOL     OW23809   1.148   0.463   0.162  0.0655 -0.5116  0.1103
 7744SOL    HW123810   1.104   0.418   0.090  0.9204 -1.9875  0.4657
 7744SOL    HW223811   1.088   0.454   0.236 -0.6029  0.6040 -0.2661
 7745SOL     OW23812   2.401   5.830   9.022 -0.0761 -0.0636 -0.2024
 7745SOL    HW123813   2.453   5.882   9.084  0.2357 -1.1163  0.4369
 7745SOL    HW223814   2.450   5.749   9.011 -0.7292 -0.3765 -0.9307
 7746SOL     OW23815   6.899   1.444   1.991 -0.5072  0.0457 -0.6688
 7746SOL    HW123816   6.842   1.520   1.992  1.0443  1.2669 -0.7336
 7746SOL    HW223817   6.970   1.468   1.931  2.1538  0.2142  2.3184
 7747SOL     OW23818   7.094   8.798   2.373  0.4187  0.0368  0.5361
 7747SOL    HW123819   7.004   8.785   2.403  0.4715  2.1640  1.8297
 7747SOL    HW223820   7.086   8.811   2.278 -0.4756 -0.9033  0.4579
 7748SOL     OW23821   3.490   9.158   1.789  0.2332  0.4257 -0.2882
 7748SOL    HW123822   3.578   9.197   1.791  0.4941 -0.1602 -0.3964
 7748SOL    HW223823   3.474   9.138   1.697 -0.0526  0.6158 -0.2806
 7749SOL     OW23824   0.682   3.926   0.378 -0.6428 -0.0637 -0.4317
 7749SOL    HW123825   0.676   3.830   0.384  0.5869 -0.2872 -2.3129
 7749SOL    HW223826   0.630   3.957   0.453 -3.0487 -2.1447 -1.1107
 7750SOL     OW23827   5.217   3.721   2.275  0.4554  0.2949 -0.1005
 7750SOL    HW123828   5.133   3.678   2.291  0.1475  0.5135 -1.0496
 7750SOL    HW223829   5.215   3.743   2.182  0.4348  2.7176  0.4054
 7751SOL     OW23830   8.853   2.696   2.339  0.0336 -0.1008 -0.2117
 7751SOL    HW123831   8.778   2.737   2.297  0.6077 -0.9602 -2.1721
 7751SOL    HW223832   8.887   2.763   2.398 -1.2001  0.9246 -0.6159
 7752SOL     OW23833   5.175   3.151   2.627 -0.0348 -0.1050  0.1071
 7752SOL    HW123834   5.215   3.192   2.551  0.9429 -0.8396  0.1940
 7752SOL    HW223835   5.235   3.079   2.649  0.0404  0.4732  1.9355
 7753SOL     OW23836   0.056   7.442   9.976  0.0293 -0.8723  0.1124
 7753SOL    HW123837  -0.036   7.438   9.950  0.2511 -0.1988 -0.8116
 7753SOL    HW223838   0.092   7.518   9.929  1.4885 -2.1446 -0.9143
 7754SOL     OW23839   7.859   2.907   0.126  0.2748 -0.1200 -0.5316
 7754SOL    HW123840   7.827   2.885   0.213 -0.4305  1.1717 -0.4428
 7754SOL    HW223841   7.894   2.995   0.135 -0.0035  0.1133 -1.6091
 7755SOL     OW23842   0.412   5.127   4.218 -0.4600  0.0280  0.2323
 7755SOL    HW123843   0.388   5.057   4.157  2.9296  0.9729 -2.4741
 7755SOL    HW223844   0.352   5.198   4.198  1.7139  1.0192 -3.6259
 7756SOL     OW23845   2.360   8.998   2.664 -0.2292 -0.2464  0.6182
 7756SOL    HW123846   2.363   8.924   2.725  0.0452 -0.5745  0.2126
 7756SOL    HW223847   2.282   8.984   2.611  1.2510 -1.7794 -1.3300
 7757SOL     OW23848   9.934   1.111   7.868 -0.2824 -0.0082 -0.1462
 7757SOL    HW123849   9.966   1.120   7.778 -0.2704 -1.2420 -0.2950
 7757SOL    HW223850   9.875   1.035   7.864  1.4982 -1.5778  1.3256
 7758SOL     OW23851   3.618   4.712   1.132 -0.2693  0.3952 -0.0226
 7758SOL    HW123852   3.531   4.726   1.169 -0.5489 -0.2747 -0.4179
 7758SOL    HW223853   3.622   4.771   1.056 -0.7398 -0.2550 -0.5640
 7759SOL     OW23854   8.630   0.100   5.579  0.3983 -0.1859  0.3336
 7759SOL    HW123855   8.653   0.174   5.522  1.0147  0.1923  1.0592
 7759SOL    HW223856   8.555   0.132   5.630  0.5582 -0.1164  0.5275
 7760SOL     OW23857   8.597   7.334   7.532 -0.1631 -0.3964 -0.2756
 7760SOL    HW123858   8.606   7.405   7.468  0.1729 -0.0481  0.1453
 7760SOL    HW223859   8.687   7.313   7.557 -0.3195  0.4120  1.0732
 7761SOL     OW23860   6.660   4.922   5.955  0.1193 -0.2947  0.2777
 7761SOL    HW123861   6.717   4.956   6.023 -0.9093  2.5541 -0.1690
 7761SOL    HW223862   6.707   4.940   5.873 -0.5505  0.3362  0.0196
 7762SOL     OW23863   4.273   1.346   1.715 -0.2303  0.1078  0.0357
 7762SOL    HW123864   4.184   1.313   1.732 -0.0270 -0.5212 -0.0972
 7762SOL    HW223865   4.313   1.279   1.660  0.9970 -0.5943  1.6916
 7763SOL     OW23866   2.284   6.899   1.257  0.0434 -0.6971 -0.4954
 7763SOL    HW123867   2.374   6.930   1.246  0.1340 -0.3153  1.0856
 7763SOL    HW223868   2.232   6.953   1.198  0.4948  1.0042  0.6069
 7764SOL     OW23869   6.571   6.082   1.607 -0.0327  0.3759  0.1202
 7764SOL    HW123870   6.562   6.062   1.513  2.1025  0.9194 -0.2552
 7764SOL    HW223871   6.494   6.043   1.647  0.1429 -1.9310 -1.5647
 7765SOL     OW23872   4.269   2.909   6.255 -0.1705 -0.2343 -0.1405
 7765SOL    HW123873   4.307   2.828   6.290 -1.2674 -1.1629 -1.0352
 7765SOL    HW223874   4.240   2.886   6.167 -0.4909  1.1534 -0.4204
 7766SOL     OW23875   8.789   0.686   0.171  0.2841  0.5582  0.1833
 7766SOL    HW123876   8.801   0.714   0.080 -0.0326 -2.9759 -1.0823
 7766SOL    HW223877   8.858   0.621   0.185 -1.5828 -1.2542  1.3914
 7767SOL     OW23878   3.983   6.221   2.858 -0.2160  0.2189  0.0231
 7767SOL    HW123879   4.068   6.185   2.885 -0.2697 -0.1431 -0.2848
 7767SOL    HW223880   3.925   6.145   2.854 -0.5426  0.4564  0.1689
 7768SOL     OW23881   5.841   6.403   5.275  0.7301  1.1951  0.4918
 7768SOL    HW123882   5.895   6.431   5.201  0.0326 -0.4560 -0.6892
 7768SOL    HW223883   5.860   6.310   5.285 -0.4095  1.0342  1.3404
 7769SOL     OW23884   7.294   2.385   2.473  0.1819  0.1115  0.1866
 7769SOL    HW123885   7.208   2.351   2.448 -0.7114  2.3309 -0.0436
 7769SOL    HW223886   7.338   2.404   2.390  0.1178  0.7346  0.2880
 7770SOL     OW23887   3.014   6.406   8.200 -0.1522 -0.1090 -0.2050
 7770SOL    HW123888   2.932   6.434   8.242 -0.5109 -1.1940 -0.1393
 7770SOL    HW223889   2.998   6.314   8.178  1.3002 -0.5278  0.4261
 7771SOL     OW23890   0.889   5.049   1.036 -0.4224  0.9115 -0.3161
 7771SOL    HW123891   0.811   5.093   1.002  0.8245  3.2310 -0.2908
 7771SOL    HW223892   0.854   4.990   1.104 -2.3412  0.2950 -1.7526
 7772SOL     OW23893   7.086   6.769   5.611 -0.0632 -0.4885 -0.3013
 7772SOL    HW123894   7.126   6.682   5.608 -1.7440 -1.3700  1.2609
 7772SOL    HW223895   7.057   6.779   5.701  2.2770  2.7720  0.2579
 7773SOL     OW23896   9.180   6.948   7.816 -0.0784 -0.0868  0.3787
 7773SOL    HW123897   9.101   7.001   7.830 -0.3328 -0.3515 -0.0261
 7773SOL    HW223898   9.181   6.931   7.722  0.3170 -0.3127  0.4213
 7774SOL     OW23899   5.900   2.065   3.895  0.1043 -0.0308  0.3204
 7774SOL    HW123900   5.910   2.116   3.975  1.4510  0.0053  0.1577
 7774SOL    HW223901   5.806   2.067   3.876 -0.0533  1.1651  1.1084
 7775SOL     OW23902   4.017   9.278   8.049  0.2030  0.1298 -0.4411
 7775SOL    HW123903   4.099   9.315   8.018  0.4596  0.0142  0.0960
 7775SOL    HW223904   4.002   9.201   7.994  0.9451 -0.4029  0.0907
 7776SOL     OW23905   6.815   7.634   5.291 -0.1325 -0.4598 -0.6474
 7776SOL    HW123906   6.799   7.539   5.292 -1.9620 -0.1865 -0.1574
 7776SOL    HW223907   6.736   7.671   5.252  0.1598  0.9300  0.0243
 7777SOL     OW23908   5.265   8.933   9.666 -0.0426 -0.1572  0.4113
 7777SOL    HW123909   5.282   8.887   9.584 -1.1530 -0.6128  0.4156
 7777SOL    HW223910   5.243   8.863   9.728 -3.2514  0.4113  0.0466
 7778SOL     OW23911   0.259   5.080   8.114  0.0928 -0.1986 -0.1706
 7778SOL    HW123912   0.319   5.017   8.073 -2.2445 -1.9978 -1.0758
 7778SOL    HW223913   0.220   5.031   8.186 -0.6112  0.7702  0.1131
 7779SOL     OW23914   4.141   5.150   2.220  0.7778  0.4426 -0.1060
 7779SOL    HW123915   4.196   5.129   2.296 -0.4482  0.6513  0.8663
 7779SOL    HW223916   4.138   5.245   2.218  0.4706  0.4313 -0.1756
 7780SOL     OW23917   9.657   2.239   9.839  0.2811 -0.1255 -0.3345
 7780SOL    HW123918   9.708   2.279   9.910  2.2209 -1.0425 -1.1402
 7780SOL    HW223919   9.634   2.312   9.782 -1.0888  0.5920  1.0446
 7781SOL     OW23920   3.134   2.054   2.421 -0.6262 -0.9120 -0.1633
 7781SOL    HW123921   3.180   1.970   2.427  1.9816  0.3582 -0.8976
 7781SOL    HW223922   3.065   2.038   2.356 -0.7657 -2.6934  0.3515
 7782SOL     OW23923   1.233   1.074   8.912 -0.2758  0.0778 -0.7206
 7782SOL    HW123924   1.261   1.034   8.830  0.6317  0.7481 -0.7527
 7782SOL    HW223925   1.305   1.132   8.937 -1.4177  1.4819 -0.5437
 7783SOL     OW23926   8.564   8.994   5.147  0.8378  0.2146  0.0343
 7783SOL    HW123927   8.507   9.068   5.166  1.0722  0.2012  0.8438
 7783SOL    HW223928   8.611   8.978   5.229  0.9596 -0.6830 -0.1941
 7784SOL     OW23929   3.850   2.686   3.033  0.2670  0.0862  0.1624
 7784SOL    HW123930   3.784   2.715   3.096 -0.9601 -1.4185 -0.3671
 7784SOL    HW223931   3.923   2.747   3.045 -0.3742  0.5398  2.2266
 7785SOL     OW23932   9.688   0.171   5.354 -0.2513  0.0534  0.2914
 7785SOL    HW123933   9.703   0.261   5.383  0.2153 -0.2747  1.1314
 7785SOL    HW223934   9.593   0.165   5.341 -0.1622  0.9763 -0.8980
 7786SOL     OW23935   6.630   9.847   9.552 -0.0265  0.0889 -0.1859
 7786SOL    HW123936   6.543   9.862   9.514 -0.3481 -1.6397 -0.2509
 7786SOL    HW223937   6.635   9.906   9.626 -1.1003  0.5128 -0.4335
 7787SOL     OW23938   5.356   0.068   4.668  0.3047 -0.4819  0.0521
 7787SOL    HW123939   5.317   0.140   4.718  0.9717 -2.0034  3.0030
 7787SOL    HW223940   5.443   0.101   4.642 -0.1080  0.3917 -0.2622
 7788SOL     OW23941   6.383   3.275   8.859  0.1251  0.0454  0.0539
 7788SOL    HW123942   6.325   3.309   8.928 -0.8868 -1.5507  0.0502
 7788SOL    HW223943   6.328   3.273   8.781  1.0628  1.1895 -0.6700
 7789SOL     OW23944   1.326   6.139   7.658 -0.3377 -0.4230 -0.2434
 7789SOL    HW123945   1.346   6.219   7.707 -0.5114 -0.6445  0.1978
 7789SOL    HW223946   1.306   6.075   7.726  0.2310 -0.9618 -0.5782
 7790SOL     OW23947   7.661   4.536   0.206 -0.3494 -0.1133  0.2574
 7790SOL    HW123948   7.614   4.579   0.278  1.6079  0.5546  1.2301
 7790SOL    HW223949   7.690   4.452   0.243 -1.9654 -1.1854 -0.8074
 7791SOL     OW23950   7.333   4.656   1.803  0.1914 -0.9313 -0.4462
 7791SOL    HW123951   7.323   4.576   1.751 -1.2413 -0.9374 -0.1931
 7791SOL    HW223952   7.345   4.625   1.893 -3.5474 -0.9495  0.2159
 7792SOL     OW23953   9.042   6.772   7.337  0.3399 -0.2339 -0.3919
 7792SOL    HW123954   9.125   6.725   7.352  1.2518  1.0866 -1.1120
 7792SOL    HW223955   9.066   6.844   7.279 -1.0951  0.8838  0.3592
 7793SOL     OW23956   1.046   9.390   0.507  0.1588  0.3339  0.2715
 7793SOL    HW123957   0.990   9.313   0.517  2.1356 -1.0465  1.4235
 7793SOL    HW223958   1.024   9.446   0.581 -0.5928  0.4195 -0.0115
 7794SOL     OW23959   6.035   5.545   2.729  0.2428  0.0095  0.1054
 7794SOL    HW123960   6.122   5.529   2.691  0.7889  0.3647  1.1753
 7794SOL    HW223961   5.994   5.607   2.668  0.5788 -0.4703 -0.6232
 7795SOL     OW23962   1.985   1.178   1.167  0.3732  0.3608 -0.4301
 7795SOL    HW123963   2.068   1.226   1.172  0.7593 -0.2217 -1.1433
 7795SOL    HW223964   2.010   1.086   1.173 -0.2020  0.1741 -0.8274
 7796SOL     OW23965   8.577   5.768   6.512 -0.5003 -0.3826  0.5755
 7796SOL    HW123966   8.486   5.792   6.527 -0.7560 -0.1986 -1.0418
 7796SOL    HW223967   8.602   5.716   6.588 -1.6634  0.3356  1.4748
 7797SOL     OW23968   4.820   7.284   5.918 -0.1874  0.0376  0.1386
 7797SOL    HW123969   4.799   7.305   5.827  2.7163  2.6493 -0.0803
 7797SOL    HW223970   4.832   7.189   5.918  0.6012  0.0498 -2.4503
 7798SOL     OW23971   6.378   8.556   6.326  0.1544 -0.1360 -0.3499
 7798SOL    HW123972   6.283   8.555   6.312  0.1033  0.0625 -0.0030
 7798SOL    HW223973   6.396   8.643   6.362  0.4438 -0.2468 -0.2329
 7799SOL     OW23974   8.786   0.772   7.360  0.2002 -0.2098  0.9440
 7799SOL    HW123975   8.737   0.790   7.280  0.7136 -0.1422  0.6419
 7799SOL    HW223976   8.737   0.818   7.429 -0.3739 -0.4640  0.7120
 7800SOL     OW23977   0.916   2.205   3.323 -0.3956 -0.4124 -0.5564
 7800SOL    HW123978   0.850   2.142   3.295  0.7617 -0.7562 -2.7509
 7800SOL    HW223979   0.980   2.206   3.252  2.0081 -0.1173  1.4821
 7801SOL     OW23980   2.246   1.475   8.435 -0.3918 -0.2817 -0.6566
 7801SOL    HW123981   2.248   1.403   8.372 -0.6595  0.2148 -1.2386
 7801SOL    HW223982   2.279   1.436   8.516 -0.3613 -1.0135 -1.0089
 7802SOL     OW23983   6.111   8.136   8.646  0.1858  0.5585 -0.2543
 7802SOL    HW123984   6.030   8.092   8.669  1.2289 -1.1338  0.3514
 7802SOL    HW223985   6.142   8.175   8.728 -0.3507  1.8199 -0.6321
 7803SOL     OW23986   7.171   0.272   3.475 -0.2961  0.0974 -0.1852
 7803SOL    HW123987   7.140   0.195   3.523 -1.2614  0.3112 -0.4577
 7803SOL    HW223988   7.188   0.239   3.387  0.1251  0.0159 -0.0777
 7804SOL     OW23989   5.524   8.555   5.326 -0.5906 -1.1158 -0.4725
 7804SOL    HW123990   5.606   8.601   5.306 -1.0324 -0.6069 -1.1404
 7804SOL    HW223991   5.491   8.525   5.241 -0.9398 -1.6022 -0.1734
 7805SOL     OW23992   0.810   2.639   0.333 -0.1723 -0.0252  0.1621
 7805SOL    HW123993   0.858   2.716   0.303 -0.3942 -0.2811 -0.9262
 7805SOL    HW223994   0.878   2.576   0.356  0.0217  0.0142 -0.2823
 7806SOL     OW23995   1.521   5.396   9.555  0.1489 -0.2575  0.0254
 7806SOL    HW123996   1.477   5.482   9.558 -0.9191 -0.8184  1.2500
 7806SOL    HW223997   1.480   5.352   9.481  1.0438  0.4392 -0.9166
 7807SOL     OW23998   9.964   4.817   4.343  0.1850 -0.1466 -0.1703
 7807SOL    HW123999   9.910   4.896   4.333  0.8289  0.4652  0.9777
 7807SOL    HW224000  10.046   4.849   4.381  0.6035 -1.3251 -0.0459
 7808SOL     OW24001   3.847   7.177   5.397 -0.1275 -0.5059  0.2860
 7808SOL    HW124002   3.767   7.129   5.420 -0.0697 -0.1913  1.2125
 7808SOL    HW224003   3.874   7.217   5.480  0.3942  0.2723 -0.2581
 7809SOL     OW24004   8.296   2.729   4.246  0.2931  0.1719 -0.3927
 7809SOL    HW124005   8.354   2.653   4.252 -0.9792 -0.8472 -0.5110
 7809SOL    HW224006   8.329   2.789   4.313  1.2680 -0.5182 -0.2234
 7810SOL     OW24007   9.645   2.271   4.987 -0.4476  0.3968  0.4970
 7810SOL    HW124008   9.735   2.299   4.971 -0.5437  0.6597  0.4196
 7810SOL    HW224009   9.650   2.223   5.070  0.1022 -1.2447 -0.4408
 7811SOL     OW24010   3.699   4.188   2.886  0.1095 -0.2400 -0.3649
 7811SOL    HW124011   3.710   4.269   2.935  2.1527 -1.0742  0.7005
 7811SOL    HW224012   3.681   4.216   2.796  1.4554  1.3993 -0.1658
 7812SOL     OW24013   7.584   9.854   9.875 -0.2030  0.6966 -1.0743
 7812SOL    HW124014   7.678   9.833   9.877 -0.3974 -0.3532 -2.1347
 7812SOL    HW224015   7.565   9.873   9.783 -0.9296  1.4791 -0.7780
 7813SOL     OW24016   5.708   6.402   0.808  0.4827 -0.2354 -0.1161
 7813SOL    HW124017   5.657   6.445   0.877  0.0203 -1.9941  0.6947
 7813SOL    HW224018   5.680   6.310   0.811  0.8203 -0.4605 -2.3361
 7814SOL     OW24019   0.279   1.341   6.238 -0.1740 -0.4668 -0.2165
 7814SOL    HW124020   0.363   1.307   6.269 -0.8231 -1.0994  0.9233
 7814SOL    HW224021   0.229   1.262   6.215 -0.6319 -0.1167 -0.4339
 7815SOL     OW24022   7.897   8.970   0.972  0.4261 -0.2929 -0.6353
 7815SOL    HW124023   7.830   9.036   0.992  0.9751  0.0446  0.1679
 7815SOL    HW224024   7.969   8.991   1.032  0.3664 -2.0181  0.1006
 7816SOL     OW24025   9.733   8.920   1.925 -0.5171  0.1100  0.3385
 7816SOL    HW124026   9.793   8.867   1.977  1.2629  1.4979 -0.1655
 7816SOL    HW224027   9.782   8.940   1.845 -1.5717  1.4644 -0.0163
 7817SOL     OW24028   0.596   3.478   7.995  1.0764  0.0917 -0.1237
 7817SOL    HW124029   0.674   3.532   8.007  0.6908  0.2497  2.0624
 7817SOL    HW224030   0.623   3.390   8.019  1.0878 -0.2737 -1.3964
 7818SOL     OW24031   0.029   8.412   1.012  0.6872  0.1242 -0.2674
 7818SOL    HW124032   0.075   8.357   0.948  2.3013 -0.0332  0.9565
 7818SOL    HW224033   0.061   8.500   0.995 -1.2224  0.5974 -1.6419
 7819SOL     OW24034   6.019   5.735   0.940 -0.5476 -0.5303  0.2542
 7819SOL    HW124035   5.963   5.731   0.863 -0.9250 -0.8733  0.5437
 7819SOL    HW224036   6.098   5.686   0.916 -0.7966 -0.9050  0.1908
 7820SOL     OW24037   4.010   4.337   8.675 -0.6208  0.4466 -0.1850
 7820SOL    HW124038   3.951   4.274   8.634  0.7024 -0.4784 -0.7249
 7820SOL    HW224039   4.032   4.398   8.605  0.2799 -0.1257 -0.4102
 7821SOL     OW24040   2.115   3.961   6.912  0.0731  0.5144  0.1085
 7821SOL    HW124041   2.076   4.041   6.949  0.0012  0.7995 -0.5659
 7821SOL    HW224042   2.130   3.905   6.988 -0.9464  0.7049  0.4761
 7822SOL     OW24043   5.959   9.913   5.095  0.1422  0.7439 -0.0131
 7822SOL    HW124044   5.915   9.830   5.110 -2.0941  2.0087  0.9059
 7822SOL    HW224045   6.018   9.896   5.022  0.0595 -1.7179  0.4025
 7823SOL     OW24046   0.556   8.644   6.451  0.2336 -0.1496 -0.5695
 7823SOL    HW124047   0.487   8.601   6.400 -0.6332  2.0724 -1.4154
 7823SOL    HW224048   0.562   8.732   6.414  1.5207  0.6770  1.4067
 7824SOL     OW24049   8.752   2.491   6.512  0.2873 -0.0271  0.0730
 7824SOL    HW124050   8.793   2.578   6.515 -0.4003  0.3761 -1.3127
 7824SOL    HW224051   8.685   2.499   6.445  0.1514 -1.6219 -0.0138
 7825SOL     OW24052   0.463   2.268   1.781 -0.2713 -0.1837  0.1686
 7825SOL    HW124053   0.501   2.206   1.843 -0.5397  1.1541  1.7681
 7825SOL    HW224054   0.536   2.295   1.726  0.0956 -1.0313  0.2338
 7826SOL     OW24055   8.716   1.107   3.499  0.0203 -0.8191 -0.0309
 7826SOL    HW124056   8.628   1.146   3.501  0.3777 -0.0283  0.6335
 7826SOL    HW224057   8.731   1.075   3.588 -0.0930 -2.1298 -0.4573
 7827SOL     OW24058   5.921   3.990   3.031 -0.0340  0.5003 -0.0025
 7827SOL    HW124059   6.011   3.958   3.019 -0.5838 -0.3471 -2.4875
 7827SOL    HW224060   5.867   3.911   3.024 -1.0476  1.1496  0.3097
 7828SOL     OW24061   6.254   9.348   3.610  0.6342 -0.0969  0.1710
 7828SOL    HW124062   6.264   9.380   3.700 -2.0972 -1.1206  0.9182
 7828SOL    HW224063   6.280   9.256   3.613  0.7734 -0.0714 -0.1554
 7829SOL     OW24064   8.955   3.400   6.089  0.4364  0.3790 -0.8753
 7829SOL    HW124065   8.951   3.398   6.185  0.9510  0.4923 -0.8498
 7829SOL    HW224066   9.047   3.382   6.068  0.2554 -0.0013 -1.3617
 7830SOL     OW24067   2.254   4.468   1.609 -1.0975 -0.0367  0.2887
 7830SOL    HW124068   2.309   4.390   1.604 -2.2241 -0.9227  1.3784
 7830SOL    HW224069   2.185   4.453   1.544 -1.8228 -0.3794  1.1191
 7831SOL     OW24070   7.307   1.210   1.085  0.6512  0.3856 -0.3882
 7831SOL    HW124071   7.393   1.171   1.072  0.8897  0.9714 -0.6114
 7831SOL    HW224072   7.249   1.136   1.105  1.0599 -0.0940 -0.9481
 7832SOL     OW24073   5.165   4.850   0.784 -0.1962 -0.0128  0.3142
 7832SOL    HW124074   5.119   4.933   0.795 -0.0708  0.0928  0.0439
 7832SOL    HW224075   5.100   4.783   0.802 -0.1735  0.1502  1.0270
 7833SOL     OW24076   6.066   2.712   3.578 -0.2858  0.1047  0.3899
 7833SOL    HW124077   6.081   2.626   3.617 -0.4665  0.2357  0.7522
 7833SOL    HW224078   6.147   2.760   3.594 -0.1372 -0.0415  0.0734
 7834SOL     OW24079   2.771   2.076   1.936 -0.2571 -0.4085  0.6359
 7834SOL    HW124080   2.755   1.983   1.917 -0.6596 -0.2121 -0.0351
 7834SOL    HW224081   2.683   2.114   1.941 -0.0819  0.3042 -1.0355
 7835SOL     OW24082   3.374   9.808   1.465 -0.4910  0.0575  0.5965
 7835SOL    HW124083   3.365   9.739   1.398  3.1375 -1.0849  1.0842
 7835SOL    HW224084   3.356   9.889   1.417  3.0340 -0.5842 -2.3191
 7836SOL     OW24085   2.835   4.256   2.276 -0.4804 -0.1531  0.3672
 7836SOL    HW124086   2.790   4.316   2.217  1.2548  0.3153 -0.5436
 7836SOL    HW224087   2.861   4.311   2.350  0.0027 -0.0464  0.1235
 7837SOL     OW24088   5.834   3.960   9.062 -0.2220 -0.1066  0.6708
 7837SOL    HW124089   5.914   3.911   9.080  0.5813  0.7517 -0.4340
 7837SOL    HW224090   5.811   4.000   9.146 -0.5957 -1.8762  1.4712
 7838SOL     OW24091   1.006   8.077   0.896  0.1112 -0.0209 -0.2020
 7838SOL    HW124092   0.956   7.996   0.906 -0.2709  0.1329 -0.8219
 7838SOL    HW224093   1.058   8.063   0.817  0.1077  0.3122 -0.2622
 7839SOL     OW24094   5.109   0.604   0.533 -0.4269 -0.5051  0.0642
 7839SOL    HW124095   5.196   0.641   0.518 -1.8372  2.5808 -1.3786
 7839SOL    HW224096   5.076   0.651   0.610 -1.3047 -0.6586 -0.2047
 7840SOL     OW24097   3.452   9.940   1.059 -0.4515 -0.1580  0.1345
 7840SOL    HW124098   3.524   9.995   1.031 -1.7534  1.7174  0.2701
 7840SOL    HW224099   3.444   9.873   0.990 -0.3724  1.3167 -1.3770
 7841SOL     OW24100   7.705   1.595   6.524  0.1128 -0.7689 -0.0579
 7841SOL    HW124101   7.686   1.503   6.542 -1.0221 -0.4907  0.2026
 7841SOL    HW224102   7.663   1.612   6.439 -0.7357 -0.1766  0.4684
 7842SOL     OW24103   1.504   0.334   8.762 -0.0437 -0.3011  0.1322
 7842SOL    HW124104   1.418   0.368   8.740 -0.8502 -2.0226  0.5205
 7842SOL    HW224105   1.530   0.382   8.841 -0.4869  0.4160 -0.1445
 7843SOL     OW24106   6.423   7.969   2.888  0.1280  0.4322  0.3208
 7843SOL    HW124107   6.346   7.979   2.833  1.5904  2.0187 -1.5671
 7843SOL    HW224108   6.479   8.044   2.867  0.8968  1.0653  3.8500
 7844SOL     OW24109   0.891   2.289   7.524 -1.6829  0.5626 -0.2892
 7844SOL    HW124110   0.847   2.216   7.480  0.7415 -0.8532 -0.5489
 7844SOL    HW224111   0.926   2.342   7.453 -0.5206  0.0540 -0.1167
 7845SOL     OW24112   5.865   0.727   7.452 -0.1748 -0.1818  0.3700
 7845SOL    HW124113   5.802   0.781   7.404  0.0505  1.4650  1.8146
 7845SOL    HW224114   5.813   0.655   7.488 -0.8041 -0.0346 -0.2181
 7846SOL     OW24115   7.157   3.866   1.953  0.4003  0.3465 -0.1170
 7846SOL    HW124116   7.091   3.822   2.006 -1.9367  1.6350 -1.8018
 7846SOL    HW224117   7.111   3.937   1.910  2.2743 -0.1800 -3.3613
 7847SOL     OW24118   7.306   8.611   5.316  0.1932  0.1931 -0.2167
 7847SOL    HW124119   7.356   8.533   5.292  1.5430  1.1558 -0.6277
 7847SOL    HW224120   7.311   8.614   5.411  0.1953 -0.1731 -0.2011
 7848SOL     OW24121   6.062   7.815   3.032 -0.1509  0.0134 -0.3284
 7848SOL    HW124122   6.038   7.899   2.993  0.8704 -0.1134 -1.2616
 7848SOL    HW224123   6.031   7.750   2.970  0.7015 -0.2199 -0.5208
 7849SOL     OW24124   0.928   8.639   4.265 -0.0240  0.3430  0.3004
 7849SOL    HW124125   0.872   8.643   4.342 -0.6085  0.0916 -0.0970
 7849SOL    HW224126   0.879   8.584   4.203  0.1430  1.0378 -0.4728
 7850SOL     OW24127   2.419   9.396   9.733 -0.1718 -0.1205 -0.2044
 7850SOL    HW124128   2.429   9.352   9.817 -0.9949 -0.8463 -0.4749
 7850SOL    HW224129   2.474   9.474   9.740  0.1665 -0.4373  0.8136
 7851SOL     OW24130   4.517   8.518   9.977  0.1073  0.0953 -0.2840
 7851SOL    HW124131   4.599   8.477   9.950 -0.3214 -1.3691  0.5489
 7851SOL    HW224132   4.448   8.461   9.942 -0.4931 -0.1699  1.2204
 7852SOL     OW24133   3.969   1.111   6.683  0.3226 -0.2505  0.6239
 7852SOL    HW124134   3.937   1.196   6.652  0.7512 -0.1009  0.5779
 7852SOL    HW224135   3.945   1.050   6.614 -2.9849 -0.8186  2.0943
 7853SOL     OW24136   4.189   3.175   5.595 -0.1005  0.7349 -0.0461
 7853SOL    HW124137   4.139   3.115   5.539  1.5817 -0.3359 -0.4968
 7853SOL    HW224138   4.233   3.234   5.533 -1.6083  2.3939  0.3877
 7854SOL     OW24139   6.769   7.188   0.352 -0.5351  0.5121  0.0827
 7854SOL    HW124140   6.844   7.247   0.349  1.3499 -1.6954  1.2466
 7854SOL    HW224141   6.785   7.124   0.284 -2.8090  1.4989 -1.4964
 7855SOL     OW24142   1.278   3.971   5.322  0.1851  0.2076 -0.2249
 7855SOL    HW124143   1.247   3.884   5.295  0.7951  0.3026 -1.2712
 7855SOL    HW224144   1.338   3.998   5.253  0.3941  1.2572  0.3426
 7856SOL     OW24145   1.785   0.832   8.089  0.0605  0.2534 -0.5019
 7856SOL    HW124146   1.755   0.901   8.029 -1.3427  0.4536  0.3804
 7856SOL    HW224147   1.761   0.864   8.176 -2.0460 -1.9828 -0.1680
 7857SOL     OW24148   5.498   4.860   1.430  0.0612  0.5056 -0.1899
 7857SOL    HW124149   5.492   4.844   1.336  0.1867 -2.9837  0.2770
 7857SOL    HW224150   5.411   4.837   1.464 -0.4221  3.0058  0.4927
 7858SOL     OW24151   4.555   2.204   6.146  0.1008 -0.3327  0.0943
 7858SOL    HW124152   4.569   2.116   6.181 -0.5756 -0.5215 -0.1044
 7858SOL    HW224153   4.629   2.255   6.180  1.4576 -1.3687 -1.1945
 7859SOL     OW24154   1.175   5.525   1.642 -0.2077  0.5961 -0.4377
 7859SOL    HW124155   1.133   5.505   1.726  0.9496  0.8999  0.2280
 7859SOL    HW224156   1.113   5.493   1.577 -0.2413 -1.5153  0.5384
 7860SOL     OW24157   0.984   5.697   4.245 -0.4396 -0.3999  0.3852
 7860SOL    HW124158   1.027   5.709   4.330 -0.7656 -1.1886  0.6735
 7860SOL    HW224159   1.041   5.742   4.183 -0.6545  0.9853  1.1314
 7861SOL     OW24160   4.232   6.966   3.795 -0.4491  0.2082  0.5010
 7861SOL    HW124161   4.207   6.898   3.859 -0.6022  0.4861  0.7371
 7861SOL    HW224162   4.149   7.005   3.767 -0.3522  0.3874  0.4641
 7862SOL     OW24163   9.362   4.953   1.035  0.0316 -0.4144 -1.1767
 7862SOL    HW124164   9.295   4.908   0.984 -0.9660 -0.0752 -0.1946
 7862SOL    HW224165   9.314   5.008   1.097  1.1769 -1.0416  0.3508
 7863SOL     OW24166   7.517   7.864   1.954 -0.6924  1.0495 -0.1031
 7863SOL    HW124167   7.461   7.942   1.950 -1.1818  0.7772  0.9875
 7863SOL    HW224168   7.463   7.799   1.999  0.5495  0.8340  1.1281
 7864SOL     OW24169   8.899   3.596   9.876 -0.1835 -1.3004 -0.6454
 7864SOL    HW124170   8.955   3.558   9.808  0.8491  0.9326 -1.1342
 7864SOL    HW224171   8.912   3.690   9.868 -1.4580 -0.8720  1.4733
 7865SOL     OW24172   3.013   3.164   5.568 -0.1322  0.1307 -0.2546
 7865SOL    HW124173   3.103   3.167   5.536 -0.5904 -0.7134 -1.7301
 7865SOL    HW224174   3.018   3.115   5.650  0.7065 -0.2390 -0.5149
 7866SOL     OW24175   0.912   3.795   2.812  0.5379 -0.2629  0.1731
 7866SOL    HW124176   0.941   3.714   2.770 -1.4664 -0.8469 -0.2021
 7866SOL    HW224177   0.970   3.863   2.777  0.3468 -1.0902 -1.8555
 7867SOL     OW24178   5.428   2.382   4.829  0.8605  0.2086 -0.5791
 7867SOL    HW124179   5.433   2.442   4.755 -0.8282  1.2884  0.1223
 7867SOL    HW224180   5.488   2.311   4.806  1.7150  1.3698 -2.1561
 7868SOL     OW24181   9.273   4.056   9.160  0.1311  0.1213 -0.0088
 7868SOL    HW124182   9.361   4.076   9.129  0.6439 -2.9977 -0.8079
 7868SOL    HW224183   9.252   4.129   9.219  2.1651  2.2713 -1.7187
 7869SOL     OW24184   1.725   7.389   2.137  0.5105  0.0397 -0.1576
 7869SOL    HW124185   1.796   7.385   2.073  0.3453  2.4827 -0.6050
 7869SOL    HW224186   1.663   7.452   2.100 -0.8988 -0.4675  1.1958
 7870SOL     OW24187   7.603   2.224   5.401 -0.0280 -0.9273  0.4101
 7870SOL    HW124188   7.682   2.210   5.454 -0.1053 -0.2693  0.7126
 7870SOL    HW224189   7.531   2.195   5.456 -0.2301  0.9422  1.2161
 7871SOL     OW24190   3.308   3.844   9.209 -0.3424 -0.2740 -0.5810
 7871SOL    HW124191   3.383   3.842   9.149 -0.2022  1.0970 -0.4673
 7871SOL    HW224192   3.235   3.812   9.156 -0.4578  1.9389 -1.8850
 7872SOL     OW24193   5.010   9.193   3.886 -0.0449 -0.0406  0.4441
 7872SOL    HW124194   4.933   9.246   3.864 -0.1960  0.0552  1.1848
 7872SOL    HW224195   4.987   9.105   3.857 -1.2053 -0.4071  2.2809
 7873SOL     OW24196   4.206   4.579   9.208 -0.3273  0.3772  0.0288
 7873SOL    HW124197   4.175   4.556   9.120  1.2279  0.2698 -0.5236
 7873SOL    HW224198   4.162   4.662   9.227 -0.7915  0.3358 -0.7853
 7874SOL     OW24199   9.073   5.268   6.876  0.5978 -0.5909  0.0990
 7874SOL    HW124200   9.152   5.290   6.927 -0.2105  0.5420  0.9015
 7874SOL    HW224201   9.104   5.266   6.785  1.9892 -2.2921  0.5455
 7875SOL     OW24202   5.420   0.316   1.560 -0.2874  0.5711 -0.0156
 7875SOL    HW124203   5.484   0.350   1.622  0.3576 -2.9153  1.4305
 7875SOL    HW224204   5.355   0.270   1.613  0.0794 -2.2331 -1.7637
 7876SOL     OW24205   3.238   8.910   7.552  0.2394  0.3448 -0.1204
 7876SOL    HW124206   3.170   8.843   7.556  0.2691  0.2946 -0.4421
 7876SOL    HW224207   3.213   8.974   7.618  1.5030 -1.1821  1.9674
 7877SOL     OW24208   8.277   2.373   0.545 -0.4665  0.2160  0.2991
 7877SOL    HW124209   8.349   2.400   0.488  0.1569 -3.5045 -0.9120
 7877SOL    HW224210   8.199   2.380   0.490 -0.1972 -1.0878 -0.2741
 7878SOL     OW24211   3.160   8.399   2.118  0.5050 -0.4719 -0.5216
 7878SOL    HW124212   3.246   8.375   2.085  0.8403 -2.0440  1.2996
 7878SOL    HW224213   3.149   8.346   2.197 -1.2061  1.3499  0.5547
 7879SOL     OW24214   1.264   4.290   0.496  0.2695  0.2319  0.7054
 7879SOL    HW124215   1.180   4.307   0.537  0.4468  0.3332  1.0315
 7879SOL    HW224216   1.318   4.252   0.565  0.8843  1.3174  0.8446
 7880SOL     OW24217   0.077   2.962   8.199 -0.8290  0.5810 -0.3837
 7880SOL    HW124218   0.152   3.006   8.160 -0.9032  0.8180 -0.2656
 7880SOL    HW224219   0.097   2.959   8.293  0.5411 -2.2669 -0.6528
 7881SOL     OW24220   8.178   5.172   2.863 -0.4059  0.5753  0.3694
 7881SOL    HW124221   8.199   5.102   2.925  0.2156  0.5483  0.1342
 7881SOL    HW224222   8.113   5.225   2.908 -1.1806 -0.3690  0.4008
 7882SOL     OW24223   0.050   5.095   6.817  0.5004  0.2332  0.1142
 7882SOL    HW124224   0.052   5.131   6.729  0.2623  2.3601  0.9145
 7882SOL    HW224225   0.122   5.033   6.820  1.1595  0.9037 -1.2699
 7883SOL     OW24226   7.308   3.342   7.894 -0.1051  0.0938 -0.5784
 7883SOL    HW124227   7.224   3.371   7.857 -0.2312 -0.4801 -0.7505
 7883SOL    HW224228   7.335   3.414   7.951 -0.8409  0.1770 -0.3222
 7884SOL     OW24229   8.064   8.912   3.804 -0.4489 -0.0242 -0.4111
 7884SOL    HW124230   8.105   8.990   3.767 -2.2471  1.2018 -0.0046
 7884SOL    HW224231   8.056   8.851   3.731 -0.2577  0.7213 -1.0651
 7885SOL     OW24232   0.165   6.961   4.966  0.0174  0.7318 -0.1669
 7885SOL    HW124233   0.244   6.936   5.014  0.0118 -0.1034 -0.5671
 7885SOL    HW224234   0.125   6.877   4.941 -0.1675  1.1358 -1.3068
 7886SOL     OW24235   4.189   3.854   2.299  0.3059 -0.5450 -0.5378
 7886SOL    HW124236   4.255   3.819   2.239  0.7714  0.9087 -0.9237
 7886SOL    HW224237   4.110   3.805   2.278  0.8776 -1.2285 -1.1736
 7887SOL     OW24238   1.902   0.276   9.417  0.4594  0.0551  0.3434
 7887SOL    HW124239   1.855   0.348   9.459  0.7659 -0.0813  0.9300
 7887SOL    HW224240   1.879   0.199   9.468  0.2138 -0.2488 -0.2200
 7888SOL     OW24241   3.457   6.501   3.474 -0.0295 -0.3895 -0.1794
 7888SOL    HW124242   3.426   6.411   3.479  0.3096 -0.5953 -1.5234
 7888SOL    HW224243   3.552   6.494   3.464  0.0309  0.1224 -0.0028
 7889SOL     OW24244   8.775   3.648   8.227  0.1419 -0.1746  0.5642
 7889SOL    HW124245   8.694   3.620   8.184 -0.6112  3.0350 -0.3439
 7889SOL    HW224246   8.751   3.659   8.319 -0.2695  0.1176  0.4244
 7890SOL     OW24247   4.797   3.996   8.617 -0.1348 -0.0822  0.5940
 7890SOL    HW124248   4.862   3.943   8.571 -0.9350 -0.9136  0.3982
 7890SOL    HW224249   4.846   4.072   8.650  0.2974  1.1025 -2.4709
 7891SOL     OW24250   0.849   4.246   3.236 -0.6298  0.3254 -0.1846
 7891SOL    HW124251   0.870   4.228   3.144  0.2865 -1.2262  0.2870
 7891SOL    HW224252   0.783   4.181   3.259  0.6179 -0.6661  0.7747
 7892SOL     OW24253   6.229   8.677   8.985  0.5445  0.6013 -0.2407
 7892SOL    HW124254   6.194   8.761   9.014  1.6872  0.5595  1.3709
 7892SOL    HW224255   6.315   8.671   9.026  0.4820 -1.3792 -0.2946
 7893SOL     OW24256   1.585   3.000   3.714 -0.2629  0.3139  0.1587
 7893SOL    HW124257   1.510   3.013   3.773  0.6807 -0.5887  1.6321
 7893SOL    HW224258   1.629   2.923   3.749 -0.7142 -1.4732 -2.9144
 7894SOL     OW24259   7.505   2.263   7.525  0.0683  0.6852  0.3343
 7894SOL    HW124260   7.470   2.326   7.462  1.0219 -0.4526 -1.4100
 7894SOL    HW224261   7.432   2.202   7.541  0.6066 -0.6879 -1.9662
 7895SOL     OW24262   0.315   7.021   4.600 -0.1196  0.6076 -0.3862
 7895SOL    HW124263   0.329   7.019   4.505  1.4248 -0.7946 -0.1706
 7895SOL    HW224264   0.281   6.935   4.622  0.2942  0.6345  0.4234
 7896SOL     OW24265   1.094   7.639   0.645  0.0896 -0.6336 -0.2687
 7896SOL    HW124266   1.188   7.649   0.631 -0.1667  0.1833 -1.6051
 7896SOL    HW224267   1.086   7.566   0.706  1.6635  0.4612  1.3419
 7897SOL     OW24268   3.899   5.019   1.512  0.3328  0.2680  0.8116
 7897SOL    HW124269   3.932   4.947   1.566 -0.1993 -0.9973 -0.4902
 7897SOL    HW224270   3.804   5.004   1.508  0.4233 -0.0218 -0.9379
 7898SOL     OW24271   5.207   0.713   3.093  0.6702 -0.2554  0.0757
 7898SOL    HW124272   5.276   0.671   3.042  1.8555  0.2324  1.2170
 7898SOL    HW224273   5.177   0.785   3.038  0.9546 -0.5690 -0.4978
 7899SOL     OW24274   9.603   6.925   5.275 -0.4151 -0.0966 -0.7294
 7899SOL    HW124275   9.659   6.896   5.202  1.8697  1.9671  0.0933
 7899SOL    HW224276   9.605   6.851   5.336  2.1656  0.1640 -0.3702
 7900SOL     OW24277   4.985   1.392   7.224  0.0870  0.2129  0.3460
 7900SOL    HW124278   4.998   1.308   7.179  1.9699 -0.4665  2.0189
 7900SOL    HW224279   4.948   1.367   7.309 -0.2087  1.1798  0.5099
 7901SOL     OW24280   3.248   5.925   5.907  0.0044  0.5573  0.3026
 7901SOL    HW124281   3.304   5.974   5.847  1.8286 -0.1093  1.3723
 7901SOL    HW224282   3.291   5.840   5.915 -2.0790 -0.6227 -0.0837
 7902SOL     OW24283   3.886   9.772   1.222 -0.3452 -0.1506  0.0403
 7902SOL    HW124284   3.905   9.684   1.254 -3.7811 -1.2248 -0.4871
 7902SOL    HW224285   3.853   9.760   1.133 -0.1405  1.7708 -0.3472
 7903SOL     OW24286   8.074   6.750   0.927 -0.4539  0.2544 -0.0630
 7903SOL    HW124287   8.141   6.732   0.993  1.3867 -1.7502 -2.2828
 7903SOL    HW224288   8.084   6.843   0.907  0.3490  0.4187  1.0037
 7904SOL     OW24289   6.773   6.737   5.447  0.3130 -0.1220 -0.6486
 7904SOL    HW124290   6.846   6.796   5.467 -1.3755  1.1062  2.6962
 7904SOL    HW224291   6.757   6.690   5.529 -1.9865 -1.1218 -1.5875
 7905SOL     OW24292   3.828   8.999   9.168 -0.1357  0.7548 -0.1033
 7905SOL    HW124293   3.849   8.957   9.252  1.7154  1.2929 -0.2382
 7905SOL    HW224294   3.735   8.984   9.156 -0.6662  1.4402  2.5074
 7906SOL     OW24295   5.963   2.941   3.748 -0.1535 -0.5018  0.3964
 7906SOL    HW124296   5.915   2.874   3.699 -1.0472  0.1992  0.2869
 7906SOL    HW224297   5.970   3.015   3.687 -0.8901  0.2210  1.1672
 7907SOL     OW24298   8.378   2.162   6.399 -0.0794  0.3183 -0.2874
 7907SOL    HW124299   8.347   2.214   6.473  3.6872  2.4082  0.0638
 7907SOL    HW224300   8.385   2.224   6.327  4.2214  0.4873  0.0422
 7908SOL     OW24301   9.813   4.088   9.697  0.0393  0.4468 -0.2876
 7908SOL    HW124302   9.829   4.175   9.661  2.9142  0.5687  0.9585
 7908SOL    HW224303   9.718   4.078   9.697 -0.2758  2.4478 -2.9641
 7909SOL     OW24304   3.324   1.035   6.873  0.1229  0.1919  0.7492
 7909SOL    HW124305   3.396   0.972   6.864 -0.0850  0.0247  0.2230
 7909SOL    HW224306   3.334   1.094   6.798 -0.1853  0.2717  0.7705
 7910SOL     OW24307   8.688   6.971   1.368 -0.9250  0.9182  0.4524
 7910SOL    HW124308   8.667   6.978   1.461  0.2666 -0.1040  0.8344
 7910SOL    HW224309   8.783   6.959   1.366 -0.9990  0.3941 -0.8596
 7911SOL     OW24310   3.703   2.013   9.050  0.3679 -0.7384  0.1145
 7911SOL    HW124311   3.688   1.956   9.126  1.2445 -0.3471  0.5998
 7911SOL    HW224312   3.719   2.099   9.088 -0.2613 -0.3085 -0.5813
 7912SOL     OW24313   5.701   0.086   7.037 -0.4075 -0.0708 -0.5922
 7912SOL    HW124314   5.730   0.153   6.975  0.9516  0.4185  0.5129
 7912SOL    HW224315   5.774   0.078   7.099 -0.7324 -2.2617 -0.4354
 7913SOL     OW24316   4.125   7.442   0.224  0.3174 -0.1473 -0.0157
 7913SOL    HW124317   4.051   7.480   0.270 -0.1513  0.3380 -1.1435
 7913SOL    HW224318   4.186   7.515   0.211  1.8110 -0.8456  2.3530
 7914SOL     OW24319   9.284   4.559   3.193  0.1526  0.2391  0.2071
 7914SOL    HW124320   9.237   4.619   3.135  0.9295  0.4694 -0.2007
 7914SOL    HW224321   9.215   4.510   3.238 -0.4933 -1.3373 -2.3329
 7915SOL     OW24322   6.246   1.097   6.740 -0.1451 -0.1459  0.6395
 7915SOL    HW124323   6.231   1.160   6.810 -1.8304 -0.3296  0.4883
 7915SOL    HW224324   6.279   1.149   6.667  0.8450  0.1670  1.3047
 7916SOL     OW24325   9.459   6.832   0.072  0.3251  0.0299  0.0907
 7916SOL    HW124326   9.513   6.834  -0.007 -0.6365  0.8722 -0.5626
 7916SOL    HW224327   9.507   6.776   0.132  1.8810  0.6628 -0.5094
 7917SOL     OW24328   8.113   4.456   1.388 -0.4482  0.0598 -0.2060
 7917SOL    HW124329   8.026   4.435   1.421 -0.9903  1.7693 -0.4071
 7917SOL    HW224330   8.150   4.515   1.453 -0.1731  0.7450 -0.9542
 7918SOL     OW24331   7.246   7.766   4.148 -0.4274  0.3254 -1.0969
 7918SOL    HW124332   7.172   7.803   4.100  0.2230  0.3221 -2.1266
 7918SOL    HW224333   7.258   7.824   4.223 -0.2837  1.4297 -1.9562
 7919SOL     OW24334   9.247   1.455   0.313 -0.7308  0.3302 -0.2932
 7919SOL    HW124335   9.199   1.389   0.263 -0.9349  0.2171  0.0480
 7919SOL    HW224336   9.215   1.539   0.280 -0.8328  0.2566 -0.3805
 7920SOL     OW24337   6.808   8.792   8.631 -0.6968 -0.2771  0.4084
 7920SOL    HW124338   6.807   8.701   8.603  1.7354 -0.5963  1.1097
 7920SOL    HW224339   6.755   8.838   8.565 -1.7259 -2.1198 -0.1113
 7921SOL     OW24340   2.097   7.556   0.097  0.4848 -0.3232  0.1529
 7921SOL    HW124341   2.106   7.515   0.011 -0.0285  0.1533 -0.1394
 7921SOL    HW224342   2.183   7.594   0.114  0.0417  1.3757 -1.1082
 7922SOL     OW24343   0.254   4.509   3.446  0.0834  0.3598  0.4592
 7922SOL    HW124344   0.256   4.601   3.475 -1.2432  0.5960 -0.1203
 7922SOL    HW224345   0.331   4.500   3.391  1.2818  0.5866  2.0286
 7923SOL     OW24346   2.850   1.455   8.464  0.1271  0.1658 -0.4234
 7923SOL    HW124347   2.896   1.538   8.453  1.1189 -0.3717 -0.4741
 7923SOL    HW224348   2.760   1.473   8.437  0.0409  1.5176  0.6460
 7924SOL     OW24349   2.742   0.131   8.350  0.0178  0.2299 -0.1299
 7924SOL    HW124350   2.683   0.058   8.365 -2.5223  2.7782  4.3790
 7924SOL    HW224351   2.828   0.099   8.377 -0.8950 -1.2483  1.1469
 7925SOL     OW24352   9.741   9.526   7.098  0.2206 -0.1875  0.2056
 7925SOL    HW124353   9.651   9.507   7.071  0.2749 -1.0041  0.5711
 7925SOL    HW224354   9.733   9.601   7.156  0.0261  1.1718 -1.4756
 7926SOL     OW24355   3.168   7.420   1.917 -0.0091  0.3521 -0.3548
 7926SOL    HW124356   3.262   7.411   1.904 -0.2403 -0.7799 -1.4696
 7926SOL    HW224357   3.129   7.359   1.854 -1.5249  1.7279 -0.8239
 7927SOL     OW24358   6.794   8.973   9.323  0.0401 -0.2726 -0.1439
 7927SOL    HW124359   6.848   9.050   9.303 -0.0536  0.1434  1.1321
 7927SOL    HW224360   6.726   8.975   9.255  0.8634 -0.0599 -0.9832
 7928SOL     OW24361   6.267   9.887   7.328 -0.3539  0.4190 -0.0366
 7928SOL    HW124362   6.307   9.824   7.388  0.2197  0.2399 -0.6016
 7928SOL    HW224363   6.290   9.855   7.240 -1.9460  0.1669 -0.3955
 7929SOL     OW24364   7.831   1.054   0.552 -0.0369 -0.0051  1.2900
 7929SOL    HW124365   7.811   1.016   0.467 -2.5079  1.9185  0.8838
 7929SOL    HW224366   7.917   1.094   0.541  1.0105 -2.2729  0.6773
 7930SOL     OW24367   7.609   3.315   3.999  0.0576  0.1385 -0.7646
 7930SOL    HW124368   7.539   3.271   4.047  0.9680 -0.5080 -0.0021
 7930SOL    HW224369   7.587   3.408   4.004 -0.4371 -0.0112 -0.0300
 7931SOL     OW24370   2.008   2.381   2.624  0.4094 -0.4205 -0.3799
 7931SOL    HW124371   1.952   2.457   2.607  1.5819  0.8158  1.0309
 7931SOL    HW224372   2.067   2.410   2.694  0.0397 -3.0769  1.1469
 7932SOL     OW24373   5.034   1.389   0.747  0.2442  0.4606 -0.4600
 7932SOL    HW124374   4.999   1.461   0.694  0.9836 -1.1522 -3.2962
 7932SOL    HW224375   5.128   1.405   0.750  0.1259  1.0413  1.2728
 7933SOL     OW24376   1.144   3.869   6.054 -0.1323 -0.3401 -0.4976
 7933SOL    HW124377   1.162   3.814   5.978  0.2432 -2.2194  0.8855
 7933SOL    HW224378   1.089   3.816   6.110 -1.3443  1.4460  0.0754
 7934SOL     OW24379   9.062   5.587   2.371  0.4160 -0.2340 -0.5732
 7934SOL    HW124380   9.139   5.601   2.426 -0.0675  0.9163 -0.1628
 7934SOL    HW224381   9.040   5.494   2.384  1.3341 -0.4056 -0.1881
 7935SOL     OW24382   4.046   4.454   7.742  0.0033  0.0844  0.3276
 7935SOL    HW124383   4.021   4.530   7.689 -1.0595  0.6414  1.5985
 7935SOL    HW224384   4.115   4.486   7.800 -2.1385  0.8242  2.6078
 7936SOL     OW24385   7.106   4.555   8.394  0.2515 -0.1636  0.1253
 7936SOL    HW124386   7.052   4.617   8.344 -0.7797 -0.5730  0.6934
 7936SOL    HW224387   7.044   4.487   8.422  1.0340 -0.5485  0.9615
 7937SOL     OW24388   3.126   9.682   8.298  0.5715 -0.4591 -0.4507
 7937SOL    HW124389   3.140   9.602   8.247  1.0466 -0.1187 -0.8675
 7937SOL    HW224390   3.086   9.652   8.379 -1.3768 -0.9159 -1.4970
 7938SOL     OW24391   0.121   0.481   4.590  0.3234 -0.1397  0.6815
 7938SOL    HW124392   0.167   0.454   4.669  0.7085  0.4183  0.6544
 7938SOL    HW224393   0.147   0.572   4.577 -1.1490  0.3600  0.9432
 7939SOL     OW24394   8.385   5.400   8.049  0.0709 -0.1461 -0.3246
 7939SOL    HW124395   8.469   5.423   8.088  0.0438  0.7363 -0.7789
 7939SOL    HW224396   8.324   5.465   8.083  0.0285  0.5881 -1.7362
 7940SOL     OW24397   8.180   0.587   2.435  0.5937 -0.0274 -0.4403
 7940SOL    HW124398   8.266   0.577   2.476  0.6222  0.6314 -0.3349
 7940SOL    HW224399   8.198   0.595   2.341  0.5788 -0.7766 -0.5135
 7941SOL     OW24400   3.503   8.885   0.869 -0.5946  1.1325  0.0599
 7941SOL    HW124401   3.447   8.909   0.795 -0.6990  0.5850 -0.0459
 7941SOL    HW224402   3.450   8.904   0.947 -0.2225  2.3712  0.0238
 7942SOL     OW24403   7.792   0.242   6.455 -0.2702 -0.0174  0.0901
 7942SOL    HW124404   7.831   0.302   6.391 -0.6348 -1.1276 -1.2137
 7942SOL    HW224405   7.857   0.173   6.466 -0.4806 -0.1596  0.4410
 7943SOL     OW24406   0.372   4.915   8.602  0.0253  0.1404 -0.2530
 7943SOL    HW124407   0.328   4.999   8.585  0.0175  0.7296  2.2783
 7943SOL    HW224408   0.302   4.850   8.599 -0.0054  0.2022 -1.9980
 7944SOL     OW24409   5.236   5.781   0.230 -0.2519 -0.2217 -0.1843
 7944SOL    HW124410   5.301   5.817   0.170  1.1190  0.0220  1.3822
 7944SOL    HW224411   5.230   5.688   0.207  0.0222 -0.0722 -0.8766
 7945SOL     OW24412   8.757   9.847   1.990 -0.6891 -0.8916 -0.1865
 7945SOL    HW124413   8.785   9.827   2.080 -2.3555 -1.9322  0.1536
 7945SOL    HW224414   8.772   9.766   1.942  1.1799 -0.0216 -1.1505
 7946SOL     OW24415   3.518   2.163   8.650  0.7159 -0.4689  0.5793
 7946SOL    HW124416   3.439   2.173   8.596 -0.5591 -3.5766  1.6250
 7946SOL    HW224417   3.543   2.072   8.638  1.4899 -0.7792  3.7214
 7947SOL     OW24418   4.663   6.281   3.993  0.0854 -0.1428  0.1531
 7947SOL    HW124419   4.711   6.217   4.045 -2.8653 -3.2810 -0.6169
 7947SOL    HW224420   4.679   6.255   3.902 -0.8862  0.4405 -0.2019
 7948SOL     OW24421   6.312   7.907   0.294 -0.3778  0.1779  0.3371
 7948SOL    HW124422   6.349   7.990   0.324 -2.0568  0.6140  1.3095
 7948SOL    HW224423   6.224   7.929   0.264 -0.9439 -1.2817  0.8428
 7949SOL     OW24424   7.681   5.356   6.723 -0.4682  0.0240 -0.1616
 7949SOL    HW124425   7.707   5.443   6.755 -0.3920  0.2847 -0.9200
 7949SOL    HW224426   7.656   5.370   6.632 -0.8396 -0.6843 -0.1753
 7950SOL     OW24427   8.301   8.873   7.729  0.1188 -0.1790  0.4494
 7950SOL    HW124428   8.290   8.966   7.714 -0.7590 -0.4945 -1.1058
 7950SOL    HW224429   8.229   8.849   7.788 -0.4300 -0.0954 -0.1811
 7951SOL     OW24430   3.046   3.766   6.453  0.2669 -0.4064 -0.0398
 7951SOL    HW124431   3.010   3.716   6.380  0.8507 -1.4055  0.3402
 7951SOL    HW224432   2.970   3.789   6.506  0.0751 -1.6925  0.2661
 7952SOL     OW24433   2.322   5.735   0.182  0.3145 -0.2196  0.0583
 7952SOL    HW124434   2.361   5.651   0.155  2.5811  0.8514 -0.2430
 7952SOL    HW224435   2.397   5.794   0.190 -0.9099  1.1243  2.8683
 7953SOL     OW24436   5.257   7.973   2.555 -0.0861 -0.3373 -0.1062
 7953SOL    HW124437   5.214   7.953   2.638  0.2494 -0.1792  0.1050
 7953SOL    HW224438   5.188   7.962   2.490 -0.0873 -1.5036  0.0682
 7954SOL     OW24439   1.845   6.836   4.411 -0.2532  0.0945 -0.0920
 7954SOL    HW124440   1.897   6.775   4.463 -2.4277 -0.5150  1.5305
 7954SOL    HW224441   1.906   6.904   4.386  1.6223 -1.2989  0.4916
 7955SOL     OW24442   9.276   6.373   6.893  0.7674 -0.2125 -0.4060
 7955SOL    HW124443   9.339   6.382   6.822  0.1572 -0.4449 -0.9919
 7955SOL    HW224444   9.228   6.293   6.873  0.6506 -0.3326  0.3236
 7956SOL     OW24445   7.215   6.373   0.317 -0.1514 -0.1189  0.1649
 7956SOL    HW124446   7.224   6.466   0.335  0.8850 -0.1866  0.0984
 7956SOL    HW224447   7.182   6.336   0.399  0.4560  0.1665  0.5445
 7957SOL     OW24448   9.625   7.070   4.055 -0.2725  0.0837 -0.5176
 7957SOL    HW124449   9.715   7.040   4.053 -0.3041 -0.0244 -2.2083
 7957SOL    HW224450   9.631   7.165   4.043 -0.3306  0.3321  1.1921
 7958SOL     OW24451   8.592   2.478   1.784 -0.0128 -0.2447  0.0706
 7958SOL    HW124452   8.596   2.442   1.873  0.5740  0.9278  0.5407
 7958SOL    HW224453   8.500   2.474   1.760 -0.0263 -1.6792  0.2451
 7959SOL     OW24454   3.832   9.156   7.596  0.0277 -0.1719 -0.8669
 7959SOL    HW124455   3.803   9.098   7.667  1.9078 -0.3875 -0.2077
 7959SOL    HW224456   3.859   9.236   7.641 -0.0751  0.2162 -1.4970
 7960SOL     OW24457   5.936   4.755   8.543  0.2186 -0.2487 -0.7175
 7960SOL    HW124458   6.003   4.762   8.476  1.3842  1.4877  0.5500
 7960SOL    HW224459   5.854   4.779   8.498  0.6747 -0.8581 -1.9078
 7961SOL     OW24460   4.388   0.913   8.145  0.1470  1.0607 -0.2096
 7961SOL    HW124461   4.438   0.833   8.131  1.1028  1.5261  0.4355
 7961SOL    HW224462   4.297   0.888   8.127  0.3423 -0.3282  0.6302
 7962SOL     OW24463   2.735   9.390   3.543 -0.5625 -0.2983  0.3230
 7962SOL    HW124464   2.651   9.372   3.500  0.6127  0.7231 -2.6868
 7962SOL    HW224465   2.782   9.306   3.538 -0.6493 -0.3357  0.1133
 7963SOL     OW24466   6.577   6.857   4.486  0.4269 -0.2194 -0.0250
 7963SOL    HW124467   6.531   6.774   4.494 -1.2984  0.5212 -1.4151
 7963SOL    HW224468   6.593   6.885   4.576 -1.6484 -0.6815  0.5547
 7964SOL     OW24469   7.346   8.113   3.272 -0.0080 -0.0268 -0.0288
 7964SOL    HW124470   7.372   8.022   3.259  0.4688  0.1695 -0.5109
 7964SOL    HW224471   7.313   8.116   3.361  2.5913 -0.0980  1.0388
 7965SOL     OW24472   6.360   0.290   1.197  0.0424  0.2451 -0.3360
 7965SOL    HW124473   6.432   0.337   1.155  1.1235  0.1897  1.3245
 7965SOL    HW224474   6.285   0.348   1.189  0.8899  1.4439  0.0117
 7966SOL     OW24475   6.148   9.810   2.168 -0.6246 -0.4307 -0.0466
 7966SOL    HW124476   6.064   9.816   2.124 -1.1790 -0.7738  0.9519
 7966SOL    HW224477   6.191   9.894   2.148 -1.7062  0.2673  0.4406
 7967SOL     OW24478   8.963   1.745   4.241  0.2689 -0.7672 -0.0786
 7967SOL    HW124479   9.028   1.799   4.196 -0.1499 -0.9873 -0.9635
 7967SOL    HW224480   8.901   1.808   4.278  0.8611 -0.5653  0.6041
 7968SOL     OW24481   7.681   2.765   8.324 -0.1073  0.3097 -0.9633
 7968SOL    HW124482   7.665   2.848   8.278 -2.8068  1.0001  1.0029
 7968SOL    HW224483   7.632   2.700   8.274  1.3844 -0.0417 -2.0573
 7969SOL     OW24484   7.452   4.200   3.224  0.0812 -0.1435  0.2505
 7969SOL    HW124485   7.528   4.153   3.259  1.8705  1.5089 -1.2362
 7969SOL    HW224486   7.446   4.279   3.277 -1.4604 -0.8338  1.1892
 7970SOL     OW24487   5.443   2.707   2.309 -0.5682  0.1967 -0.6269
 7970SOL    HW124488   5.442   2.799   2.282 -0.2254  0.8805  1.4793
 7970SOL    HW224489   5.422   2.710   2.402 -0.1150 -1.8355 -0.4265
 7971SOL     OW24490   0.191   2.420   7.388 -0.5692  0.1749 -0.2975
 7971SOL    HW124491   0.153   2.336   7.413  0.4749 -0.3025 -0.2489
 7971SOL    HW224492   0.285   2.401   7.377  0.2309  1.9097  2.4869
 7972SOL     OW24493   1.675   0.484   6.191  0.0031 -0.2013 -0.0412
 7972SOL    HW124494   1.722   0.568   6.190  0.3984 -0.3711  1.5411
 7972SOL    HW224495   1.594   0.501   6.144  0.3833  0.8811 -0.3319
 7973SOL     OW24496   1.787   2.981   7.149 -0.1972 -0.1660 -0.3670
 7973SOL    HW124497   1.856   3.039   7.182 -0.6556  0.5978 -0.7359
 7973SOL    HW224498   1.808   2.896   7.187 -1.3648  0.8748  2.8754
 7974SOL     OW24499   0.229   0.344   7.028  1.0895  0.1312 -0.1899
 7974SOL    HW124500   0.220   0.324   7.122 -4.8566 -0.3002 -0.4713
 7974SOL    HW224501   0.198   0.434   7.020 -2.0106 -0.9394 -1.8781
 7975SOL     OW24502   1.717   8.212   8.210  0.1927 -0.2675 -0.0583
 7975SOL    HW124503   1.747   8.143   8.151  2.0703 -1.9822  2.6449
 7975SOL    HW224504   1.796   8.265   8.227 -0.6882  1.1811 -0.2904
 7976SOL     OW24505   4.740   1.104   5.541  0.4420  0.3418  0.0664
 7976SOL    HW124506   4.675   1.042   5.574 -0.2236  0.4323 -1.0174
 7976SOL    HW224507   4.743   1.087   5.447 -0.7223  2.7801 -0.4974
 7977SOL     OW24508   7.058   4.873   3.492  0.0887 -0.0928  1.2884
 7977SOL    HW124509   7.110   4.876   3.572  0.5356  2.4370  0.9746
 7977SOL    HW224510   7.042   4.964   3.470  0.1987 -0.6722 -1.6556
 7978SOL     OW24511   3.834   3.578   3.061  0.3892  0.1351  0.3593
 7978SOL    HW124512   3.815   3.668   3.034  0.1865 -0.3552 -1.2555
 7978SOL    HW224513   3.753   3.548   3.102  0.0274  0.3060 -0.2129
 7979SOL     OW24514   8.641   8.172   7.896 -0.4168  1.0105  0.4119
 7979SOL    HW124515   8.588   8.237   7.850 -1.0849  0.0848 -0.1609
 7979SOL    HW224516   8.652   8.207   7.984 -1.9669  1.2294  0.5315
 7980SOL     OW24517   7.663   1.743   6.084  0.3599 -0.0522 -0.0671
 7980SOL    HW124518   7.728   1.707   6.025 -2.4659 -2.1499 -2.1790
 7980SOL    HW224519   7.656   1.835   6.060  2.6022  0.3021  0.4125
 7981SOL     OW24520   9.721   0.770   3.084  0.0735  0.1217  0.4593
 7981SOL    HW124521   9.762   0.798   3.002  2.0873 -2.9664  0.2457
 7981SOL    HW224522   9.630   0.797   3.075 -0.3320 -1.6992 -3.8035
 7982SOL     OW24523   6.442   5.394   9.768 -0.6289 -0.0924  0.0730
 7982SOL    HW124524   6.460   5.336   9.694 -0.4750  0.7491 -0.5680
 7982SOL    HW224525   6.465   5.342   9.845  1.8170 -0.0689 -0.5664
 7983SOL     OW24526   6.320   4.885   6.487 -0.0094  0.3470  0.0342
 7983SOL    HW124527   6.363   4.971   6.478  0.7581 -0.0454 -0.0961
 7983SOL    HW224528   6.322   4.848   6.399  1.2675 -0.5533  0.4179
 7984SOL     OW24529   0.817   7.698   1.500  0.3106  0.4681  0.5745
 7984SOL    HW124530   0.863   7.779   1.520  0.4891  1.3898 -2.8079
 7984SOL    HW224531   0.747   7.725   1.440  0.1401 -1.7979 -0.3760
 7985SOL     OW24532   9.347   6.088   5.732 -0.0381  0.0920 -0.3832
 7985SOL    HW124533   9.349   6.138   5.650  0.1763 -0.2278 -0.5778
 7985SOL    HW224534   9.356   5.997   5.704  0.4300  0.0115  0.0288
 7986SOL     OW24535   7.391   6.565   0.440 -0.2702  0.1552 -0.2809
 7986SOL    HW124536   7.420   6.627   0.373  0.4583 -0.2357 -0.3290
 7986SOL    HW224537   7.327   6.615   0.491 -0.1634  0.7488 -0.7070
 7987SOL     OW24538   1.374   4.597   1.672  0.0938  0.0255 -0.8521
 7987SOL    HW124539   1.468   4.586   1.687  0.0899  0.9152 -0.1130
 7987SOL    HW224540   1.366   4.680   1.625 -0.3309 -0.0174 -0.8656
 7988SOL     OW24541   8.700   6.625   8.154 -0.4497 -0.6472 -0.0161
 7988SOL    HW124542   8.769   6.652   8.094 -1.3192 -0.6549 -1.0422
 7988SOL    HW224543   8.716   6.532   8.170  0.7398 -0.2745  1.0808
 7989SOL     OW24544   1.668   3.964   4.718 -0.4199 -0.0080 -0.2484
 7989SOL    HW124545   1.697   3.878   4.689  1.6435 -0.0037  1.5907
 7989SOL    HW224546   1.697   4.024   4.650  0.7816 -0.4367 -0.1263
 7990SOL     OW24547   9.002   0.821   9.718  0.2944  0.3412 -0.2939
 7990SOL    HW124548   9.094   0.827   9.741  0.5694  0.3793 -1.3640
 7990SOL    HW224549   8.981   0.728   9.724  0.8408  0.1157 -1.6476
 7991SOL     OW24550   1.000   3.211   0.567  0.0542  0.2834 -0.3523
 7991SOL    HW124551   0.930   3.147   0.562 -0.1062  0.5460 -2.0820
 7991SOL    HW224552   1.080   3.159   0.579 -0.1730 -0.1837 -0.8326
 7992SOL     OW24553   6.753   9.726   1.995  0.4973 -0.8021  0.2059
 7992SOL    HW124554   6.740   9.785   1.921  2.1087 -1.9884 -1.0879
 7992SOL    HW224555   6.848   9.727   2.010  0.4901 -2.5777  0.5407
 7993SOL     OW24556   5.291   4.059   6.699  0.3918 -0.2935  0.1876
 7993SOL    HW124557   5.235   4.038   6.625  2.0426 -0.3806 -1.0817
 7993SOL    HW224558   5.230   4.073   6.772 -1.1678 -2.2419 -0.6533
 7994SOL     OW24559   8.994   5.376   0.196 -0.0897 -0.0952  0.4339
 7994SOL    HW124560   8.906   5.368   0.232  0.3224  1.1842  1.8158
 7994SOL    HW224561   8.999   5.465   0.163  0.4226 -0.4229 -0.4184
 7995SOL     OW24562   0.358   3.021   8.949 -0.0129  0.2521 -0.3015
 7995SOL    HW124563   0.282   2.979   8.908 -0.5136  0.8364  0.0018
 7995SOL    HW224564   0.401   3.068   8.877 -0.8857  1.2709 -0.1918
 7996SOL     OW24565   2.371   6.391   4.876  0.5131  0.5233  0.2517
 7996SOL    HW124566   2.336   6.418   4.961 -1.1574  0.5900 -0.4101
 7996SOL    HW224567   2.435   6.323   4.897  0.2425  0.6442  1.5701
 7997SOL     OW24568   6.472   3.021   8.921  0.2322 -0.2590  0.2294
 7997SOL    HW124569   6.439   3.110   8.932 -2.0430 -1.0296  0.0804
 7997SOL    HW224570   6.410   2.980   8.861 -1.9766 -3.5112  4.2728
 7998SOL     OW24571   9.795   4.009   8.980 -0.3017 -0.6573 -0.1131
 7998SOL    HW124572   9.706   4.044   8.980  0.5696  1.7320  0.0942
 7998SOL    HW224573   9.819   4.002   8.888 -0.1016  0.4540 -0.1613
 7999SOL     OW24574   0.526   7.384   5.416 -0.3303  0.5326  0.1722
 7999SOL    HW124575   0.507   7.420   5.329 -2.0346  1.9703  1.0608
 7999SOL    HW224576   0.539   7.462   5.471  0.8739 -0.3577  1.1885
 8000SOL     OW24577   2.910   9.894   4.709 -0.0576  0.2105 -0.0831
 8000SOL    HW124578   2.952   9.937   4.635 -0.2633 -1.0409 -0.9566
 8000SOL    HW224579   2.823   9.869   4.676  0.0591 -0.8684  0.3822
 8001SOL     OW24580   1.813   6.404   0.094  0.2411 -0.4857 -0.3061
 8001SOL    HW124581   1.837   6.397   0.187  0.9133 -1.5921 -0.5371
 8001SOL    HW224582   1.766   6.322   0.076  0.2801 -0.3597 -0.9939
 8002SOL     OW24583   8.585   8.613   6.884 -0.1229 -0.2620 -0.3051
 8002SOL    HW124584   8.492   8.607   6.905 -0.5229  2.3650 -1.0523
 8002SOL    HW224585   8.587   8.617   6.788  0.6378  0.9119 -0.2555
 8003SOL     OW24586   7.593   7.176   2.683  0.2169  0.3913  0.2272
 8003SOL    HW124587   7.546   7.217   2.611  0.3195 -0.1768 -0.1647
 8003SOL    HW224588   7.526   7.157   2.748  0.1184  0.8654  0.2717
 8004SOL     OW24589   2.773   9.479   4.273 -0.1377 -0.3589 -0.1424
 8004SOL    HW124590   2.824   9.523   4.204  1.3571  0.8870  1.6374
 8004SOL    HW224591   2.687   9.521   4.270  0.0266 -0.0699 -1.0146
 8005SOL     OW24592   1.176   7.600   2.956 -0.6670  0.2484 -0.7004
 8005SOL    HW124593   1.146   7.530   2.898 -0.2885 -0.6759  0.1963
 8005SOL    HW224594   1.254   7.636   2.913 -0.8760  0.1452 -1.1726
 8006SOL     OW24595   7.667   5.470   8.602 -0.4815  0.0417 -0.2561
 8006SOL    HW124596   7.655   5.404   8.534 -1.0100  0.1871 -0.3111
 8006SOL    HW224597   7.745   5.443   8.650 -2.2077 -2.1599  1.5090
 8007SOL     OW24598   1.304   5.180   1.479  0.0992  0.1200  1.0516
 8007SOL    HW124599   1.277   5.229   1.401 -1.8490 -0.8154  1.0792
 8007SOL    HW224600   1.361   5.111   1.446 -0.4109 -0.0426  0.4924
 8008SOL     OW24601   2.130   6.277   0.022  0.1535 -0.3550 -0.1265
 8008SOL    HW124602   2.101   6.234   0.103  0.0361 -0.1284 -0.0485
 8008SOL    HW224603   2.068   6.245  -0.045  0.1066 -0.3583 -0.0820
 8009SOL     OW24604   6.403   3.063   4.984  0.1335 -0.6138 -0.4877
 8009SOL    HW124605   6.368   3.127   5.045  0.9329 -2.2577  1.8191
 8009SOL    HW224606   6.485   3.102   4.952  1.3165 -0.9307  1.9169
 8010SOL     OW24607   5.415   7.285   6.452 -0.4888  0.3669  0.2129
 8010SOL    HW124608   5.403   7.362   6.397 -1.4502  1.1432  1.4728
 8010SOL    HW224609   5.366   7.216   6.407  1.4923  0.0685 -1.6427
 8011SOL     OW24610   5.746   5.237   6.317 -0.5092  0.4681 -0.3067
 8011SOL    HW124611   5.688   5.179   6.268  0.5845 -0.4784 -0.5113
 8011SOL    HW224612   5.687   5.295   6.365 -1.6187 -0.4592 -0.5222
 8012SOL     OW24613   2.140   9.971   0.862  0.1164 -0.0371  0.0857
 8012SOL    HW124614   2.202  10.037   0.891  0.7953 -0.3334 -0.6677
 8012SOL    HW224615   2.142   9.904   0.931 -1.0066  0.9650  1.1440
 8013SOL     OW24616   7.540   0.560   8.638 -0.6256  0.1076 -0.3606
 8013SOL    HW124617   7.555   0.525   8.726 -0.4192 -1.0703 -0.8352
 8013SOL    HW224618   7.627   0.583   8.606 -0.7321  0.8134 -0.1554
 8014SOL     OW24619   4.873   7.945   7.472 -0.3706  0.4364 -0.4241
 8014SOL    HW124620   4.935   7.871   7.468 -0.6823  0.0810  0.8831
 8014SOL    HW224621   4.810   7.926   7.402  0.1266  0.0105 -0.7765
 8015SOL     OW24622   1.567   9.895   1.892  0.4043 -0.3249 -0.4868
 8015SOL    HW124623   1.479   9.921   1.918  0.5901 -0.9984  0.8922
 8015SOL    HW224624   1.622   9.915   1.967  1.1767 -1.2576 -0.7740
 8016SOL     OW24625   3.957   3.462   5.643  0.1238 -0.2809  0.0592
 8016SOL    HW124626   3.881   3.403   5.649 -0.0160 -0.0804  0.2655
 8016SOL    HW224627   4.032   3.403   5.636 -0.0264 -0.4854  0.1532
 8017SOL     OW24628   4.712   2.049   7.594 -0.1653  0.1038 -0.1256
 8017SOL    HW124629   4.641   2.091   7.642 -0.4556 -0.1929 -0.2914
 8017SOL    HW224630   4.695   1.955   7.601 -0.1884  0.0551 -0.7652
 8018SOL     OW24631   6.742   4.299   8.675 -0.0542  0.0898 -0.0354
 8018SOL    HW124632   6.690   4.330   8.749 -0.1904 -1.1273  0.3941
 8018SOL    HW224633   6.684   4.241   8.627  0.4056 -0.0519 -0.4328
 8019SOL     OW24634   1.276   7.883   0.481  0.0383 -0.6053 -0.3521
 8019SOL    HW124635   1.283   7.916   0.570 -0.7223 -4.1486  1.1939
 8019SOL    HW224636   1.366   7.858   0.457  0.0920 -0.5786 -0.1794
 8020SOL     OW24637   3.659   0.656   9.512 -0.3013  0.3929  0.0412
 8020SOL    HW124638   3.583   0.695   9.556 -0.4843 -0.5841  0.6435
 8020SOL    HW224639   3.701   0.604   9.580 -0.2815 -0.7276 -0.7999
 8021SOL     OW24640   4.293   7.130   9.381  0.3426 -0.0005  0.3548
 8021SOL    HW124641   4.311   7.054   9.436  0.2674  0.6391  1.2837
 8021SOL    HW224642   4.290   7.095   9.292  1.0427 -0.9611  0.6929
 8022SOL     OW24643   0.143   5.329   2.592  0.3717  0.0514 -0.1556
 8022SOL    HW124644   0.145   5.384   2.513  0.5710  1.0687  0.5358
 8022SOL    HW224645   0.236   5.312   2.610  0.3376  0.0530  0.0161
 8023SOL     OW24646   4.615   8.513   6.118  0.2654 -0.2280 -0.0291
 8023SOL    HW124647   4.672   8.438   6.099 -1.5062 -1.3791 -1.0693
 8023SOL    HW224648   4.668   8.590   6.096  1.1622 -1.2802 -1.7353
 8024SOL     OW24649   5.460   7.552   0.096 -0.2410  0.1202  0.6394
 8024SOL    HW124650   5.421   7.626   0.142 -1.3710  0.3821 -0.6579
 8024SOL    HW224651   5.417   7.552   0.010  2.3666  0.2197 -0.7948
 8025SOL     OW24652   9.710   9.336   0.500 -0.3388  0.4249  0.6156
 8025SOL    HW124653   9.652   9.389   0.446 -0.6949  0.9134  1.4641
 8025SOL    HW224654   9.779   9.396   0.528  1.1720 -0.3688 -1.1830
 8026SOL     OW24655   2.277   3.570   9.624 -0.0228 -0.0060  0.2219
 8026SOL    HW124656   2.273   3.519   9.543 -0.6973 -1.8419  1.3630
 8026SOL    HW224657   2.248   3.510   9.692  2.0645  0.9858  2.0965
 8027SOL     OW24658   1.866   0.512   5.650  0.7171 -0.3996  0.6010
 8027SOL    HW124659   1.842   0.593   5.694 -1.9141  0.1055 -1.4875
 8027SOL    HW224660   1.957   0.525   5.623  0.2228  2.1247 -0.1133
 8028SOL     OW24661   2.577   8.016   1.344  0.6058 -0.6580  0.1048
 8028SOL    HW124662   2.666   7.988   1.320  0.7484 -0.0708 -0.0756
 8028SOL    HW224663   2.588   8.056   1.431  0.9303  1.3665 -0.8047
 8029SOL     OW24664   8.237   7.223   6.403 -0.1271 -0.2104  0.4666
 8029SOL    HW124665   8.227   7.316   6.384  1.3280  0.4710  2.6645
 8029SOL    HW224666   8.199   7.211   6.490  0.3695 -1.4959  0.5353
 8030SOL     OW24667   3.146   6.279   1.584 -0.0092  0.4869  0.3199
 8030SOL    HW124668   3.239   6.299   1.578  0.2713 -0.0969  2.1552
 8030SOL    HW224669   3.105   6.338   1.520  1.5849  0.8163 -0.4540
 8031SOL     OW24670   6.794   5.936   4.803  0.7647 -0.1208  0.7835
 8031SOL    HW124671   6.739   5.857   4.801  1.0746 -0.3354  0.6199
 8031SOL    HW224672   6.790   5.965   4.893 -1.4147  1.1486  0.3509
 8032SOL     OW24673   4.607   2.418   6.512 -0.1626 -0.0396  0.5567
 8032SOL    HW124674   4.553   2.353   6.468  1.9323 -0.0819 -2.2974
 8032SOL    HW224675   4.662   2.368   6.572 -0.5306 -0.5161  0.5007
 8033SOL     OW24676   8.593   9.121   2.314 -0.0713 -0.2117  0.7594
 8033SOL    HW124677   8.638   9.154   2.236 -0.5984 -1.3029 -0.0411
 8033SOL    HW224678   8.653   9.139   2.386  0.7430  0.1802  0.0052
 8034SOL     OW24679   1.563   2.093   5.599  0.1858  0.0607 -0.5453
 8034SOL    HW124680   1.635   2.045   5.558 -0.2728 -1.4751  0.3607
 8034SOL    HW224681   1.484   2.057   5.557 -0.1922 -0.3703  0.5030
 8035SOL     OW24682   4.396   9.893   5.795  0.1194  0.5746 -0.1010
 8035SOL    HW124683   4.390   9.911   5.889 -1.9502  1.3400 -0.3279
 8035SOL    HW224684   4.437   9.807   5.790  1.1059  0.9101  1.4477
 8036SOL     OW24685   3.577   1.923   8.539 -0.0247 -0.0453 -0.0006
 8036SOL    HW124686   3.618   1.865   8.475  1.2442  1.3199 -0.4705
 8036SOL    HW224687   3.513   1.867   8.584  0.3684 -1.5062 -1.1754
 8037SOL     OW24688   0.211   1.304   9.785 -0.4282 -0.1278  0.5283
 8037SOL    HW124689   0.218   1.209   9.796  1.9384 -0.3377 -1.6587
 8037SOL    HW224690   0.125   1.317   9.745 -0.7226 -1.3666  0.7061
 8038SOL     OW24691   3.723   8.826   3.693  0.2022 -0.1811 -0.5587
 8038SOL    HW124692   3.777   8.842   3.770 -0.4015 -0.6275 -0.0221
 8038SOL    HW224693   3.637   8.803   3.729  0.5277 -2.8723 -1.2559
 8039SOL     OW24694   3.318   2.433   5.781 -0.2210  0.6338  0.2639
 8039SOL    HW124695   3.394   2.381   5.808 -0.7192 -0.1114  0.2899
 8039SOL    HW224696   3.273   2.454   5.863 -0.4278  0.4429  0.2028
 8040SOL     OW24697   2.594   3.452   1.645  0.2187 -0.8207  0.3790
 8040SOL    HW124698   2.521   3.505   1.677 -0.2901 -0.8044 -0.7593
 8040SOL    HW224699   2.659   3.515   1.616  0.1732 -0.8249  0.2673
 8041SOL     OW24700   3.170   4.557   2.682 -0.2158 -0.1266  0.0226
 8041SOL    HW124701   3.265   4.554   2.695 -0.2003  1.9091  0.7463
 8041SOL    HW224702   3.149   4.651   2.677 -2.0144 -0.5578 -1.6226
 8042SOL     OW24703   3.193   2.033   2.681  0.4360 -0.4431  0.1224
 8042SOL    HW124704   3.152   2.055   2.598  1.4964 -1.2002 -0.6303
 8042SOL    HW224705   3.135   2.070   2.747 -0.2800  0.4212 -0.9552
 8043SOL     OW24706   3.525   2.103   3.609 -0.2860  0.7255 -0.4985
 8043SOL    HW124707   3.500   2.165   3.541 -1.1629  0.6589 -0.2531
 8043SOL    HW224708   3.618   2.119   3.624 -0.0312  0.6310 -1.8267
 8044SOL     OW24709   0.611   0.530   5.592  0.9893 -0.2106 -0.4665
 8044SOL    HW124710   0.572   0.552   5.508 -0.2522  1.2243  0.4300
 8044SOL    HW224711   0.645   0.613   5.625 -0.6034 -0.2511  1.4477
 8045SOL     OW24712   8.745   9.299   3.737  0.1619 -0.2353 -0.2283
 8045SOL    HW124713   8.724   9.302   3.831  2.5454 -1.4626  0.4330
 8045SOL    HW224714   8.670   9.257   3.696  0.0188 -1.7797  1.4984
 8046SOL     OW24715   6.139   6.588   4.670  0.3225 -0.1672  0.0504
 8046SOL    HW124716   6.067   6.651   4.679  1.0154  0.3633  3.3958
 8046SOL    HW224717   6.097   6.507   4.641 -1.1721  0.8575 -0.7628
 8047SOL     OW24718   2.504   3.732   4.455 -0.1531 -0.1425 -0.0593
 8047SOL    HW124719   2.568   3.662   4.446 -0.5657 -0.6694  0.9772
 8047SOL    HW224720   2.438   3.698   4.515 -0.4043  1.1003  0.4147
 8048SOL     OW24721   4.003   5.267   1.485 -0.3020 -0.2059 -0.4375
 8048SOL    HW124722   4.095   5.248   1.505  0.1279 -0.0078 -2.0945
 8048SOL    HW224723   3.960   5.181   1.487  0.2460 -0.5037 -1.2178
 8049SOL     OW24724   0.204   9.691   8.843 -0.1455 -0.1636 -0.0535
 8049SOL    HW124725   0.251   9.773   8.824  0.5995 -0.6875 -0.5155
 8049SOL    HW224726   0.170   9.703   8.932  1.8268 -0.1905  0.7675
 8050SOL     OW24727   1.832   3.671   2.600 -0.3648 -0.9208  0.1005
 8050SOL    HW124728   1.821   3.607   2.670 -0.9925 -1.3492 -0.3729
 8050SOL    HW224729   1.750   3.666   2.550 -1.6191  2.1309  1.5625
 8051SOL     OW24730   5.001   1.840   3.686 -0.1826  0.4475  0.7225
 8051SOL    HW124731   4.958   1.802   3.610 -1.5427  1.8310  0.7523
 8051SOL    HW224732   5.019   1.766   3.744  1.2367 -0.6966 -1.0685
 8052SOL     OW24733   1.082   7.641   1.832 -0.1531 -1.1683  0.6262
 8052SOL    HW124734   1.019   7.705   1.864 -0.4828 -0.5431 -1.1907
 8052SOL    HW224735   1.150   7.693   1.788  1.1995 -1.8904  1.7530
 8053SOL     OW24736   8.719   0.027   3.663 -0.2034 -0.0777 -0.1086
 8053SOL    HW124737   8.751   0.103   3.614  0.5491 -0.5764 -0.4131
 8053SOL    HW224738   8.688  -0.033   3.595 -1.4452  0.2229  0.1613
 8054SOL     OW24739   6.004   2.016   8.906 -0.5143 -0.3172  0.0378
 8054SOL    HW124740   5.986   1.927   8.936 -0.2962 -0.2603  0.3466
 8054SOL    HW224741   5.983   2.015   8.813 -1.4238 -0.4403  0.2386
 8055SOL     OW24742   8.780   5.913   9.201 -0.0315  0.2713  0.0437
 8055SOL    HW124743   8.779   5.857   9.279 -0.9473 -0.0352 -0.1718
 8055SOL    HW224744   8.817   5.996   9.232 -0.3198  0.1334  0.7900
 8056SOL     OW24745   4.130   8.394   6.199  1.1272  0.1428  0.0906
 8056SOL    HW124746   4.198   8.462   6.200  0.8912  0.3847 -0.2527
 8056SOL    HW224747   4.093   8.398   6.111  0.0062  0.6612  0.5715
 8057SOL     OW24748   7.171   7.233   4.175 -0.4263  0.0259 -0.1905
 8057SOL    HW124749   7.189   7.179   4.252 -2.0206 -0.7912 -0.3568
 8057SOL    HW224750   7.255   7.275   4.156  0.7354 -1.9391  0.2765
 8058SOL     OW24751   7.802   8.759   0.643 -0.1340  0.1608 -0.0285
 8058SOL    HW124752   7.783   8.732   0.733  0.6322 -0.2511  0.0208
 8058SOL    HW224753   7.868   8.828   0.654  0.7566 -0.6311 -0.3100
 8059SOL     OW24754   2.622   9.279   3.079  0.0951  0.7556  0.4079
 8059SOL    HW124755   2.579   9.278   3.164 -2.6624 -0.8663 -0.8702
 8059SOL    HW224756   2.636   9.187   3.057  1.9556  1.1697 -0.3962
 8060SOL     OW24757   9.437   3.675   4.504 -0.2286  0.0174  0.5293
 8060SOL    HW124758   9.443   3.653   4.597 -0.0884  0.3400  0.5972
 8060SOL    HW224759   9.384   3.755   4.501  1.0146  0.8711  0.4618
 8061SOL     OW24760   4.237   0.753   7.597 -0.0879  0.2708  0.8735
 8061SOL    HW124761   4.261   0.673   7.549 -1.2104 -0.9859  2.2765
 8061SOL    HW224762   4.142   0.759   7.586 -0.0881  1.0743  1.2812
 8062SOL     OW24763   2.241   1.889   6.880  0.3538  0.1400  0.3406
 8062SOL    HW124764   2.323   1.933   6.901  0.6202 -0.3957  0.4635
 8062SOL    HW224765   2.245   1.806   6.928  0.7625 -0.8983 -1.3753
 8063SOL     OW24766   4.715   4.099   4.179 -0.1814  0.2089 -0.5608
 8063SOL    HW124767   4.720   4.004   4.188  1.7032  0.3002 -0.1022
 8063SOL    HW224768   4.759   4.117   4.096 -0.5230  0.6685 -0.6425
 8064SOL     OW24769   6.710   7.727   8.303 -0.0123 -0.3358  0.1156
 8064SOL    HW124770   6.640   7.706   8.366  0.6850  0.3265  1.1410
 8064SOL    HW224771   6.709   7.822   8.297  0.3931 -0.3562 -0.3495
 8065SOL     OW24772   1.563   7.335   7.366  0.2318 -0.6906  0.0473
 8065SOL    HW124773   1.589   7.298   7.451 -0.2214 -2.3641 -0.4901
 8065SOL    HW224774   1.627   7.300   7.304  0.0872 -0.1346 -0.4248
 8066SOL     OW24775   8.282   1.699   6.837  0.4439  0.4109  0.6276
 8066SOL    HW124776   8.283   1.648   6.919  4.9606 -1.3712 -0.2260
 8066SOL    HW224777   8.289   1.790   6.866  0.5094 -0.0746  2.2599
 8067SOL     OW24778   8.238   4.429   9.347  0.6164  0.2655  0.0374
 8067SOL    HW124779   8.213   4.397   9.433  2.7009  0.6224  0.8310
 8067SOL    HW224780   8.175   4.498   9.327 -1.4599 -1.5021  0.0888
 8068SOL     OW24781   2.182   1.531   9.547  0.2917 -0.0368  0.0098
 8068SOL    HW124782   2.116   1.536   9.477  0.8467  0.6338 -0.4781
 8068SOL    HW224783   2.131   1.527   9.627 -0.3648  1.1921 -0.3147
 8069SOL     OW24784   1.697   7.855   8.947 -0.0103  0.4153  0.3727
 8069SOL    HW124785   1.762   7.842   8.878  1.2175  2.9433  0.9283
 8069SOL    HW224786   1.724   7.935   8.991 -2.6027  0.6808  1.7113
 8070SOL     OW24787   9.184   4.138   8.899 -0.0073  0.2446 -0.0831
 8070SOL    HW124788   9.186   4.123   8.993 -0.6789 -0.7233 -0.2078
 8070SOL    HW224789   9.258   4.196   8.882  0.3723  0.0813  0.9724
 8071SOL     OW24790   5.338   6.006   0.565 -0.0488  0.2015  0.4753
 8071SOL    HW124791   5.326   5.985   0.658  2.7280 -1.8755  0.4806
 8071SOL    HW224792   5.420   6.055   0.561  0.2458 -0.3366 -0.9087
 8072SOL     OW24793   9.283   5.353   8.286  0.5569 -0.2152 -0.0197
 8072SOL    HW124794   9.247   5.331   8.372  0.3203  0.5356  0.0873
 8072SOL    HW224795   9.341   5.280   8.264  1.3758  0.0251  1.2176
 8073SOL     OW24796   7.907   7.533   2.911 -0.2131 -0.0784  0.0538
 8073SOL    HW124797   7.814   7.555   2.912 -0.1832  0.0240  0.4603
 8073SOL    HW224798   7.913   7.459   2.850 -0.4888  0.2202 -0.3448
 8074SOL     OW24799   9.649   1.524   8.111  0.0945  0.3058 -0.2770
 8074SOL    HW124800   9.668   1.588   8.042 -0.3311 -0.5011 -1.1818
 8074SOL    HW224801   9.725   1.466   8.111  0.3733  0.6655  0.3769
 8075SOL     OW24802   7.703   4.483   3.921 -0.1807  1.1629  0.0318
 8075SOL    HW124803   7.673   4.558   3.870  1.0568  0.5262 -1.6948
 8075SOL    HW224804   7.781   4.515   3.967 -0.2499  1.2254  0.1061
 8076SOL     OW24805   6.878   8.274   0.660  0.2898  0.0585 -0.6339
 8076SOL    HW124806   6.790   8.310   0.672  0.1231  0.1954 -2.1031
 8076SOL    HW224807   6.928   8.346   0.621  1.6558  0.6742  2.0232
 8077SOL     OW24808   9.761   9.704   9.484 -0.2321 -0.4121 -0.2350
 8077SOL    HW124809   9.697   9.721   9.414 -1.3113  0.1357  0.8425
 8077SOL    HW224810   9.710   9.658   9.551  0.3565  0.5456  0.8956
 8078SOL     OW24811   8.525   6.515   3.632 -0.2085 -0.1832 -0.3505
 8078SOL    HW124812   8.538   6.480   3.544  3.1422 -1.6707  0.5864
 8078SOL    HW224813   8.531   6.610   3.621  0.7952 -0.3701 -1.6732
 8079SOL     OW24814   7.848   7.160   8.890  0.2705 -0.0336  0.1248
 8079SOL    HW124815   7.922   7.105   8.863  0.6769 -0.1199  1.3500
 8079SOL    HW224816   7.813   7.117   8.968 -0.1609  0.7994  0.3998
 8080SOL     OW24817   4.942   2.148   3.893  0.0330 -0.6425  0.0066
 8080SOL    HW124818   5.003   2.076   3.910  0.3695 -0.2536  0.4465
 8080SOL    HW224819   4.890   2.117   3.819  0.4486 -1.1692 -0.0746
 8081SOL     OW24820   6.618   5.330   4.887  0.4676  0.0034  0.3777
 8081SOL    HW124821   6.540   5.383   4.906 -0.7868 -1.4502 -0.5331
 8081SOL    HW224822   6.585   5.256   4.837  2.7284  0.3186 -1.7272
 8082SOL     OW24823   0.361   0.113   4.134 -0.4427  0.2980 -0.1677
 8082SOL    HW124824   0.384   0.098   4.226  0.7385 -1.4132 -0.6830
 8082SOL    HW224825   0.312   0.195   4.134  0.4609  0.8970  1.8517
 8083SOL     OW24826   8.965   1.912   4.835  0.2102  0.8716 -0.5344
 8083SOL    HW124827   8.903   1.942   4.902  1.1635  0.5741  0.5076
 8083SOL    HW224828   8.942   1.962   4.757 -0.5583  1.6571  0.1711
 8084SOL     OW24829   5.192   2.837   5.161 -0.4901  0.5292  0.4964
 8084SOL    HW124830   5.099   2.840   5.138 -0.2294  2.3518 -0.4567
 8084SOL    HW224831   5.195   2.783   5.240 -2.1256 -1.0710 -0.4436
 8085SOL     OW24832   8.935   0.141   7.693  0.5477 -0.0879  0.3204
 8085SOL    HW124833   8.876   0.163   7.621 -0.2146  1.0076  1.2350
 8085SOL    HW224834   8.986   0.067   7.660 -0.3160 -0.1271 -1.0449
 8086SOL     OW24835   0.689   8.654   2.876 -0.3486  0.4534  0.2834
 8086SOL    HW124836   0.663   8.563   2.892  0.0302  0.1978 -0.5330
 8086SOL    HW224837   0.770   8.648   2.826  0.1865  1.2511  1.0332
 8087SOL     OW24838   7.170   5.922   9.877 -0.4792 -0.6708 -0.3159
 8087SOL    HW124839   7.089   5.974   9.873 -0.2822 -0.3164  0.1609
 8087SOL    HW224840   7.162   5.860   9.805 -1.3186 -0.8459 -0.0871
 8088SOL     OW24841   8.286   0.355   9.295  0.2393 -0.1831  0.1676
 8088SOL    HW124842   8.205   0.373   9.247  0.2706 -0.0018  0.1828
 8088SOL    HW224843   8.337   0.436   9.288  1.0251 -0.7639 -1.0247
 8089SOL     OW24844   9.708   6.368   1.291 -0.0971  0.1568  0.7295
 8089SOL    HW124845   9.618   6.336   1.295 -0.2502  0.2254 -1.3391
 8089SOL    HW224846   9.699   6.462   1.274  0.3598  0.0542 -0.1114
 8090SOL     OW24847   3.096   7.887   1.918 -0.0034 -0.2805 -0.0623
 8090SOL    HW124848   3.127   7.852   2.002 -2.2029  0.0202  0.9330
 8090SOL    HW224849   3.088   7.810   1.862 -1.0501 -0.8763  0.8670
 8091SOL     OW24850   0.051   7.113   2.755 -0.4079 -0.2797 -0.0034
 8091SOL    HW124851   0.090   7.066   2.829  0.9478 -0.6142 -0.8869
 8091SOL    HW224852   0.117   7.179   2.732 -0.6227 -0.4569 -1.1653
 8092SOL     OW24853   5.577   8.406   9.233  0.0849  0.4103  0.5366
 8092SOL    HW124854   5.668   8.379   9.245 -0.2929 -0.2812  1.9679
 8092SOL    HW224855   5.568   8.486   9.285 -0.3640 -0.0388  1.1609
 8093SOL     OW24856   9.817   9.297   9.783  0.1091 -0.0328 -0.0874
 8093SOL    HW124857   9.886   9.231   9.791 -0.1201 -0.1951  0.6182
 8093SOL    HW224858   9.816   9.319   9.690 -0.2380 -1.4855 -0.4502
 8094SOL     OW24859   7.432   2.207   0.073 -0.7006 -0.3269 -0.0331
 8094SOL    HW124860   7.432   2.156   0.154 -1.1077  0.7597  0.6773
 8094SOL    HW224861   7.486   2.283   0.093 -1.3490  0.2785 -0.5530
 8095SOL     OW24862   8.788   6.020   6.438  0.0823  0.0604 -0.0798
 8095SOL    HW124863   8.744   5.935   6.435  0.8678 -0.4045  0.7238
 8095SOL    HW224864   8.832   6.020   6.524  0.1749  1.2346 -0.1184
 8096SOL     OW24865   7.670   7.635   5.361  0.3483  0.0787 -0.6576
 8096SOL    HW124866   7.747   7.594   5.401 -1.5727 -1.2514  2.0001
 8096SOL    HW224867   7.654   7.582   5.283  0.0905 -2.0052  0.7229
 8097SOL     OW24868   4.300   2.586   5.911 -0.0220 -0.2692 -0.5625
 8097SOL    HW124869   4.313   2.493   5.927 -0.0652 -0.3846 -1.1654
 8097SOL    HW224870   4.238   2.589   5.837 -1.5137  0.2414  0.6582
 8098SOL     OW24871   3.651   7.101   2.066  0.6066  0.1329  0.1073
 8098SOL    HW124872   3.574   7.052   2.037  1.1546 -1.6624  1.4629
 8098SOL    HW224873   3.716   7.088   1.997  0.9411 -1.6209  0.7119
 8099SOL     OW24874   7.477   7.659   4.019 -0.0973 -0.5783 -0.3653
 8099SOL    HW124875   7.433   7.613   3.948 -0.6129  1.2754 -1.3109
 8099SOL    HW224876   7.408   7.707   4.063  0.1875 -1.7699  1.5358
 8100SOL     OW24877   4.319   6.850   9.398  0.1659  0.1461 -0.1844
 8100SOL    HW124878   4.235   6.826   9.359  0.3532 -0.6125 -0.1358
 8100SOL    HW224879   4.385   6.811   9.340  0.5361  1.7025 -0.8746
 8101SOL     OW24880   0.321   3.696   4.804  0.0798 -0.9913 -0.0834
 8101SOL    HW124881   0.267   3.666   4.877  0.5730 -0.0205  0.6980
 8101SOL    HW224882   0.262   3.696   4.728 -2.1972  3.4516  1.3524
 8102SOL     OW24883   8.323   3.218   6.155 -0.2025  0.7754 -0.0140
 8102SOL    HW124884   8.387   3.251   6.218 -1.1861  0.2913  1.2877
 8102SOL    HW224885   8.253   3.183   6.209 -0.9510  0.0719 -1.3980
 8103SOL     OW24886   9.871   1.452   9.412  0.9790  0.1548  0.0836
 8103SOL    HW124887   9.871   1.466   9.318  1.4935  0.3218  0.1065
 8103SOL    HW224888   9.903   1.534   9.449 -2.7329  1.5342  0.6640
 8104SOL     OW24889   5.795   5.675   9.561 -0.1301 -0.0733 -0.0468
 8104SOL    HW124890   5.865   5.736   9.537  0.1651 -0.2636  0.3048
 8104SOL    HW224891   5.799   5.607   9.494  2.0157 -1.6645  1.5353
 8105SOL     OW24892   7.401   8.398   7.910 -0.7210 -0.1283 -0.1265
 8105SOL    HW124893   7.394   8.493   7.905  0.0094 -0.1147 -1.7594
 8105SOL    HW224894   7.393   8.369   7.818 -0.7509 -1.6253  0.3166
 8106SOL     OW24895   1.099   2.471   4.466 -0.0116  0.0785  0.1634
 8106SOL    HW124896   1.049   2.542   4.427  2.0519  0.3600 -2.2245
 8106SOL    HW224897   1.042   2.435   4.534 -2.4765  1.7752 -0.8852
 8107SOL     OW24898   2.193   2.895   9.031  0.1121  0.1379  0.0076
 8107SOL    HW124899   2.280   2.884   9.070 -0.6271 -0.3110  1.6070
 8107SOL    HW224900   2.152   2.964   9.083 -1.0284 -0.7292  0.2912
 8108SOL     OW24901   2.799   3.328   5.677  0.2086  0.3367 -0.4327
 8108SOL    HW124902   2.873   3.269   5.661  0.1645  0.1284  0.0900
 8108SOL    HW224903   2.736   3.274   5.726  0.6378  1.1214  1.0437
 8109SOL     OW24904   9.630   4.722   8.023 -0.7241 -0.1377 -0.1495
 8109SOL    HW124905   9.569   4.652   8.045 -0.2524 -0.5694 -0.1854
 8109SOL    HW224906   9.621   4.785   8.094 -1.0706 -0.2937 -0.0569
 8110SOL     OW24907   7.938   0.703   3.082  0.5473 -0.2338 -0.3544
 8110SOL    HW124908   8.031   0.712   3.059  1.0249  0.3702  1.5578
 8110SOL    HW224909   7.932   0.615   3.121  0.4122 -0.1096 -0.0942
 8111SOL     OW24910   9.659   3.635   2.233 -0.1030 -0.0750 -0.3180
 8111SOL    HW124911   9.568   3.664   2.234 -0.0101  0.2343 -0.7062
 8111SOL    HW224912   9.709   3.711   2.264  0.0728 -0.0596 -0.6370
 8112SOL     OW24913   8.411   8.107   5.711 -0.2147 -0.3000  0.1452
 8112SOL    HW124914   8.427   8.139   5.800  0.4426 -3.3033  1.2300
 8112SOL    HW224915   8.493   8.123   5.664 -0.0068 -0.1312  0.5601
 8113SOL     OW24916   8.427   3.577   0.070  0.1504 -0.2585 -0.0455
 8113SOL    HW124917   8.472   3.516   0.012  0.9360 -0.9137  1.1968
 8113SOL    HW224918   8.488   3.590   0.143 -0.0800  1.8819 -0.1756
 8114SOL     OW24919   9.749   8.384   4.906 -0.2332  0.4397  0.7098
 8114SOL    HW124920   9.772   8.299   4.871 -1.6719  0.9181 -1.6035
 8114SOL    HW224921   9.658   8.374   4.935  0.1066  0.7774  1.9505
 8115SOL     OW24922   6.077   4.698   2.266  0.5351 -1.0308  0.3777
 8115SOL    HW124923   6.164   4.664   2.245  0.9149  1.4926 -2.8651
 8115SOL    HW224924   6.017   4.634   2.229  1.1008 -1.0792 -0.4918
 8116SOL     OW24925   8.391   1.466   1.688 -0.0421 -0.3034  0.9965
 8116SOL    HW124926   8.486   1.473   1.697  0.0679 -1.9072  1.4865
 8116SOL    HW224927   8.368   1.391   1.743 -1.5079 -0.3542  0.3520
 8117SOL     OW24928   7.291   8.064   1.085  0.3536 -0.3345  0.3994
 8117SOL    HW124929   7.299   8.038   0.994 -1.2695  0.0984  0.1030
 8117SOL    HW224930   7.363   8.018   1.130  1.4792 -0.1465 -1.1467
 8118SOL     OW24931   4.285   7.189   7.133  0.4037  0.0473  0.0364
 8118SOL    HW124932   4.226   7.123   7.169  0.8425 -0.6778 -0.5233
 8118SOL    HW224933   4.227   7.252   7.090  0.0310 -1.4521 -1.8444
 8119SOL     OW24934   1.009   8.275   2.632 -0.6573 -0.0007  0.0192
 8119SOL    HW124935   1.060   8.353   2.614 -2.6136  1.1735 -0.8433
 8119SOL    HW224936   0.995   8.235   2.545 -1.6202  0.0247  0.1428
 8120SOL     OW24937   8.163   8.777   5.224  0.8920 -0.2534  0.8523
 8120SOL    HW124938   8.208   8.694   5.206  2.0772  0.5670 -0.1477
 8120SOL    HW224939   8.226   8.828   5.275 -0.5626 -0.6518  3.2012
 8121SOL     OW24940   6.755   3.841   7.833  0.4120  0.4781  0.2425
 8121SOL    HW124941   6.758   3.825   7.739  0.8122  1.3635  0.0930
 8121SOL    HW224942   6.664   3.823   7.857  0.4958 -0.5503 -0.1504
 8122SOL     OW24943   7.379   3.886   4.284 -0.4781  0.0072 -0.5147
 8122SOL    HW124944   7.347   3.864   4.371  0.4284  0.2796 -0.0954
 8122SOL    HW224945   7.364   3.981   4.276  1.2290  0.3700  0.1548
 8123SOL     OW24946   6.888   1.024   0.617  0.3025  0.6659  0.1828
 8123SOL    HW124947   6.971   0.982   0.594 -1.0312 -3.0987  1.4449
 8123SOL    HW224948   6.855   1.058   0.533  2.5503  1.2965 -0.5207
 8124SOL     OW24949   5.087   2.460   4.271  0.0048 -0.2687 -0.0100
 8124SOL    HW124950   5.104   2.412   4.353  1.3248  0.5655  0.2381
 8124SOL    HW224951   5.169   2.454   4.223 -0.3791  0.2808 -0.7407
 8125SOL     OW24952   8.695   7.562   5.937 -0.3279 -0.4648 -0.1056
 8125SOL    HW124953   8.603   7.586   5.943 -0.5313 -1.4008  0.7701
 8125SOL    HW224954   8.700   7.475   5.977  0.8075 -0.7550 -0.8301
 8126SOL     OW24955   6.273   5.970   0.395  0.1202  0.2441 -0.1952
 8126SOL    HW124956   6.203   6.034   0.383 -0.6669 -0.8271 -1.5685
 8126SOL    HW224957   6.327   5.977   0.316 -1.0726 -2.0412 -1.3057
 8127SOL     OW24958   7.990   5.633   6.079 -0.3987  0.1198 -0.1644
 8127SOL    HW124959   8.039   5.706   6.116 -0.3709 -0.2301  0.5099
 8127SOL    HW224960   7.903   5.641   6.116 -0.4882  0.0004 -0.3477
 8128SOL     OW24961   2.311   4.324   5.518  0.5987 -0.8008 -0.0819
 8128SOL    HW124962   2.372   4.267   5.470  0.6125 -2.3672  1.7147
 8128SOL    HW224963   2.367   4.374   5.578  0.4862  0.5687 -1.0560
 8129SOL     OW24964   2.144   4.128   7.823  0.5622 -0.5222  0.3828
 8129SOL    HW124965   2.133   4.223   7.824  2.6268 -0.1817 -1.8147
 8129SOL    HW224966   2.202   4.110   7.898 -0.6038 -0.2344  1.3927
 8130SOL     OW24967   0.515   6.516   4.081 -0.0748  0.1834 -0.0117
 8130SOL    HW124968   0.439   6.566   4.111 -0.0780  0.7755 -0.9580
 8130SOL    HW224969   0.503   6.429   4.117  0.6152  1.1701  2.8269
 8131SOL     OW24970   7.533   8.794   3.643  0.1887 -0.1026 -0.0128
 8131SOL    HW124971   7.596   8.741   3.594  0.8974 -0.1496  0.8976
 8131SOL    HW224972   7.529   8.877   3.597 -1.3920 -1.1048 -1.8148
 8132SOL     OW24973   4.978   1.296   4.839 -0.3763 -0.5687 -0.7040
 8132SOL    HW124974   4.918   1.333   4.903  1.2384  1.4702 -0.2462
 8132SOL    HW224975   4.926   1.284   4.760 -1.4471  0.8681 -0.2397
 8133SOL     OW24976   4.241   4.349   6.800  0.8161  0.5508  0.4190
 8133SOL    HW124977   4.214   4.441   6.807 -0.0175  0.2583  1.3708
 8133SOL    HW224978   4.232   4.315   6.890  1.1921 -0.4377  0.0939
 8134SOL     OW24979   8.565   4.995   6.351 -0.2672  0.2928  0.2623
 8134SOL    HW124980   8.579   4.919   6.408 -0.0652  1.0513  1.2435
 8134SOL    HW224981   8.643   4.998   6.295 -0.2972 -0.2460  0.1862
 8135SOL     OW24982   0.789   4.402   7.853 -0.2351  0.6292  0.1130
 8135SOL    HW124983   0.873   4.429   7.892  0.5076 -0.1769 -0.8839
 8135SOL    HW224984   0.808   4.319   7.809 -2.2001 -0.9874  2.0993
 8136SOL     OW24985   0.741   5.678   4.340 -0.0729 -0.3173 -0.1475
 8136SOL    HW124986   0.832   5.701   4.322 -0.2528  1.1312  0.6423
 8136SOL    HW224987   0.738   5.582   4.334  1.2444 -0.3123 -1.2577
 8137SOL     OW24988   7.614   9.937   0.307  0.1025  0.1306  0.5664
 8137SOL    HW124989   7.677   9.868   0.327  1.9610  1.9374  1.2785
 8137SOL    HW224990   7.667  10.016   0.299 -2.0033  1.5978  0.3500
 8138SOL     OW24991   9.685   5.015   0.783 -0.4468  0.3041  0.1755
 8138SOL    HW124992   9.740   5.033   0.707  0.1540 -0.0265  0.5167
 8138SOL    HW224993   9.667   4.921   0.778  1.9053 -0.3401  1.8811
 8139SOL     OW24994   7.193   4.722   2.495 -0.2423 -0.4292  0.2157
 8139SOL    HW124995   7.267   4.665   2.514 -0.1668 -0.7414 -0.9172
 8139SOL    HW224996   7.160   4.691   2.411 -1.2777  0.1046  0.4076
 8140SOL     OW24997   8.874   0.414   4.287  0.1829  0.4791 -0.2773
 8140SOL    HW124998   8.908   0.358   4.357 -1.1722 -0.1489 -0.0922
 8140SOL    HW224999   8.853   0.497   4.330 -1.0582 -0.0496  0.1797
 8141SOL     OW25000   3.814   8.822   8.066 -0.1462 -0.0837 -0.5038
 8141SOL    HW125001   3.908   8.835   8.079 -0.5129  1.7262  0.7900
 8141SOL    HW225002   3.778   8.911   8.064 -2.0722 -0.7358  1.2690
 8142SOL     OW25003   4.982   4.779   2.831 -0.2002 -0.2295 -0.4831
 8142SOL    HW125004   5.067   4.794   2.871 -0.0917 -2.1637  0.0903
 8142SOL    HW225005   4.977   4.684   2.819 -1.2290  0.0485 -2.8591
 8143SOL     OW25006   8.562   9.918   0.196 -0.1559 -0.2722  0.3666
 8143SOL    HW125007   8.611   9.842   0.165  1.6871  0.7047  0.7034
 8143SOL    HW225008   8.542   9.968   0.116 -0.5811 -0.6700  0.2258
 8144SOL     OW25009   2.170   0.444   5.797 -0.3184 -0.1002  0.3010
 8144SOL    HW125010   2.155   0.464   5.705 -0.1236  1.5089  0.5924
 8144SOL    HW225011   2.263   0.459   5.810 -0.3298 -0.3905  0.7487
 8145SOL     OW25012   7.367   7.494   0.674  0.3112  0.3707  0.3774
 8145SOL    HW125013   7.336   7.583   0.691  0.0447  0.5441 -0.9378
 8145SOL    HW225014   7.451   7.489   0.719 -0.7707  0.4628  2.5358
 8146SOL     OW25015   4.980   5.718   3.088  0.3620 -0.2528 -0.1988
 8146SOL    HW125016   5.028   5.801   3.094 -0.8969  0.5464 -0.7895
 8146SOL    HW225017   5.024   5.670   3.017  1.5400 -0.4253  0.6158
 8147SOL     OW25018   6.005   3.803   9.192 -0.1802 -0.1864  0.0676
 8147SOL    HW125019   6.052   3.784   9.273 -0.7931  2.6535  1.2096
 8147SOL    HW225020   6.072   3.796   9.123  0.7760 -0.8685  1.0353
 8148SOL     OW25021   0.463   1.089   6.861  0.1294 -0.4838  0.2810
 8148SOL    HW125022   0.508   1.007   6.880 -1.5744 -1.1625  1.6690
 8148SOL    HW225023   0.466   1.097   6.766  1.2861 -1.5640  0.2021
 8149SOL     OW25024   4.109   3.906   0.357  0.2959  0.2850 -0.0271
 8149SOL    HW125025   4.175   3.913   0.288  0.6576  0.9387  0.3676
 8149SOL    HW225026   4.161   3.899   0.438 -0.0728 -2.2642  0.0867
 8150SOL     OW25027   3.967   3.895   9.127  0.3307 -0.1897 -0.1162
 8150SOL    HW125028   3.994   3.892   9.035  0.0200  0.5838 -0.2367
 8150SOL    HW225029   3.941   3.805   9.147  1.6863 -0.6648 -0.3898
 8151SOL     OW25030   2.821   6.586   2.622  0.1319 -0.0675 -0.1288
 8151SOL    HW125031   2.793   6.624   2.705  0.9603 -0.1061  0.1673
 8151SOL    HW225032   2.749   6.527   2.598 -0.3000  0.2550  0.3429
 8152SOL     OW25033   2.428   6.956   1.727  0.1245 -0.0330 -0.3330
 8152SOL    HW125034   2.371   7.028   1.753  0.3683  0.2931 -0.7039
 8152SOL    HW225035   2.368   6.888   1.695 -0.1185 -0.0952  0.2377
 8153SOL     OW25036   7.877   5.468   2.499  0.2932  0.4013  0.2037
 8153SOL    HW125037   7.850   5.521   2.574  0.1291  0.4577  0.1041
 8153SOL    HW225038   7.845   5.380   2.519 -0.4763  0.5849 -0.1813
 8154SOL     OW25039   9.717   0.250   0.822 -0.2845  0.2980  0.1739
 8154SOL    HW125040   9.778   0.178   0.838 -0.8466 -0.1417  0.4087
 8154SOL    HW225041   9.635   0.206   0.799 -0.9819  0.8210  1.5089
 8155SOL     OW25042   9.299   4.797   8.913  0.5834 -0.0979 -0.4481
 8155SOL    HW125043   9.237   4.844   8.858  0.9029  0.0501 -0.6829
 8155SOL    HW225044   9.316   4.716   8.866  0.5478 -0.1524 -0.3678
 8156SOL     OW25045   1.434   5.206   5.031 -0.8934  0.2407 -0.1331
 8156SOL    HW125046   1.460   5.298   5.027 -0.7414  0.2124  0.1890
 8156SOL    HW225047   1.477   5.172   5.110 -0.6315 -0.2027 -0.4611
 8157SOL     OW25048   1.894   7.269   2.927  0.3281 -0.0130  0.2590
 8157SOL    HW125049   1.957   7.247   2.858 -0.8867 -0.3130 -0.8016
 8157SOL    HW225050   1.902   7.365   2.935 -1.3428  0.4391 -2.2472
 8158SOL     OW25051   0.763   5.428   9.590 -0.0125 -0.4313  0.0904
 8158SOL    HW125052   0.793   5.347   9.549 -0.9961 -1.5818  1.5814
 8158SOL    HW225053   0.727   5.401   9.675 -2.0720  1.3128 -0.1431
 8159SOL     OW25054   1.856   0.569   3.017  0.1370  0.5666 -0.3439
 8159SOL    HW125055   1.778   0.623   3.002 -0.9524 -0.7130  0.4093
 8159SOL    HW225056   1.927   0.631   3.030 -1.4318  1.9696  2.6516
 8160SOL     OW25057   3.132   2.206   6.061 -0.4585  0.3243  0.0029
 8160SOL    HW125058   3.108   2.181   5.972 -0.6822 -0.5342  0.2920
 8160SOL    HW225059   3.155   2.299   6.055 -0.3072  0.2296 -0.9726
 8161SOL     OW25060   6.474   1.195   2.317 -0.2224 -0.0330  0.0880
 8161SOL    HW125061   6.539   1.190   2.388  0.9731  0.3789 -0.9503
 8161SOL    HW225062   6.411   1.260   2.348  0.8332  0.8969  0.3625
 8162SOL     OW25063   9.326   5.245   9.317  0.4480  0.3658 -0.2377
 8162SOL    HW125064   9.247   5.297   9.335  0.7159  0.2699  1.4067
 8162SOL    HW225065   9.302   5.156   9.342  0.2299 -0.2169 -2.3581
 8163SOL     OW25066   4.337   3.470   3.076  0.5823  0.5063 -0.2127
 8163SOL    HW125067   4.368   3.560   3.071  0.6578  0.4290 -1.4326
 8163SOL    HW225068   4.272   3.463   3.006  0.9978 -0.5487 -0.5030
 8164SOL     OW25069   4.526   7.998   8.314  0.3248  0.0230 -0.3923
 8164SOL    HW125070   4.548   8.052   8.390  2.3781  0.3903 -1.1892
 8164SOL    HW225071   4.462   8.050   8.265  0.9114  0.9392 -0.2155
 8165SOL     OW25072   9.425   4.136   5.590  0.2157 -0.3784  0.0352
 8165SOL    HW125073   9.494   4.118   5.653  0.5791 -2.4899 -0.8872
 8165SOL    HW225074   9.349   4.087   5.622  0.2924 -1.1571 -0.9224
 8166SOL     OW25075   0.441   8.800   1.807  0.4577  0.5873 -0.0770
 8166SOL    HW125076   0.385   8.770   1.736 -0.9061 -0.0245  1.2106
 8166SOL    HW225077   0.460   8.891   1.786 -1.6347  1.0388 -0.1954
 8167SOL     OW25078   8.382   8.088   3.758  0.1385  0.6022 -0.3027
 8167SOL    HW125079   8.476   8.075   3.769  0.0300 -0.4992 -0.6319
 8167SOL    HW225080   8.347   8.001   3.744 -1.0175  0.9342  0.3821
 8168SOL     OW25081   1.807   8.844   5.520 -0.7120  0.2224 -0.1890
 8168SOL    HW125082   1.726   8.862   5.566 -1.3302 -0.4335 -0.9820
 8168SOL    HW225083   1.857   8.926   5.525 -0.7951  0.2027  1.5057
 8169SOL     OW25084   7.865   0.031   9.530  0.0595 -0.5435 -0.0286
 8169SOL    HW125085   7.913   0.016   9.448  0.8460 -0.6287  0.4404
 8169SOL    HW225086   7.894   0.117   9.560 -1.7959  0.4438 -0.8865
 8170SOL     OW25087   4.189   3.421   0.604 -0.3074 -0.4218  0.3385
 8170SOL    HW125088   4.130   3.398   0.532 -0.2170  0.6559 -0.0928
 8170SOL    HW225089   4.274   3.387   0.576 -0.1545  0.4902 -0.3369
 8171SOL     OW25090   5.511   8.970   4.674 -0.4167 -0.2239 -0.2362
 8171SOL    HW125091   5.417   8.987   4.685 -0.6118 -1.1483 -0.3603
 8171SOL    HW225092   5.547   9.054   4.646 -0.8597  0.7036  1.7415
 8172SOL     OW25093   2.697   5.185   8.550 -0.2588  0.1007  0.2871
 8172SOL    HW125094   2.749   5.259   8.518 -0.7158  0.3121  0.0277
 8172SOL    HW225095   2.707   5.188   8.645  0.2168  0.1290  0.2374
 8173SOL     OW25096   9.816   2.305   4.327  0.3790  0.1280 -0.1870
 8173SOL    HW125097   9.804   2.353   4.409  1.6824  0.5880 -0.2433
 8173SOL    HW225098   9.786   2.364   4.259 -2.0258 -0.7678  0.0037
 8174SOL     OW25099   6.725   5.826   2.723 -0.3869  0.4745  0.2668
 8174SOL    HW125100   6.715   5.870   2.638  0.3839 -1.7220 -1.0445
 8174SOL    HW225101   6.819   5.819   2.735 -0.4993 -0.2841  0.7302
 8175SOL     OW25102   7.651   6.160   5.013  0.4757  0.8156  0.5568
 8175SOL    HW125103   7.678   6.079   5.058 -0.6918  1.2583  2.1504
 8175SOL    HW225104   7.556   6.158   5.017  0.2688  0.6869 -2.3800
 8176SOL     OW25105   3.969   8.012   7.522  0.4326  0.5989  0.3337
 8176SOL    HW125106   3.944   7.968   7.441  2.4641 -0.0712  0.0159
 8176SOL    HW225107   4.063   8.025   7.514  0.4993  1.5111  2.1285
 8177SOL     OW25108   6.729   2.451   1.842 -0.3068 -0.0774  0.2887
 8177SOL    HW125109   6.685   2.479   1.762 -0.6802 -2.9509 -0.6323
 8177SOL    HW225110   6.822   2.456   1.822 -0.3617  0.4057  0.1398
 8178SOL     OW25111   7.753   3.217   7.955  0.1619 -0.4341  0.0165
 8178SOL    HW125112   7.834   3.199   7.907  0.5304  0.5639  0.2347
 8178SOL    HW225113   7.692   3.149   7.927  0.4488 -0.0453 -1.6537
 8179SOL     OW25114   8.945   7.810   9.533 -0.5885 -0.0459  0.0908
 8179SOL    HW125115   8.859   7.769   9.538  0.5414 -2.4334  1.3915
 8179SOL    HW225116   8.942   7.863   9.453 -3.3030  0.1291  0.2331
 8180SOL     OW25117   0.638   3.295   9.375  0.8487 -0.1595  0.2135
 8180SOL    HW125118   0.558   3.256   9.409  0.5380  0.1350 -0.1639
 8180SOL    HW225119   0.638   3.273   9.282  1.2022 -0.1479  0.2092
 8181SOL     OW25120   4.358   8.413   9.808  0.0730  0.4740 -0.8691
 8181SOL    HW125121   4.310   8.347   9.759 -2.6769  2.5346 -1.1801
 8181SOL    HW225122   4.389   8.474   9.741 -0.1708  1.1639 -0.3548
 8182SOL     OW25123   0.458   2.278   0.237 -0.0438 -0.0761 -0.4453
 8182SOL    HW125124   0.444   2.373   0.241 -1.4304 -0.2752  0.1439
 8182SOL    HW225125   0.533   2.262   0.293  1.6304  0.8924 -2.2822
 8183SOL     OW25126   0.972   5.687   2.982  0.4483 -0.3141 -0.6259
 8183SOL    HW125127   0.995   5.772   3.020 -0.0692  0.1497 -1.3249
 8183SOL    HW225128   1.053   5.654   2.945  0.7737 -0.3822  0.1283
 8184SOL     OW25129   4.355   5.837   7.939  0.4858  0.1349  0.0261
 8184SOL    HW125130   4.395   5.825   8.026 -0.7211 -1.3702  0.4313
 8184SOL    HW225131   4.307   5.919   7.946  0.6721  0.2013  0.6767
 8185SOL     OW25132   6.691   0.151   2.170 -0.7175 -0.0233 -0.2671
 8185SOL    HW125133   6.648   0.077   2.126  0.7536 -0.1818 -1.5221
 8185SOL    HW225134   6.712   0.119   2.257 -0.9013 -0.7848 -0.4981
 8186SOL     OW25135   4.779   2.973   4.902  0.5528  0.4432  0.6304
 8186SOL    HW125136   4.707   2.935   4.953  0.2525  0.0808 -0.0521
 8186SOL    HW225137   4.737   3.034   4.842  0.5004 -1.5327 -1.4584
 8187SOL     OW25138   2.192   7.159   6.273 -0.4257 -0.3760  0.0919
 8187SOL    HW125139   2.154   7.202   6.197  0.3777 -1.0886 -0.7384
 8187SOL    HW225140   2.117   7.124   6.320 -0.9543  0.3352 -0.2036
 8188SOL     OW25141   7.722   0.523   0.451 -0.0329 -0.0105  0.0017
 8188SOL    HW125142   7.818   0.525   0.448 -0.0460 -0.0341 -0.4959
 8188SOL    HW225143   7.701   0.523   0.545  0.4511  0.0517  0.1135
 8189SOL     OW25144   9.543   4.390   6.120 -0.2856  0.0079  0.1245
 8189SOL    HW125145   9.637   4.401   6.110 -0.5934  1.8630 -1.4516
 8189SOL    HW225146   9.531   4.365   6.212  1.6008  2.2979  1.1094
 8190SOL     OW25147   6.833   6.079   7.983  0.7903  0.0885  0.0030
 8190SOL    HW125148   6.869   6.032   8.057  2.5376  2.8641  1.0774
 8190SOL    HW225149   6.767   6.137   8.020 -0.3870 -0.5085 -1.0735
 8191SOL     OW25150   0.443   9.908   0.265 -0.1294 -0.7221 -0.2640
 8191SOL    HW125151   0.489   9.836   0.222 -0.5671 -0.2797 -1.5056
 8191SOL    HW225152   0.489   9.920   0.348  0.8995 -1.4149 -0.7208
 8192SOL     OW25153   9.549   4.510   4.252  0.5915 -0.7295 -0.8254
 8192SOL    HW125154   9.600   4.575   4.300 -2.0308  0.3303  0.8060
 8192SOL    HW225155   9.581   4.425   4.284 -0.6996 -0.0852  2.6690
 8193SOL     OW25156   5.852   9.192   6.737  0.2891 -0.7304 -0.6421
 8193SOL    HW125157   5.842   9.112   6.685 -0.6704 -0.6847 -0.5299
 8193SOL    HW225158   5.875   9.160   6.825 -0.0060 -0.8772 -0.6184
 8194SOL     OW25159   6.548   0.573   3.024 -0.4178 -0.2792  0.3448
 8194SOL    HW125160   6.516   0.489   2.992 -0.5664 -0.5968  1.3119
 8194SOL    HW225161   6.574   0.620   2.945 -1.7272 -0.6466 -0.3291
 8195SOL     OW25162   9.742   0.393   5.589  0.0817 -0.2093  0.5103
 8195SOL    HW125163   9.681   0.383   5.663 -0.9688 -0.6119 -0.3947
 8195SOL    HW225164   9.828   0.381   5.629 -0.4493 -0.2750  1.7083
 8196SOL     OW25165   8.160   5.625   0.524 -0.2310  0.0089 -0.4137
 8196SOL    HW125166   8.145   5.718   0.507 -0.4610  0.2995  1.2016
 8196SOL    HW225167   8.158   5.584   0.437 -0.0771  1.5077 -1.1567
 8197SOL     OW25168   6.023   0.245   7.725 -0.1356  0.4821 -0.0818
 8197SOL    HW125169   6.034   0.270   7.633 -1.8842  2.0342  0.0615
 8197SOL    HW225170   6.069   0.162   7.733 -1.6025 -0.7681 -2.9011
 8198SOL     OW25171   9.948   0.801   9.120 -0.1231 -0.1773  0.0197
 8198SOL    HW125172   9.929   0.893   9.103 -0.8232 -0.8924 -3.8907
 8198SOL    HW225173   9.865   0.764   9.150  0.0261  0.2868  1.0701
 8199SOL     OW25174   0.057   5.773   1.725 -0.1288  0.7587 -0.9883
 8199SOL    HW125175   0.056   5.688   1.769 -0.1093  0.7153 -1.0697
 8199SOL    HW225176  -0.034   5.799   1.721 -0.0913  0.9442 -0.5753
 8200SOL     OW25177   0.786   1.833   7.614  0.2378 -0.0867 -1.0998
 8200SOL    HW125178   0.792   1.737   7.613  0.2970 -0.0918 -0.6079
 8200SOL    HW225179   0.837   1.859   7.691  2.2219  0.4824 -2.5230
 8201SOL     OW25180   2.804   0.197   1.382 -0.1329  0.0968  0.4358
 8201SOL    HW125181   2.896   0.172   1.376  0.2732  0.9979  2.2154
 8201SOL    HW225182   2.759   0.120   1.416  0.3896  0.3705  1.8047
 8202SOL     OW25183   2.801   8.724   3.958 -0.0384  0.5094  0.7541
 8202SOL    HW125184   2.848   8.715   3.875  0.0952 -0.0327  0.8820
 8202SOL    HW225185   2.864   8.765   4.017  0.0312  0.4482  0.7224
 8203SOL     OW25186   4.497   2.723   1.211 -0.4456  0.3140 -0.4698
 8203SOL    HW125187   4.461   2.643   1.248  1.0059 -0.1512 -0.0175
 8203SOL    HW225188   4.582   2.697   1.175 -1.4252  0.8770 -3.5287
 8204SOL     OW25189   3.828   0.894   9.430 -0.3856  0.2284  0.4984
 8204SOL    HW125190   3.816   0.905   9.336 -0.1034  0.2994  0.4681
 8204SOL    HW225191   3.771   0.821   9.453 -1.4165  0.9982  0.4954
 8205SOL     OW25192   8.588   8.779   9.024  0.5608 -0.1783 -0.2574
 8205SOL    HW125193   8.655   8.803   8.960  2.0444  0.4672  1.4493
 8205SOL    HW225194   8.551   8.862   9.053 -0.6971 -0.5078 -0.8314
 8206SOL     OW25195   7.840   1.727   7.442 -0.5394 -0.6429  0.8971
 8206SOL    HW125196   7.810   1.807   7.484 -1.7569 -0.9581  0.6735
 8206SOL    HW225197   7.935   1.738   7.434 -0.8721  1.7267 -1.0967
 8207SOL     OW25198   4.029   4.497   8.423  0.2172 -0.3045 -0.4112
 8207SOL    HW125199   3.982   4.494   8.340 -0.2414  0.6830 -0.2046
 8207SOL    HW225200   4.078   4.580   8.420 -1.5958  0.9214  1.2179
 8208SOL     OW25201   4.107   7.126   8.897 -0.1774 -0.0363  0.8606
 8208SOL    HW125202   4.182   7.068   8.895 -1.3993 -1.6615 -0.0006
 8208SOL    HW225203   4.139   7.209   8.861  1.4733 -0.2895  1.6475
 8209SOL     OW25204   2.119   1.250   6.966 -0.0156  0.2149 -0.2266
 8209SOL    HW125205   2.145   1.251   7.058 -1.3772  2.5091  0.2283
 8209SOL    HW225206   2.054   1.181   6.960 -2.0656  1.8648  1.3097
 8210SOL     OW25207   9.276   6.087   6.907 -0.5180  0.2209 -0.0105
 8210SOL    HW125208   9.367   6.075   6.878 -0.3506 -0.2643  0.7001
 8210SOL    HW225209   9.245   5.999   6.926 -0.4321  0.5491  1.8150
 8211SOL     OW25210   7.576   3.104   6.936  0.4302  0.5355  0.1832
 8211SOL    HW125211   7.665   3.085   6.967  0.2163 -0.5435  0.1726
 8211SOL    HW225212   7.587   3.177   6.875  1.0083  1.9905  1.9156
 8212SOL     OW25213   1.729   2.872   5.613  0.3530 -0.4555 -0.2353
 8212SOL    HW125214   1.637   2.852   5.593  0.2925 -0.0505 -0.3615
 8212SOL    HW225215   1.777   2.841   5.536  0.2634 -0.1480 -0.4144
 8213SOL     OW25216   5.322   9.898   7.225 -0.2323 -0.2368 -0.1790
 8213SOL    HW125217   5.414   9.920   7.241 -0.6126  1.4929 -0.1873
 8213SOL    HW225218   5.273   9.948   7.290 -1.3317  1.2900 -2.0442
 8214SOL     OW25219   6.871   1.027   5.514  0.0310 -0.3689 -0.7112
 8214SOL    HW125220   6.899   0.980   5.593  1.2092 -0.1446 -0.9768
 8214SOL    HW225221   6.895   1.118   5.530 -2.6430  0.2919 -0.0209
 8215SOL     OW25222   7.184   7.242   0.107  0.1432  0.5932  0.1679
 8215SOL    HW125223   7.183   7.325   0.060  1.5506  0.1064 -0.7630
 8215SOL    HW225224   7.112   7.191   0.068  0.6287  0.5889 -0.7277
 8216SOL     OW25225   1.165   8.050   5.988 -0.0928 -0.2418  0.3410
 8216SOL    HW125226   1.224   7.985   6.026  1.5720  0.9817 -0.0420
 8216SOL    HW225227   1.172   8.036   5.893 -1.2407 -0.7676  0.3265
 8217SOL     OW25228   5.648   0.424   2.646 -0.1397 -0.4500  0.4810
 8217SOL    HW125229   5.707   0.403   2.718  0.0309 -0.8731  0.2188
 8217SOL    HW225230   5.704   0.430   2.569 -0.4191 -0.7847  0.2445
 8218SOL     OW25231   4.677   0.775   3.381 -0.0090  0.2980 -0.0162
 8218SOL    HW125232   4.731   0.696   3.388 -0.3790 -0.0250 -0.6373
 8218SOL    HW225233   4.704   0.830   3.455  0.4623 -0.2820  0.2526
 8219SOL     OW25234   2.688   9.827   9.889  0.1437  0.2063 -0.4645
 8219SOL    HW125235   2.701   9.734   9.907 -0.3718  0.1912 -0.1585
 8219SOL    HW225236   2.624   9.829   9.817  0.1632  0.3213 -0.4795
 8220SOL     OW25237   0.643   3.227   6.283  0.1873  0.0387  0.0604
 8220SOL    HW125238   0.714   3.255   6.227 -0.4216  2.5777  0.4100
 8220SOL    HW225239   0.684   3.211   6.368  0.3545  2.0084  0.4066
 8221SOL     OW25240   9.867   4.359   9.740  0.3775 -0.3318  0.1455
 8221SOL    HW125241   9.958   4.390   9.741 -0.4283  2.3150 -0.4104
 8221SOL    HW225242   9.830   4.398   9.661 -1.6985  0.1061  1.2692
 8222SOL     OW25243   9.625   6.264   4.708  0.2142 -0.1532  0.2086
 8222SOL    HW125244   9.691   6.285   4.774  1.0328 -0.4258 -0.5155
 8222SOL    HW225245   9.661   6.297   4.626  0.5476 -2.3807 -0.5911
 8223SOL     OW25246   1.811   4.059   0.318 -0.0734 -0.4057  0.2331
 8223SOL    HW125247   1.758   4.032   0.243  0.4229 -0.9223  0.0658
 8223SOL    HW225248   1.748   4.090   0.383 -0.4845  0.4572 -0.5586
 8224SOL     OW25249   5.342   4.630   1.247 -0.8172 -0.4026 -0.6676
 8224SOL    HW125250   5.262   4.680   1.266  0.7009  3.0259 -2.3818
 8224SOL    HW225251   5.330   4.547   1.293 -3.6283  1.4582  2.3895
 8225SOL     OW25252   6.966   9.361   8.359  0.5557 -0.2750  0.1743
 8225SOL    HW125253   6.989   9.446   8.320  1.4724  0.0825  1.4252
 8225SOL    HW225254   6.995   9.368   8.450 -1.0955 -1.2519  0.8054
 8226SOL     OW25255   4.422   4.293   2.928 -0.0308  0.1815 -0.7538
 8226SOL    HW125256   4.416   4.235   2.852  0.7333 -0.7676 -0.1163
 8226SOL    HW225257   4.404   4.380   2.893 -0.1168 -0.2868 -1.9402
 8227SOL     OW25258   5.867   1.304   9.538  0.2686  0.0089  0.1044
 8227SOL    HW125259   5.867   1.320   9.444  2.2046  0.9849  0.2143
 8227SOL    HW225260   5.840   1.212   9.547  0.3744 -0.1953 -1.4161
 8228SOL     OW25261   3.621   8.467   5.741 -0.5795  0.0186  0.0661
 8228SOL    HW125262   3.585   8.515   5.815 -2.3047 -2.3777  0.9240
 8228SOL    HW225263   3.546   8.418   5.706  0.2935  0.7068 -2.9987
 8229SOL     OW25264   5.023   4.685   0.228 -0.1064  0.1516 -0.9054
 8229SOL    HW125265   5.008   4.610   0.286 -0.7703 -0.7747 -2.2357
 8229SOL    HW225266   4.969   4.755   0.265  0.9092  0.1731  0.6437
 8230SOL     OW25267   2.614   0.474   0.373  0.3714 -0.0278  0.0677
 8230SOL    HW125268   2.535   0.424   0.394 -0.8172  1.8507  0.4038
 8230SOL    HW225269   2.621   0.469   0.278 -0.4380  0.1537 -0.0076
 8231SOL     OW25270   6.869   9.069   1.018 -0.7058 -0.0293  0.7396
 8231SOL    HW125271   6.963   9.056   1.035 -0.9232 -1.5038  0.9497
 8231SOL    HW225272   6.844   9.141   1.076  0.4155  0.7740  0.2468
 8232SOL     OW25273   9.534   0.346   7.211 -0.9411 -0.1818  0.0681
 8232SOL    HW125274   9.561   0.438   7.220  2.1057 -0.9811  0.2792
 8232SOL    HW225275   9.478   0.345   7.134 -1.2843  1.8879  0.2295
 8233SOL     OW25276   3.009   1.307   8.873 -0.1591  0.5133 -0.4157
 8233SOL    HW125277   3.031   1.314   8.966  0.3370 -1.5116 -0.3261
 8233SOL    HW225278   2.932   1.249   8.872 -0.1748  0.5466 -1.2528
 8234SOL     OW25279   5.664   3.000   0.643 -0.1040 -0.6520  0.5172
 8234SOL    HW125280   5.700   3.026   0.558  0.3195 -2.1558  0.2019
 8234SOL    HW225281   5.574   3.033   0.643 -0.0719 -0.5508 -0.4780
 8235SOL     OW25282   1.929   0.903   1.903 -0.0901 -0.7587 -0.4241
 8235SOL    HW125283   1.985   0.970   1.943 -1.6612 -0.9309  2.3820
 8235SOL    HW225284   1.858   0.952   1.863 -0.4115 -0.6524  0.2521
 8236SOL     OW25285   8.686   9.346   4.256 -1.0378  0.3452 -0.5028
 8236SOL    HW125286   8.640   9.363   4.339 -2.3704 -1.0398 -0.9102
 8236SOL    HW225287   8.743   9.272   4.274 -1.6364 -0.2228 -0.9175
 8237SOL     OW25288   7.121   0.577   3.642  0.1157 -0.1114 -0.8066
 8237SOL    HW125289   7.079   0.520   3.577 -1.0303  0.6724 -0.7956
 8237SOL    HW225290   7.064   0.654   3.646  1.3114  0.7956 -0.4144
 8238SOL     OW25291   6.947   5.345   1.898 -0.1113 -0.5506 -0.4207
 8238SOL    HW125292   6.897   5.321   1.976  1.5990  0.7342  1.1665
 8238SOL    HW225293   7.026   5.291   1.903  1.9694  2.3563  1.1070
 8239SOL     OW25294   9.038   5.076   5.165  0.5929  0.0933  0.0970
 8239SOL    HW125295   8.970   5.140   5.184  0.3565 -0.3250  0.6933
 8239SOL    HW225296   9.031   5.060   5.070 -0.0220  0.1834  0.1276
 8240SOL     OW25297   0.949   6.232   4.501  0.2999  0.0740 -0.1890
 8240SOL    HW125298   0.854   6.238   4.511  0.5281  1.6854  1.7543
 8240SOL    HW225299   0.972   6.307   4.447  0.5391  0.1924  0.0759
 8241SOL     OW25300   4.607   9.637   2.325  0.9186 -0.2406  0.8177
 8241SOL    HW125301   4.564   9.598   2.248  0.0680  1.0564  0.6016
 8241SOL    HW225302   4.578   9.583   2.398 -0.3884  0.0791  0.5557
 8242SOL     OW25303   9.527   4.984   6.495 -0.6004  0.0407 -0.1249
 8242SOL    HW125304   9.586   5.055   6.468 -0.5532 -0.2910 -0.9444
 8242SOL    HW225305   9.469   5.025   6.559 -0.4002  0.7507 -0.3761
 8243SOL     OW25306   8.802   6.889   3.590  0.5841  0.0241  0.6141
 8243SOL    HW125307   8.869   6.910   3.525 -0.9997  0.5066 -0.9316
 8243SOL    HW225308   8.753   6.970   3.601 -0.1681 -0.4957  1.2005
 8244SOL     OW25309   0.004   6.123   4.165 -0.2305  0.3162 -0.1675
 8244SOL    HW125310   0.041   6.211   4.156  0.4363 -0.0322 -1.1296
 8244SOL    HW225311  -0.018   6.115   4.257 -0.0883  1.4077 -0.0248
 8245SOL     OW25312   9.819   0.442   6.303 -1.0623 -0.4815  0.1397
 8245SOL    HW125313   9.803   0.376   6.370 -4.0169 -0.7493 -0.6412
 8245SOL    HW225314   9.816   0.393   6.221 -2.0897  0.3873 -0.3789
 8246SOL     OW25315   2.399   2.594   5.841 -0.4574 -0.2324  0.6038
 8246SOL    HW125316   2.364   2.563   5.925 -0.2750 -1.1100  0.3595
 8246SOL    HW225317   2.335   2.659   5.812 -0.1366  0.6516  1.7826
 8247SOL     OW25318   7.932   8.060   2.812  0.1182  0.3237  0.1798
 8247SOL    HW125319   7.923   7.995   2.741  1.1007  0.3363  0.0257
 8247SOL    HW225320   7.888   8.138   2.779 -0.1807  0.0544 -0.0639
 8248SOL     OW25321   4.975   9.691   1.358  0.2981 -0.4016  0.2737
 8248SOL    HW125322   5.044   9.645   1.310 -0.8970 -1.3565 -0.5802
 8248SOL    HW225323   4.956   9.767   1.304 -0.2542 -0.8677 -0.1974
 8249SOL     OW25324   4.462   6.658   0.461 -0.5923 -0.1152 -0.2762
 8249SOL    HW125325   4.499   6.746   0.463  0.0234 -0.3873  0.7381
 8249SOL    HW225326   4.389   6.661   0.523  0.6975 -0.8482  1.3348
 8250SOL     OW25327   7.388   3.762   6.257 -0.2658  0.0755  0.2151
 8250SOL    HW125328   7.439   3.822   6.311 -0.5671 -0.8554  1.6040
 8250SOL    HW225329   7.453   3.706   6.215  0.1483  2.4827 -2.6188
 8251SOL     OW25330   1.091   9.374   4.416 -0.8721  0.3581  1.2868
 8251SOL    HW125331   1.084   9.411   4.504 -2.5862  0.1560  1.2543
 8251SOL    HW225332   1.085   9.279   4.429 -0.2161  0.2693  1.0167
 8252SOL     OW25333   7.346   4.053   1.874  0.3366  0.1864  0.4193
 8252SOL    HW125334   7.301   4.000   1.939  1.0350 -1.3944 -0.3323
 8252SOL    HW225335   7.355   3.995   1.798  0.7272  1.5378 -0.6041
 8253SOL     OW25336   7.363   8.718   5.578  0.3032 -0.5436 -0.4154
 8253SOL    HW125337   7.316   8.723   5.661 -0.3237 -0.2179 -0.7863
 8253SOL    HW225338   7.434   8.656   5.595 -0.4987 -1.3710  0.0362
 8254SOL     OW25339   1.962   9.114   5.933 -0.2224 -0.2365 -0.0501
 8254SOL    HW125340   2.046   9.109   5.887 -1.5118 -1.6353 -2.4706
 8254SOL    HW225341   1.908   9.171   5.877 -1.8073 -1.8572 -0.2697
 8255SOL     OW25342   8.527   2.864   6.222  0.1982 -0.1741 -0.2582
 8255SOL    HW125343   8.607   2.908   6.195 -0.1638  0.8138  0.2286
 8255SOL    HW225344   8.459   2.931   6.212 -0.7654 -1.3065 -1.7261
 8256SOL     OW25345   1.565   2.531   8.615 -0.1125  0.2246  0.4315
 8256SOL    HW125346   1.592   2.476   8.689  0.8974  1.3495  0.9439
 8256SOL    HW225347   1.640   2.589   8.600 -0.8403  0.9440 -0.5784
 8257SOL     OW25348   7.232   0.931   6.429  0.5519  0.0237 -0.2996
 8257SOL    HW125349   7.321   0.909   6.457  0.6641 -1.7345 -1.8727
 8257SOL    HW225350   7.186   0.949   6.511  2.0297 -0.2590  0.6481
 8258SOL     OW25351   4.884   2.114   1.299  0.7066  0.2915  0.3145
 8258SOL    HW125352   4.802   2.150   1.332  0.5264  0.5366 -0.3771
 8258SOL    HW225353   4.914   2.055   1.367 -1.0037 -1.2439 -0.1900
 8259SOL     OW25354   2.014   6.382   0.662 -0.5070  0.1595  0.2665
 8259SOL    HW125355   2.061   6.448   0.611 -1.2811  0.6317  0.1490
 8259SOL    HW225356   2.079   6.315   0.680  0.1456  0.6790 -0.1131
 8260SOL     OW25357   4.760   2.159   5.505 -0.0027  0.0638 -0.0347
 8260SOL    HW125358   4.752   2.142   5.599 -0.4010  0.6426  0.0450
 8260SOL    HW225359   4.673   2.142   5.470 -0.0036  0.3919 -0.2023
 8261SOL     OW25360   3.987   6.275   2.577 -0.4630  0.3975 -0.2389
 8261SOL    HW125361   4.019   6.196   2.533 -1.8202 -0.2710 -0.0537
 8261SOL    HW225362   3.980   6.250   2.669 -0.7316  0.7907 -0.1519
 8262SOL     OW25363   7.027   3.430   7.206 -0.0565 -0.0375  0.1592
 8262SOL    HW125364   6.984   3.496   7.151 -0.0296 -0.0005  0.1821
 8262SOL    HW225365   6.993   3.446   7.294  0.4799  0.4059  0.2961
 8263SOL     OW25366   2.710   3.742   3.505  0.3130  0.4568  0.2856
 8263SOL    HW125367   2.737   3.762   3.415 -0.3932  1.0567  0.1939
 8263SOL    HW225368   2.791   3.719   3.550  0.6506  0.0009 -0.5443
 8264SOL     OW25369   6.523   1.449   8.255  0.5761  0.4887  0.4039
 8264SOL    HW125370   6.448   1.423   8.310  0.0660  0.0129 -0.4972
 8264SOL    HW225371   6.600   1.417   8.302  0.0568 -1.3588  0.0691
 8265SOL     OW25372   7.198   7.094   0.377 -0.1396 -0.3514  0.0669
 8265SOL    HW125373   7.131   7.025   0.373 -0.2823 -0.1865 -0.5278
 8265SOL    HW225374   7.188   7.142   0.294  1.8296 -1.3664 -0.8356
 8266SOL     OW25375   6.451   6.919   7.840 -0.1626  0.0435 -0.4562
 8266SOL    HW125376   6.474   6.966   7.920  0.8776 -2.1459  0.6281
 8266SOL    HW225377   6.378   6.863   7.865 -1.2399  0.8646 -1.6522
 8267SOL     OW25378   4.303   2.143   1.924 -0.4349  0.5204 -0.5095
 8267SOL    HW125379   4.389   2.180   1.904  0.0834 -0.4546 -0.1934
 8267SOL    HW225380   4.303   2.057   1.881 -2.4804  1.7113 -3.1703
 8268SOL     OW25381   0.610   1.287   1.287  0.4156  0.0950  0.6187
 8268SOL    HW125382   0.539   1.238   1.330 -0.2427  0.9476  0.5244
 8268SOL    HW225383   0.584   1.291   1.195 -0.7160  2.5183  0.9585
 8269SOL     OW25384   3.923   3.481   2.410  0.1579 -0.1971  0.4454
 8269SOL    HW125385   3.980   3.425   2.356  1.0363  1.1225 -0.0386
 8269SOL    HW225386   3.900   3.426   2.485  2.5682 -0.6096  0.9658
 8270SOL     OW25387   8.100   9.600   5.243  0.8390 -0.2239  0.1557
 8270SOL    HW125388   8.141   9.540   5.305  0.5524 -1.5138 -0.8543
 8270SOL    HW225389   8.164   9.609   5.173 -0.2066 -1.6299 -1.0535
 8271SOL     OW25390   6.359   0.840   5.300  0.0603  0.2589 -0.3371
 8271SOL    HW125391   6.321   0.927   5.310  1.2077  0.6602  0.8309
 8271SOL    HW225392   6.425   0.851   5.231  0.1871  0.3149 -0.2078
 8272SOL     OW25393   2.464   2.300   7.333  0.5378  0.3452  1.0387
 8272SOL    HW125394   2.473   2.206   7.319  1.1361  0.3832  1.1339
 8272SOL    HW225395   2.506   2.340   7.256  0.2663  0.5382  0.9863
 8273SOL     OW25396   1.655   9.325   1.249  0.1955  0.2915 -0.2576
 8273SOL    HW125397   1.559   9.321   1.254  0.0994  0.7368 -1.3813
 8273SOL    HW225398   1.672   9.370   1.166  1.3819 -2.2594 -1.5133
 8274SOL     OW25399   9.507   6.790   8.770  0.1129  0.4520 -0.5119
 8274SOL    HW125400   9.599   6.790   8.744  0.2090  0.3906 -0.1772
 8274SOL    HW225401   9.508   6.772   8.864 -0.3234 -1.0193 -0.7713
 8275SOL     OW25402   6.136   4.415   1.023  0.1794  0.4413 -0.2793
 8275SOL    HW125403   6.137   4.480   0.953 -1.0115  1.2421  0.3994
 8275SOL    HW225404   6.099   4.337   0.983 -0.1226  0.7739 -0.6611
 8276SOL     OW25405   6.080   8.012   5.171  0.2547 -0.2753  0.2638
 8276SOL    HW125406   5.999   7.972   5.139 -0.4087  1.1532  0.1186
 8276SOL    HW225407   6.146   7.989   5.106 -0.6601  0.9601 -1.1425
 8277SOL     OW25408   9.648   7.770   2.440  0.1509  0.3778 -0.9038
 8277SOL    HW125409   9.724   7.828   2.445 -0.3645  1.0572 -0.8126
 8277SOL    HW225410   9.589   7.801   2.508  0.0027 -0.4670 -0.6387
 8278SOL     OW25411   1.429   4.394   3.612 -0.5985  0.7477 -0.0995
 8278SOL    HW125412   1.438   4.302   3.635  0.6545  0.5779 -1.1914
 8278SOL    HW225413   1.493   4.439   3.667  1.6122  0.4660 -2.2799
 8279SOL     OW25414   0.818   3.625   4.754 -1.2238 -0.3172  0.2785
 8279SOL    HW125415   0.861   3.710   4.737 -0.7083 -0.5441  0.4151
 8279SOL    HW225416   0.890   3.567   4.777 -1.8466 -0.0588  3.2613
 8280SOL     OW25417   0.918   1.741   6.145  0.6424  0.4978  0.5133
 8280SOL    HW125418   0.897   1.830   6.170 -0.9383  0.0835  0.7426
 8280SOL    HW225419   0.914   1.741   6.049  0.3298  0.6035  0.5264
 8281SOL     OW25420   1.318   6.206   0.770  0.5156 -0.1384 -0.4215
 8281SOL    HW125421   1.271   6.203   0.686  0.6654 -0.8297 -0.4900
 8281SOL    HW225422   1.257   6.165   0.832 -0.2360  1.7411  0.1527
 8282SOL     OW25423   6.824   8.464   3.700 -0.2234  0.2887  0.0321
 8282SOL    HW125424   6.876   8.493   3.625  0.8439  1.1408  1.0735
 8282SOL    HW225425   6.842   8.529   3.768 -1.0822 -0.5338  1.0705
 8283SOL     OW25426   3.134   9.180   7.101 -0.1565 -0.1180  0.0132
 8283SOL    HW125427   3.086   9.140   7.173 -0.0201  1.4880  1.0644
 8283SOL    HW225428   3.191   9.245   7.143  0.2285  0.5877 -1.5045
 8284SOL     OW25429   3.140   3.092   5.195 -0.0898 -0.1252 -0.0369
 8284SOL    HW125430   3.120   3.182   5.221  2.6147  0.2927  0.9405
 8284SOL    HW225431   3.170   3.050   5.276  0.1133 -1.4537 -0.7811
 8285SOL     OW25432   2.126   4.383   8.241 -0.1808 -0.5336  0.1235
 8285SOL    HW125433   2.062   4.328   8.287 -0.2874 -0.7280 -0.2531
 8285SOL    HW225434   2.157   4.329   8.169 -0.7736  0.1269 -0.6524
 8286SOL     OW25435   6.971   6.488   8.404 -1.1039 -0.2017  0.1656
 8286SOL    HW125436   6.993   6.561   8.346 -1.1217  0.6963  1.2462
 8286SOL    HW225437   6.949   6.530   8.487 -0.5102 -1.4745  0.9960
 8287SOL     OW25438   6.919   0.810   3.638  0.1749 -0.4801 -0.3037
 8287SOL    HW125439   6.908   0.844   3.549  1.7612  0.2797 -0.2379
 8287SOL    HW225440   6.987   0.865   3.677 -1.2292 -0.0956  1.7757
 8288SOL     OW25441   3.590   6.121   1.241 -0.1073  0.2727  0.0091
 8288SOL    HW125442   3.673   6.162   1.264 -1.2911  1.6735  2.1287
 8288SOL    HW225443   3.562   6.077   1.321 -1.7040  0.3679 -0.4570
 8289SOL     OW25444   8.288   9.286   1.284 -0.0958 -0.2867 -0.1182
 8289SOL    HW125445   8.274   9.219   1.351  1.8961 -0.8419 -0.1950
 8289SOL    HW225446   8.205   9.333   1.279 -0.7290 -1.1269  1.7428
 8290SOL     OW25447   8.262   5.520   2.713  0.1851  0.0090 -0.5684
 8290SOL    HW125448   8.354   5.496   2.705  0.3446 -0.1496  1.2349
 8290SOL    HW225449   8.263   5.600   2.766 -0.7390 -0.3284 -0.0234
 8291SOL     OW25450   8.459   5.461   5.270 -0.0434 -0.1397  0.3596
 8291SOL    HW125451   8.391   5.462   5.202  1.4227  0.9103 -1.1666
 8291SOL    HW225452   8.502   5.546   5.263 -0.1017  0.1837  2.9496
 8292SOL     OW25453   7.739   4.211   3.888 -0.1676 -0.4314 -0.1642
 8292SOL    HW125454   7.817   4.198   3.834 -1.4679  0.6825 -2.4815
 8292SOL    HW225455   7.735   4.306   3.900 -0.9841 -0.5056  0.2003
 8293SOL     OW25456   4.882   7.716   4.239 -0.0884  0.4767 -0.1405
 8293SOL    HW125457   4.919   7.760   4.163  1.9404  0.0388  0.5303
 8293SOL    HW225458   4.879   7.783   4.307  0.2818  0.3157  0.0411
 8294SOL     OW25459   2.738   0.405   4.928 -0.4592  0.1709  0.0670
 8294SOL    HW125460   2.717   0.337   4.864 -1.2421 -0.5693  1.0874
 8294SOL    HW225461   2.821   0.377   4.966 -1.4734 -1.0233  1.5075
 8295SOL     OW25462   4.744   8.741   6.074 -0.2881 -0.0850  0.2744
 8295SOL    HW125463   4.738   8.742   6.169 -3.2571 -0.9153  0.1934
 8295SOL    HW225464   4.754   8.833   6.050  0.1268  0.1705  1.3641
 8296SOL     OW25465   8.757   6.727   3.101 -0.4662 -0.2965 -0.0295
 8296SOL    HW125466   8.683   6.753   3.046  0.8304  2.4791 -0.6272
 8296SOL    HW225467   8.825   6.701   3.038  0.8075  2.2798  0.1618
 8297SOL     OW25468   1.219   6.565   2.367 -0.1314  0.1674 -0.0497
 8297SOL    HW125469   1.212   6.584   2.273 -1.1145  0.5496  0.0904
 8297SOL    HW225470   1.152   6.499   2.383 -0.3272  0.4923  0.4807
 8298SOL     OW25471   3.461   8.752   4.769 -0.6760  0.1732  0.4361
 8298SOL    HW125472   3.414   8.743   4.851  1.1533  2.9833  1.9703
 8298SOL    HW225473   3.399   8.724   4.702 -2.9792 -0.2110  2.6062
 8299SOL     OW25474   7.028   9.078   7.636  0.2740 -0.6431  0.1362
 8299SOL    HW125475   7.079   9.048   7.560  1.6479 -1.0878  1.1846
 8299SOL    HW225476   6.974   9.002   7.660  2.3578 -1.7560  1.6319
 8300SOL     OW25477   6.480   5.992   1.993 -0.0792 -0.1514  0.0407
 8300SOL    HW125478   6.450   5.938   1.920 -0.6396  0.6743 -0.3549
 8300SOL    HW225479   6.573   6.007   1.975 -0.0399 -0.5615 -0.1059
 8301SOL     OW25480   7.582   7.321   1.824  0.1871  0.2085  0.5994
 8301SOL    HW125481   7.677   7.308   1.814  0.0836  0.7808 -1.7023
 8301SOL    HW225482   7.543   7.246   1.780 -0.3852  1.1866 -0.6409
 8302SOL     OW25483   3.547   8.629   2.585  0.2030  0.2590 -0.0990
 8302SOL    HW125484   3.637   8.640   2.554 -0.3274  2.1124 -1.1414
 8302SOL    HW225485   3.495   8.688   2.529 -1.0771  2.4957  3.1463
 8303SOL     OW25486   4.308   2.107   6.252 -0.3750 -0.3352  0.0680
 8303SOL    HW125487   4.213   2.108   6.245 -0.2987 -1.3486 -1.7068
 8303SOL    HW225488   4.338   2.150   6.171  0.6973  1.3223  1.2801
 8304SOL     OW25489   4.683   0.614   6.627 -0.5007 -0.1761 -0.5114
 8304SOL    HW125490   4.677   0.663   6.709  0.2245  1.0603 -1.1625
 8304SOL    HW225491   4.654   0.677   6.560  2.3227  0.0904 -1.6162
 8305SOL     OW25492   2.265   7.535   5.310 -0.0067 -0.2254 -0.1209
 8305SOL    HW125493   2.238   7.618   5.350  1.7572  0.3694 -0.0599
 8305SOL    HW225494   2.255   7.550   5.216 -1.2077 -0.5340 -0.0608
 8306SOL     OW25495   6.592   8.898   0.952 -0.2130 -0.1870  0.1098
 8306SOL    HW125496   6.598   8.911   1.047  3.1918 -2.9605  0.4942
 8306SOL    HW225497   6.649   8.965   0.915 -1.5791  0.9263 -0.0685
 8307SOL     OW25498   5.435   1.121   3.768 -0.0507 -0.0745 -0.2951
 8307SOL    HW125499   5.447   1.027   3.755  0.2024 -0.1295  0.2950
 8307SOL    HW225500   5.465   1.136   3.857  0.1916  0.6197 -0.4917
 8308SOL     OW25501   5.982   7.348   2.480 -0.1437  0.3389 -0.6168
 8308SOL    HW125502   6.044   7.355   2.552  1.2702  0.7861 -1.8255
 8308SOL    HW225503   5.990   7.257   2.450 -0.2766  0.3207 -0.5971
 8309SOL     OW25504   3.066   5.920   5.680 -0.4408  0.4098  0.2613
 8309SOL    HW125505   3.105   5.893   5.763  0.6760 -1.0296 -0.6614
 8309SOL    HW225506   2.995   5.858   5.665  0.9092 -0.9173 -0.9612
 8310SOL     OW25507   6.277   3.878   2.266 -0.0237 -0.4600 -0.0537
 8310SOL    HW125508   6.192   3.903   2.231  0.7555 -0.2619 -1.9366
 8310SOL    HW225509   6.259   3.805   2.325 -1.4668 -0.5947 -0.6312
 8311SOL     OW25510   7.164   4.604   9.179  0.4695  0.1820  0.5836
 8311SOL    HW125511   7.202   4.558   9.254 -1.6426 -0.5790  1.2710
 8311SOL    HW225512   7.157   4.537   9.111  2.4161  0.8790 -0.3646
 8312SOL     OW25513   1.922   8.391   8.288 -0.0513 -0.0082 -0.0715
 8312SOL    HW125514   1.903   8.412   8.379  0.3070  4.3392 -0.8022
 8312SOL    HW225515   1.988   8.322   8.292  1.9978  1.8860  3.1128
 8313SOL     OW25516   7.217   2.717   2.748 -0.1053  0.0791  0.8955
 8313SOL    HW125517   7.274   2.793   2.751 -0.8830  0.6574  1.4551
 8313SOL    HW225518   7.248   2.666   2.673  1.2960  0.2463  1.3404
 8314SOL     OW25519   4.492   7.755   2.457  0.8676 -0.0966 -0.0185
 8314SOL    HW125520   4.551   7.830   2.464  2.0095 -0.9604 -0.1638
 8314SOL    HW225521   4.533   7.687   2.509 -0.9505 -0.1849  1.4244
 8315SOL     OW25522   8.361   0.484   9.033  0.6250  0.3465  0.1144
 8315SOL    HW125523   8.387   0.400   8.996  0.4716  0.6529 -0.7052
 8315SOL    HW225524   8.314   0.528   8.963  0.8856  1.2071  0.4581
 8316SOL     OW25525   9.895   9.260   5.731  0.1621  0.2211 -0.2862
 8316SOL    HW125526   9.802   9.239   5.734  0.3037 -0.5400 -0.9527
 8316SOL    HW225527   9.923   9.233   5.644  1.2116 -0.4538  0.2384
 8317SOL     OW25528   6.409   1.647   4.657 -0.4429 -0.0250  0.2131
 8317SOL    HW125529   6.456   1.615   4.734 -0.2392  0.6682  0.3888
 8317SOL    HW225530   6.467   1.715   4.621 -0.0920 -0.9758 -1.0962
 8318SOL     OW25531   6.399   9.821   2.320  0.1167  0.0308 -0.0049
 8318SOL    HW125532   6.386   9.861   2.406  0.1672 -2.3471  1.2117
 8318SOL    HW225533   6.311   9.801   2.289  0.1084  0.7026 -0.4277
 8319SOL     OW25534   3.451   4.402   1.264 -0.5823 -0.3832  0.2843
 8319SOL    HW125535   3.510   4.380   1.192 -0.8180 -0.6715  0.1825
 8319SOL    HW225536   3.379   4.450   1.224  0.6707  1.9903  0.6837
 8320SOL     OW25537   7.504   5.857   1.362  0.4283 -0.3465 -0.6930
 8320SOL    HW125538   7.496   5.903   1.445 -0.9178  1.4528 -1.7488
 8320SOL    HW225539   7.599   5.849   1.348  0.6686 -0.0421  0.6618
 8321SOL     OW25540   8.092   6.987   1.861 -0.0985  0.1759 -0.2296
 8321SOL    HW125541   8.142   7.068   1.852 -1.5109  1.5612  2.8902
 8321SOL    HW225542   8.151   6.928   1.910  0.3371 -0.1642 -1.1285
 8322SOL     OW25543   3.334   0.651   2.879 -0.0361 -0.3186 -0.0275
 8322SOL    HW125544   3.384   0.686   2.952 -0.0910  0.1131 -0.1958
 8322SOL    HW225545   3.266   0.597   2.919  0.9413 -1.4256  0.1913
 8323SOL     OW25546   7.491   4.467   6.544  0.3536  0.2284  0.5646
 8323SOL    HW125547   7.458   4.557   6.544  0.8590  0.4582  2.2517
 8323SOL    HW225548   7.581   4.474   6.512  1.4214  0.8399  3.3777
 8324SOL     OW25549   2.012   0.427   2.339 -0.7120  0.2590 -0.2981
 8324SOL    HW125550   1.991   0.500   2.281 -0.4219  0.9413  0.4221
 8324SOL    HW225551   2.005   0.464   2.427  2.0951  0.1955  0.0367
 8325SOL     OW25552   1.482   4.252   5.637  0.0643 -0.3965  0.3388
 8325SOL    HW125553   1.488   4.277   5.545 -0.3779 -1.1602  0.0912
 8325SOL    HW225554   1.544   4.179   5.647  1.6227  0.9692  1.1370
 8326SOL     OW25555   8.330   1.462   3.040  0.3305 -0.0377 -0.3460
 8326SOL    HW125556   8.296   1.549   3.020  1.1079  0.0381 -1.3982
 8326SOL    HW225557   8.274   1.431   3.111 -1.0714  0.6143 -1.1142
 8327SOL     OW25558   2.937   7.083   8.678  0.1614 -0.0057 -0.0135
 8327SOL    HW125559   2.983   7.111   8.599  1.4036 -0.1516  0.6439
 8327SOL    HW225560   3.006   7.061   8.740 -0.7961 -0.2346  1.0027
 8328SOL     OW25561   0.744   3.455   1.306  0.3845  0.4320 -0.3674
 8328SOL    HW125562   0.739   3.521   1.237  0.8221  0.1031 -0.7263
 8328SOL    HW225563   0.673   3.394   1.285  0.2054  0.5968 -0.2420
 8329SOL     OW25564   6.547   3.989   4.289 -0.1593 -0.1333 -0.2227
 8329SOL    HW125565   6.505   3.971   4.205  0.8902  0.5762 -0.9260
 8329SOL    HW225566   6.610   4.059   4.270  1.9140 -1.6794  0.6157
 8330SOL     OW25567   9.737   2.954   5.556 -0.1383 -0.0226 -0.6130
 8330SOL    HW125568   9.826   2.923   5.538 -0.2173 -1.0709  0.6280
 8330SOL    HW225569   9.749   3.044   5.587  0.5034 -0.1558 -0.4560
 8331SOL     OW25570   0.325   8.763   1.577  0.4874  0.2470 -0.1972
 8331SOL    HW125571   0.362   8.813   1.504 -0.2465  0.3911 -0.4796
 8331SOL    HW225572   0.233   8.787   1.579  0.8020  1.5241  1.8358
 8332SOL     OW25573   7.899   0.769   3.598  0.0047  0.0706  0.3638
 8332SOL    HW125574   7.973   0.715   3.628  0.4698  0.2708 -0.3995
 8332SOL    HW225575   7.851   0.791   3.678  0.0323 -1.1415  0.7308
 8333SOL     OW25576   2.465   9.053   7.893 -0.1951  0.2002  0.7308
 8333SOL    HW125577   2.462   9.126   7.955  0.7392  0.3574  0.5989
 8333SOL    HW225578   2.419   8.982   7.938 -0.1704  0.5407  1.3036
 8334SOL     OW25579   8.966   0.306   5.602  0.1041  0.2397 -0.3006
 8334SOL    HW125580   8.978   0.213   5.622 -1.3265  0.3398  1.2173
 8334SOL    HW225581   8.875   0.314   5.574  0.5265  1.0353 -1.5623
 8335SOL     OW25582   2.153   9.369   9.787 -0.4014 -0.0498 -0.0018
 8335SOL    HW125583   2.131   9.405   9.873  0.9026  0.9916 -0.0800
 8335SOL    HW225584   2.243   9.398   9.771 -0.3952 -0.7920 -1.4272
 8336SOL     OW25585   4.255   3.804   1.348  0.4931 -0.3902 -0.1177
 8336SOL    HW125586   4.278   3.794   1.441  0.2472 -1.1251 -0.1367
 8336SOL    HW225587   4.260   3.899   1.333  1.1679 -0.3233  0.4809
 8337SOL     OW25588   0.911   5.973   6.461 -0.0627  0.1545  0.1038
 8337SOL    HW125589   0.959   5.916   6.402  1.0762  1.0003  0.1909
 8337SOL    HW225590   0.923   5.934   6.547  0.6004  0.4382  0.1453
 8338SOL     OW25591   2.420   6.063   0.514  0.3126  0.5250  0.4931
 8338SOL    HW125592   2.503   6.026   0.544  1.6661  0.0210 -3.3120
 8338SOL    HW225593   2.363   5.987   0.500  0.2974  0.5802  0.2385
 8339SOL     OW25594   1.472   5.798   5.222 -0.0046  0.0578  0.5611
 8339SOL    HW125595   1.429   5.864   5.168 -1.1320 -2.1314 -1.4376
 8339SOL    HW225596   1.464   5.831   5.312  0.1684  2.9189 -0.3778
 8340SOL     OW25597   0.204   7.372   4.225  0.3257  0.0737  0.4157
 8340SOL    HW125598   0.136   7.319   4.267 -0.2449 -0.1106 -0.7120
 8340SOL    HW225599   0.282   7.316   4.227 -0.3379 -0.9619 -1.0055
 8341SOL     OW25600   1.725   8.980   2.511 -0.1281 -0.8643  0.6143
 8341SOL    HW125601   1.711   9.067   2.547  1.7411 -0.2611 -0.0170
 8341SOL    HW225602   1.730   8.923   2.589 -2.0157 -0.5576  0.9984
 8342SOL     OW25603   7.566   5.100   5.827  0.3097  0.2170  0.1768
 8342SOL    HW125604   7.604   5.180   5.789  0.7719 -0.7931 -1.5684
 8342SOL    HW225605   7.501   5.072   5.763  1.1746 -1.5915  0.0438
 8343SOL     OW25606   0.356   9.721   9.172 -0.4751  0.2249  0.7861
 8343SOL    HW125607   0.348   9.793   9.109 -0.8680  0.6126  1.2828
 8343SOL    HW225608   0.272   9.717   9.216 -0.3959 -0.4266  0.8910
 8344SOL     OW25609   5.592   3.144   4.097 -0.4412  0.1533 -0.2560
 8344SOL    HW125610   5.618   3.125   4.187  3.8927  0.8711 -1.1113
 8344SOL    HW225611   5.556   3.061   4.064  0.2898 -0.8838  1.4393
 8345SOL     OW25612   1.866   4.314   3.086  0.5790  0.4617  0.3851
 8345SOL    HW125613   1.917   4.395   3.088  1.8562 -0.2822  2.8402
 8345SOL    HW225614   1.865   4.288   2.994  1.8942  2.1938 -0.1714
 8346SOL     OW25615   7.829   1.940   0.710 -0.2025  0.2013  0.0661
 8346SOL    HW125616   7.824   1.850   0.740  0.6822  0.6084  1.6005
 8346SOL    HW225617   7.856   1.989   0.788 -0.6998  1.7891 -0.7195
 8347SOL     OW25618   6.273   6.460   7.238 -0.0142  0.0090 -0.1819
 8347SOL    HW125619   6.355   6.412   7.224 -0.3418 -1.0739  1.3399
 8347SOL    HW225620   6.300   6.544   7.274  0.4506 -0.1375 -0.1813
 8348SOL     OW25621   8.590   3.482   1.476 -0.4740  0.2895 -0.3983
 8348SOL    HW125622   8.504   3.523   1.480 -0.6519  0.2488 -2.4200
 8348SOL    HW225623   8.588   3.413   1.542 -0.9983  1.9799  1.4679
 8349SOL     OW25624   8.581   0.221   7.928  0.7344  0.2175  0.5678
 8349SOL    HW125625   8.577   0.135   7.970 -0.2985  0.4353  0.9591
 8349SOL    HW225626   8.629   0.276   7.991  1.4795 -0.0934  0.2726
 8350SOL     OW25627   7.773   2.828   0.411 -0.3312  0.2172  0.5539
 8350SOL    HW125628   7.796   2.892   0.479 -0.9171 -0.0365  0.9997
 8350SOL    HW225629   7.838   2.758   0.421 -1.5163 -0.7138  2.1110
 8351SOL     OW25630   5.528   9.120   1.209 -0.2593 -0.5256 -0.3485
 8351SOL    HW125631   5.582   9.062   1.156 -1.1192 -0.8767 -0.8695
 8351SOL    HW225632   5.445   9.127   1.161 -0.3512  0.7540 -0.0574
 8352SOL     OW25633   6.116   8.088   6.879  0.5209  0.0931 -0.5049
 8352SOL    HW125634   6.140   8.022   6.943  0.2086  0.1234 -0.3557
 8352SOL    HW225635   6.135   8.172   6.922 -0.1220  0.1232 -0.2775
 8353SOL     OW25636   7.032   5.421   5.274 -0.2443 -0.2281 -0.1234
 8353SOL    HW125637   6.938   5.420   5.290  0.1147 -2.1458  2.4122
 8353SOL    HW225638   7.050   5.339   5.228  0.1707  0.4007 -1.1364
 8354SOL     OW25639   5.488   8.823   9.240  0.1238  0.5381  0.0333
 8354SOL    HW125640   5.551   8.871   9.186  0.9030 -0.4154  0.0610
 8354SOL    HW225641   5.440   8.768   9.178  0.7098 -0.2218  0.2350
 8355SOL     OW25642   6.997   1.730   9.347  0.2301 -0.2205  0.0261
 8355SOL    HW125643   7.091   1.738   9.363  0.2771  0.9255 -0.6784
 8355SOL    HW225644   6.967   1.665   9.410  1.5352 -0.7789  0.0943
 8356SOL     OW25645   9.658   0.281   7.841  0.2134  0.3607  0.0423
 8356SOL    HW125646   9.649   0.339   7.765  0.4633  0.3769  0.0236
 8356SOL    HW225647   9.584   0.221   7.834  0.5739 -0.0352 -0.5712
 8357SOL     OW25648   3.788   3.563   0.403  0.1346  0.2171 -0.6214
 8357SOL    HW125649   3.705   3.540   0.361 -0.6023 -0.3910  1.0504
 8357SOL    HW225650   3.762   3.616   0.478  1.1693 -0.6474  0.3893
 8358SOL     OW25651   7.506   2.202   9.078 -0.2090 -0.4648 -0.0342
 8358SOL    HW125652   7.489   2.293   9.052 -0.3931 -0.4666  0.0773
 8358SOL    HW225653   7.508   2.204   9.174  0.3732 -0.4764 -0.0429
 8359SOL     OW25654   6.911   7.666   7.129 -0.4393 -0.0713  0.0426
 8359SOL    HW125655   6.898   7.572   7.137  0.2231 -0.2457 -0.7609
 8359SOL    HW225656   6.969   7.689   7.201 -1.2491 -0.1273  0.7249
 8360SOL     OW25657   5.252   0.260   4.256  0.0860  0.0448  0.7797
 8360SOL    HW125658   5.310   0.320   4.304 -0.5641  0.5026  1.0029
 8360SOL    HW225659   5.168   0.304   4.254 -0.3317 -0.7302  0.6861
 8361SOL     OW25660   7.903   2.877   8.607  0.0819  0.3985  0.1182
 8361SOL    HW125661   7.809   2.864   8.603  0.0306  1.0598 -2.3378
 8361SOL    HW225662   7.920   2.949   8.546  2.3439 -0.7651 -0.7371
 8362SOL     OW25663   4.947   7.184   1.247  0.2494 -0.7186  0.5027
 8362SOL    HW125664   5.003   7.134   1.307 -0.3789 -1.2532  0.6511
 8362SOL    HW225665   4.863   7.189   1.291  0.1258 -0.0629  0.1995
 8363SOL     OW25666   8.827   7.341   1.407 -0.9069 -0.0960  0.4023
 8363SOL    HW125667   8.836   7.313   1.316 -1.3751 -1.0420  0.6317
 8363SOL    HW225668   8.775   7.420   1.403  1.9274  1.8742 -0.4121
 8364SOL     OW25669   4.054   8.254   4.965  0.0180  0.3186 -0.2129
 8364SOL    HW125670   4.076   8.286   4.878 -0.9631  1.0465 -0.2071
 8364SOL    HW225671   4.138   8.236   5.006  0.4835 -0.5467 -1.4904
 8365SOL     OW25672   0.111   6.513   7.601 -0.5018 -0.1212 -0.2682
 8365SOL    HW125673   0.095   6.563   7.681 -1.7329 -1.4370  0.3754
 8365SOL    HW225674   0.035   6.531   7.546  0.3756  0.8355 -1.2053
 8366SOL     OW25675   2.495   5.299   9.888  0.1251 -0.5099  0.2766
 8366SOL    HW125676   2.579   5.307   9.843  1.1339 -0.6320  2.0618
 8366SOL    HW225677   2.462   5.389   9.893  0.1231 -0.4660 -0.4578
 8367SOL     OW25678   4.941   5.834   5.766 -0.0488  0.3710  0.0073
 8367SOL    HW125679   4.938   5.888   5.687  1.3554 -1.2486 -1.2302
 8367SOL    HW225680   4.983   5.752   5.738 -2.2940 -1.5150  1.6886
 8368SOL     OW25681   6.464   9.316   4.480 -0.0555 -0.3628 -0.5999
 8368SOL    HW125682   6.374   9.285   4.486 -0.0829 -0.3571 -0.9701
 8368SOL    HW225683   6.513   9.242   4.445  0.1289 -0.4439 -0.1829
 8369SOL     OW25684   7.996   0.380   5.851  0.1412 -0.1548 -0.5201
 8369SOL    HW125685   7.944   0.461   5.855 -0.3300 -0.4755  0.0952
 8369SOL    HW225686   8.014   0.367   5.758 -0.5661  0.1674 -0.7088
 8370SOL     OW25687   6.886   3.122   2.420  0.1556 -0.1803 -0.2881
 8370SOL    HW125688   6.875   3.173   2.340  1.6744  1.2533  0.3467
 8370SOL    HW225689   6.846   3.177   2.488  3.2394  1.1315  0.6790
 8371SOL     OW25690   2.109   7.467   1.075  0.0995 -0.4101  0.3397
 8371SOL    HW125691   2.185   7.426   1.115  1.3734  1.4115 -0.1097
 8371SOL    HW225692   2.073   7.524   1.143 -1.4038 -1.8844  0.8260
 8372SOL     OW25693   6.265   5.026   9.091 -0.0981 -0.1023 -0.3951
 8372SOL    HW125694   6.237   5.049   9.002 -1.3722  0.2848  0.0907
 8372SOL    HW225695   6.344   5.078   9.105 -0.4428  0.5978 -0.9550
 8373SOL     OW25696   8.532   8.496   5.020  0.0031  0.5184  0.3797
 8373SOL    HW125697   8.529   8.556   4.946 -0.3354 -0.2320 -0.2403
 8373SOL    HW225698   8.625   8.481   5.035  0.0726  0.1456 -0.3545
 8374SOL     OW25699   8.684   7.603   6.695  0.1597 -0.2226  0.0858
 8374SOL    HW125700   8.774   7.572   6.687  0.3576  0.3026  0.1811
 8374SOL    HW225701   8.645   7.550   6.764  0.4844 -0.2696  0.2343
 8375SOL     OW25702   0.496   7.857   0.730 -0.2395  0.0504 -0.0330
 8375SOL    HW125703   0.403   7.882   0.725 -0.2486 -0.0536 -0.4938
 8375SOL    HW225704   0.506   7.820   0.817 -1.0244 -1.4341 -0.5240
 8376SOL     OW25705   2.792   7.501   5.296 -0.3141  0.4825  0.1013
 8376SOL    HW125706   2.724   7.505   5.229 -0.0048  0.6443 -0.1992
 8376SOL    HW225707   2.874   7.514   5.249 -0.0200 -0.2859  0.3822
 8377SOL     OW25708   4.890   1.289   3.236  0.1440  0.2581 -0.0113
 8377SOL    HW125709   4.930   1.213   3.195  0.2032 -0.8626  1.9787
 8377SOL    HW225710   4.943   1.363   3.208  1.5839 -0.7681 -0.0544
 8378SOL     OW25711   4.955   2.986   5.712 -0.6835  0.2746  0.3715
 8378SOL    HW125712   5.008   2.973   5.634 -0.9662 -0.8844  0.3614
 8378SOL    HW225713   4.962   3.080   5.730 -1.3904  0.7528 -1.5815
 8379SOL     OW25714   6.286   8.526   3.487 -0.3312 -0.4981 -0.0301
 8379SOL    HW125715   6.288   8.476   3.406 -0.9425 -0.1970 -0.2366
 8379SOL    HW225716   6.274   8.461   3.556 -2.2239 -0.5829 -0.3818
 8380SOL     OW25717   2.951   2.930   4.047  0.2368 -0.0263 -0.3712
 8380SOL    HW125718   2.911   3.000   4.098 -1.2278 -1.9215  1.2341
 8380SOL    HW225719   3.034   2.913   4.091 -0.4117 -0.7460  0.6058
 8381SOL     OW25720   6.978   7.155   2.157  0.1970 -0.4247 -0.2820
 8381SOL    HW125721   6.942   7.192   2.076  0.2012  0.6496  0.1883
 8381SOL    HW225722   6.911   7.174   2.223  1.3585  1.1911  0.5137
 8382SOL     OW25723   4.972   9.012   1.809 -0.3408  0.2484  0.1082
 8382SOL    HW125724   4.992   8.920   1.829 -1.8807 -0.3170 -0.7634
 8382SOL    HW225725   4.908   9.037   1.875 -0.0218  0.6525  0.2618
 8383SOL     OW25726   0.883   4.866   5.119  0.0049 -0.3893  0.2645
 8383SOL    HW125727   0.813   4.814   5.080  1.7761 -2.3339 -0.5166
 8383SOL    HW225728   0.922   4.913   5.046  2.1642 -2.6290 -0.1444
 8384SOL     OW25729   9.577   7.374   0.525 -0.0756  0.3489  0.5466
 8384SOL    HW125730   9.529   7.291   0.534  0.7771  0.0359  3.4973
 8384SOL    HW225731   9.667   7.347   0.506  0.3368  0.5086  2.1499
 8385SOL     OW25732   0.168   3.023   3.362 -0.2680 -0.3080 -0.0480
 8385SOL    HW125733   0.207   2.936   3.371 -1.8046 -1.0526 -0.2071
 8385SOL    HW225734   0.118   3.035   3.443  0.5723  0.7888  0.3296
 8386SOL     OW25735   3.061   1.099   0.373 -0.5084  0.2783  0.2823
 8386SOL    HW125736   2.998   1.030   0.389 -0.7791  0.9035  2.0871
 8386SOL    HW225737   3.014   1.163   0.319 -0.7367 -0.1931 -0.0880
 8387SOL     OW25738   5.984   7.340   9.562 -0.2858 -0.0648 -0.2350
 8387SOL    HW125739   5.936   7.421   9.545 -1.6632 -0.8921 -0.4345
 8387SOL    HW225740   6.075   7.368   9.575 -0.9352  1.6386  0.9404
 8388SOL     OW25741   9.295   9.298   7.186 -0.1288 -0.7437  0.0827
 8388SOL    HW125742   9.222   9.330   7.132  0.9662 -0.1766 -1.1167
 8388SOL    HW225743   9.313   9.210   7.151  1.1988 -0.0170 -1.2029
 8389SOL     OW25744   3.327   6.224   6.577  0.0715 -0.7541 -0.5016
 8389SOL    HW125745   3.345   6.137   6.544 -0.8358 -0.5186 -1.6925
 8389SOL    HW225746   3.268   6.263   6.512 -3.3246 -0.9079  2.2309
 8390SOL     OW25747   9.603   1.193   8.067  0.2050  0.3948 -0.4324
 8390SOL    HW125748   9.695   1.219   8.078  0.9258 -1.4829 -1.4439
 8390SOL    HW225749   9.575   1.165   8.154  0.0660  2.4299  0.2151
 8391SOL     OW25750   3.163   7.797   4.865  0.3600 -0.6284 -0.0730
 8391SOL    HW125751   3.120   7.858   4.925 -1.9337 -1.2263 -1.0248
 8391SOL    HW225752   3.257   7.807   4.884  0.0273  2.4513  0.4911
 8392SOL     OW25753   5.988   2.502   9.797  0.0755 -0.4916 -0.2711
 8392SOL    HW125754   5.954   2.578   9.844  0.6864  0.4501 -1.3107
 8392SOL    HW225755   5.938   2.500   9.715  0.4175 -0.9085 -0.4715
 8393SOL     OW25756   9.192   0.924   4.865  0.0511 -0.2571  0.1886
 8393SOL    HW125757   9.284   0.942   4.885  0.5444 -0.1545 -1.9601
 8393SOL    HW225758   9.177   0.835   4.899  1.0874 -0.4725  0.1050
 8394SOL     OW25759   3.062   1.596   8.623 -0.5511 -0.1138 -0.0437
 8394SOL    HW125760   3.000   1.593   8.696 -0.8160  1.3917 -0.1900
 8394SOL    HW225761   3.091   1.505   8.613 -3.2292 -1.0043 -0.4109
 8395SOL     OW25762   3.234   6.798   2.927 -0.1608  0.2537  0.0105
 8395SOL    HW125763   3.219   6.750   3.009  1.6314 -0.4080  0.0086
 8395SOL    HW225764   3.239   6.731   2.860  0.8169  0.5573 -0.2399
 8396SOL     OW25765   3.479   4.534   7.470  0.8251  0.1806  1.0338
 8396SOL    HW125766   3.512   4.472   7.535  2.3395 -0.2108 -0.0408
 8396SOL    HW225767   3.558   4.567   7.428 -0.0176  1.9997  0.8010
 8397SOL     OW25768   9.133   2.019   9.102 -0.0484  0.1170  0.4547
 8397SOL    HW125769   9.145   1.924   9.113 -1.4362 -0.3062 -1.2227
 8397SOL    HW225770   9.067   2.042   9.167 -2.9751 -0.9937 -1.8918
 8398SOL     OW25771   8.478   3.856   0.004  0.1148 -0.8342  0.3087
 8398SOL    HW125772   8.571   3.860   0.028  0.6691 -1.2366 -1.5991
 8398SOL    HW225773   8.454   3.764   0.018 -0.1685 -0.6209  1.3097
 8399SOL     OW25774   4.525   3.684   7.737 -0.0683  0.0035  0.1179
 8399SOL    HW125775   4.509   3.754   7.673 -2.0882 -0.1108  0.4510
 8399SOL    HW225776   4.536   3.606   7.683 -1.0460  0.0334 -0.1453
 8400SOL     OW25777   0.584   4.165   2.821 -0.0199  0.0594 -0.4863
 8400SOL    HW125778   0.651   4.106   2.785  1.7648  1.4143  0.4933
 8400SOL    HW225779   0.630   4.247   2.838 -1.7252  0.7589  1.1018
 8401SOL     OW25780   5.862   8.288   4.773  0.2121 -0.5693 -0.8561
 8401SOL    HW125781   5.789   8.282   4.712 -0.0531 -0.7430 -0.5242
 8401SOL    HW225782   5.821   8.290   4.860  0.5581  0.2100 -0.6984
 8402SOL     OW25783   6.227   7.377   2.655 -0.0832  0.3896  0.3115
 8402SOL    HW125784   6.243   7.292   2.694  0.0313 -0.5215 -1.5937
 8402SOL    HW225785   6.298   7.388   2.591 -1.5756  0.6817 -1.3641
 8403SOL     OW25786   1.641   5.681   5.721 -0.7479 -0.0339 -0.2004
 8403SOL    HW125787   1.627   5.774   5.702 -2.1785  0.1662  1.5971
 8403SOL    HW225788   1.555   5.641   5.706 -0.3433 -0.9269 -0.1821
 8404SOL     OW25789   9.550   5.853   9.942 -0.4950  0.2889  0.1120
 8404SOL    HW125790   9.513   5.767   9.923 -0.6352  0.2383  0.5925
 8404SOL    HW225791   9.569   5.850  10.036 -1.7822  1.2588  0.4369
 8405SOL     OW25792   8.286   5.862   5.899  0.3028  0.1134 -0.2796
 8405SOL    HW125793   8.343   5.931   5.933 -1.5292  0.8104  1.6108
 8405SOL    HW225794   8.309   5.785   5.952 -1.7723  0.9099  1.9337
 8406SOL     OW25795   1.908   6.781   4.062 -0.1684 -0.6632  0.1018
 8406SOL    HW125796   1.955   6.708   4.020 -0.2655 -0.4377 -0.4126
 8406SOL    HW225797   1.965   6.807   4.134  0.2271 -0.7701 -0.1631
 8407SOL     OW25798   2.908   6.548   1.980 -0.0168 -0.3234 -0.3194
 8407SOL    HW125799   2.943   6.459   1.976 -1.2190 -0.8152 -0.4152
 8407SOL    HW225800   2.826   6.543   1.930 -0.2611  0.7600 -0.0452
 8408SOL     OW25801   2.955   6.994   4.446  0.3264 -0.3106 -0.4862
 8408SOL    HW125802   3.021   7.019   4.511  0.6211  0.0031 -0.8938
 8408SOL    HW225803   2.988   6.911   4.409 -0.2659 -0.9231  0.3385
 8409SOL     OW25804   6.825   2.642   4.218 -0.3370  1.0619 -0.3914
 8409SOL    HW125805   6.741   2.622   4.260  1.6712 -1.8397  2.7272
 8409SOL    HW225806   6.829   2.583   4.143 -0.3924 -0.0738  0.4757
 8410SOL     OW25807   4.238   7.088   7.676  0.3340 -0.0863 -0.7070
 8410SOL    HW125808   4.288   7.006   7.677 -0.9635 -0.9058 -0.5307
 8410SOL    HW225809   4.231   7.112   7.769 -0.0195 -0.2497 -0.6895
 8411SOL     OW25810   5.246   9.023   4.606 -0.2616 -0.0067 -0.1949
 8411SOL    HW125811   5.230   8.929   4.615  1.8435 -0.5079 -1.1436
 8411SOL    HW225812   5.195   9.049   4.530 -2.8095  0.2093  1.4666
 8412SOL     OW25813   7.569   6.025   4.346  0.4784  0.2633  0.1168
 8412SOL    HW125814   7.547   6.114   4.316  1.0196  0.6307  0.7755
 8412SOL    HW225815   7.527   5.967   4.282  2.5845  0.9963 -2.0765
 8413SOL     OW25816   5.918   3.576   6.754  0.5264 -0.2947 -0.7784
 8413SOL    HW125817   5.990   3.540   6.805  0.7101  2.3023  1.0017
 8413SOL    HW225818   5.958   3.644   6.700 -0.5075  1.1378  0.1792
 8414SOL     OW25819   1.743   7.047   8.278  0.3472  0.3173 -0.0862
 8414SOL    HW125820   1.702   6.972   8.236  0.8781  0.4404 -0.8395
 8414SOL    HW225821   1.681   7.119   8.266  0.3565  0.2755 -0.3907
 8415SOL     OW25822   8.610   4.559   2.828 -0.0999 -0.8718 -0.9253
 8415SOL    HW125823   8.521   4.593   2.816  0.7132  1.9806  0.0899
 8415SOL    HW225824   8.635   4.526   2.742 -1.8870 -1.1149 -1.3977
 8416SOL     OW25825   0.767   4.468   5.813  0.3946  0.7363  0.2412
 8416SOL    HW125826   0.724   4.392   5.854  2.2679 -0.6712 -0.2507
 8416SOL    HW225827   0.760   4.452   5.719  2.0533  0.3663  0.1434
 8417SOL     OW25828   2.276   3.223   5.343 -0.1510 -0.6283  0.3611
 8417SOL    HW125829   2.197   3.263   5.307  1.7719  1.8241 -1.4936
 8417SOL    HW225830   2.272   3.132   5.315 -2.2973 -0.5935  0.3906
 8418SOL     OW25831   0.125   2.003   2.595 -0.3360 -0.1498  0.0606
 8418SOL    HW125832   0.167   2.054   2.527 -0.9369  0.3624  0.0695
 8418SOL    HW225833   0.185   2.008   2.670 -0.8623  1.4072  0.4046
 8419SOL     OW25834   0.092   7.092   0.449 -0.0512 -0.1170 -0.6872
 8419SOL    HW125835   0.179   7.130   0.459  0.9695 -2.1358 -1.3320
 8419SOL    HW225836   0.077   7.092   0.355 -0.4926 -0.3507 -0.6182
 8420SOL     OW25837   6.702   0.176   4.003  0.3830  0.1776 -0.5056
 8420SOL    HW125838   6.718   0.167   4.097  1.0080  0.2412 -0.6020
 8420SOL    HW225839   6.663   0.262   3.994  1.3310  0.6290 -0.4188
 8421SOL     OW25840   8.010   3.787   5.782  0.2801  0.5398  0.2996
 8421SOL    HW125841   8.048   3.719   5.726 -0.8674  0.9722 -1.0646
 8421SOL    HW225842   8.067   3.789   5.858  1.4189 -0.6673 -0.4647
 8422SOL     OW25843   4.691   5.256   0.255 -0.6352  0.4768  0.4140
 8422SOL    HW125844   4.771   5.308   0.243 -0.5832  0.4260  0.5461
 8422SOL    HW225845   4.704   5.209   0.337  0.3353 -1.5979 -0.8620
 8423SOL     OW25846   0.862   9.789   0.478 -0.1529  0.1701 -0.3905
 8423SOL    HW125847   0.891   9.747   0.397 -2.2313  1.3227 -1.8333
 8423SOL    HW225848   0.926   9.858   0.494  1.1599 -1.0796 -0.1256
 8424SOL     OW25849   8.252   5.436   6.941  0.1341  0.4811  0.0375
 8424SOL    HW125850   8.343   5.454   6.967  0.2538 -0.6512  0.4458
 8424SOL    HW225851   8.257   5.421   6.847  0.0355  2.4309 -0.3260
 8425SOL     OW25852   5.899   2.955   2.792  0.4897  0.1217  0.6886
 8425SOL    HW125853   5.962   2.882   2.792 -0.9908 -1.2223 -0.7465
 8425SOL    HW225854   5.891   2.979   2.700  0.8124  2.0279  1.1313
 8426SOL     OW25855   8.868   3.760   7.297 -0.0693  0.4797  0.0659
 8426SOL    HW125856   8.920   3.836   7.322  2.1193 -1.1265  0.6286
 8426SOL    HW225857   8.840   3.722   7.381  0.6457 -0.4989 -0.1271
 8427SOL     OW25858   1.641   2.710   1.690 -0.1019 -0.1610 -0.4796
 8427SOL    HW125859   1.673   2.774   1.627  0.5727 -1.0375 -1.0570
 8427SOL    HW225860   1.593   2.762   1.756 -1.4450  0.7131 -2.0646
 8428SOL     OW25861   3.876   9.705   4.085  0.2229  0.2370  0.1208
 8428SOL    HW125862   3.818   9.631   4.101  2.5300 -1.7388 -0.0622
 8428SOL    HW225863   3.895   9.700   3.991  1.7369 -0.0042  0.4276
 8429SOL     OW25864   1.077   8.194   0.349 -0.2422  0.3337 -0.6083
 8429SOL    HW125865   1.019   8.234   0.285 -2.3661 -1.8269 -0.1785
 8429SOL    HW225866   1.048   8.103   0.354  2.5935 -0.6232  0.3838
 8430SOL     OW25867   1.431   4.931   9.329  0.0467  0.3889  0.1948
 8430SOL    HW125868   1.385   4.889   9.401  1.5854  0.5325  1.2986
 8430SOL    HW225869   1.515   4.958   9.366  1.7988 -1.4087 -2.1559
 8431SOL     OW25870   0.179   7.570   0.946 -0.0544 -0.3760  0.1657
 8431SOL    HW125871   0.148   7.593   1.034 -0.0787 -0.8610  0.2838
 8431SOL    HW225872   0.104   7.586   0.889  0.2751  0.9684  0.0675
 8432SOL     OW25873   2.653   3.614   2.837 -0.2817  0.0616  0.1871
 8432SOL    HW125874   2.615   3.691   2.794  1.3404  3.2163  3.7792
 8432SOL    HW225875   2.748   3.624   2.826 -0.0360 -2.6121 -0.8804
 8433SOL     OW25876   7.979   5.454   6.930  0.1923  0.3906  0.0886
 8433SOL    HW125877   7.960   5.527   6.870  1.1259  2.0900  1.7576
 8433SOL    HW225878   8.075   5.448   6.931  0.1649 -0.0892  0.8646
 8434SOL     OW25879   6.919   7.850   3.345  0.2133  0.0238  0.7609
 8434SOL    HW125880   6.841   7.836   3.292  0.5898  0.4739  0.0725
 8434SOL    HW225881   6.960   7.928   3.308  0.1161  0.7712  2.1807
 8435SOL     OW25882   1.827   6.535   3.333  0.9115  0.4409 -0.0273
 8435SOL    HW125883   1.824   6.468   3.265 -1.1405 -1.1449  1.4659
 8435SOL    HW225884   1.743   6.581   3.325  1.3841  1.3852  0.3431
 8436SOL     OW25885   3.543   8.955   7.545  0.2690 -0.0655 -0.1275
 8436SOL    HW125886   3.573   8.937   7.456  0.3949  0.3950 -0.1833
 8436SOL    HW225887   3.447   8.949   7.540  0.3094 -0.6846 -0.1456
 8437SOL     OW25888   2.730   0.071   6.259 -0.4707  0.2962  0.8368
 8437SOL    HW125889   2.653   0.018   6.277  0.2212 -0.8581  0.4590
 8437SOL    HW225890   2.801   0.008   6.243 -0.2157  1.1993 -2.4188
 8438SOL     OW25891   3.135   7.531   6.845  0.0778 -0.3115 -0.1676
 8438SOL    HW125892   3.222   7.539   6.882 -0.4565 -2.1700  1.7573
 8438SOL    HW225893   3.133   7.443   6.807 -0.2582  0.5720 -2.3025
 8439SOL     OW25894   9.105   4.955   9.595 -0.2350 -0.0478 -0.2994
 8439SOL    HW125895   9.087   5.046   9.572  1.8130  0.4899  0.0318
 8439SOL    HW225896   9.051   4.939   9.672 -1.9260  0.3155 -1.3720
 8440SOL     OW25897   8.175   5.323   9.283 -0.4389  0.4203  0.6760
 8440SOL    HW125898   8.093   5.281   9.256  0.0461 -0.1844  0.1054
 8440SOL    HW225899   8.240   5.253   9.278  0.4542  1.3057 -0.6005
 8441SOL     OW25900   6.132   4.279   7.883 -0.0087  0.0520 -0.0969
 8441SOL    HW125901   6.075   4.276   7.806 -0.3797  0.7973  0.1366
 8441SOL    HW225902   6.082   4.234   7.951 -0.2289  0.5043  0.0454
 8442SOL     OW25903   8.568   7.455   5.253 -0.0884  0.3018 -0.5565
 8442SOL    HW125904   8.477   7.426   5.243 -0.7542  1.7324  0.9053
 8442SOL    HW225905   8.561   7.546   5.282  1.8505  0.8488 -1.6305
 8443SOL     OW25906   1.241   3.987   3.464 -0.5440  0.2488 -0.9900
 8443SOL    HW125907   1.266   3.951   3.549  1.3131  1.1721 -1.0895
 8443SOL    HW225908   1.173   3.928   3.432 -0.1788 -1.0189  0.4428
 8444SOL     OW25909   2.084   3.994   4.147  0.0045  0.0798 -0.6933
 8444SOL    HW125910   2.122   4.042   4.074  0.1237 -0.9981 -1.3680
 8444SOL    HW225911   2.126   3.908   4.143 -0.5581 -0.2459  0.1764
 8445SOL     OW25912   3.257   1.438   4.962 -0.0870  0.0299 -0.0092
 8445SOL    HW125913   3.227   1.409   4.875  1.9433 -0.8857 -0.4767
 8445SOL    HW225914   3.350   1.413   4.964  0.3841  1.7180  1.7255
 8446SOL     OW25915   0.646   6.984   3.379  0.2870 -0.3829 -0.2937
 8446SOL    HW125916   0.625   7.076   3.366 -0.4735 -0.6774 -1.2447
 8446SOL    HW225917   0.665   6.950   3.291  0.2941 -1.1915  0.0042
 8447SOL     OW25918   6.763   9.315   0.534  0.0330 -0.2401 -0.3488
 8447SOL    HW125919   6.671   9.300   0.510 -0.1479  0.4351 -0.1219
 8447SOL    HW225920   6.813   9.290   0.457 -0.2972 -1.1667 -0.2733
 8448SOL     OW25921   6.453   1.482   7.735  0.2289 -0.5453 -0.3501
 8448SOL    HW125922   6.430   1.391   7.717  0.0588 -0.6235  0.2491
 8448SOL    HW225923   6.539   1.477   7.778 -0.4563 -0.5422  1.0664
 8449SOL     OW25924   3.911   4.661   8.802  0.1367  0.4919 -0.5038
 8449SOL    HW125925   3.866   4.741   8.774 -0.8096 -0.2386 -1.1416
 8449SOL    HW225926   3.841   4.597   8.814  1.0416 -1.0060 -2.6105
 8450SOL     OW25927   1.687   6.733   2.815  0.3267  0.2916 -0.1786
 8450SOL    HW125928   1.707   6.727   2.721 -2.8283  0.0083 -0.9329
 8450SOL    HW225929   1.702   6.825   2.836 -0.0300  0.6192 -1.2559
 8451SOL     OW25930   2.520   7.734   9.395  0.2305 -0.4300  0.0553
 8451SOL    HW125931   2.551   7.694   9.314  1.6188 -0.5579  0.6251
 8451SOL    HW225932   2.427   7.754   9.378  0.6955  0.3266 -1.8519
 8452SOL     OW25933   6.992   6.307   4.911  0.3626  0.4271  0.6161
 8452SOL    HW125934   6.942   6.289   4.832  0.7719 -1.2076  0.6947
 8452SOL    HW225935   7.005   6.402   4.910 -1.9886  0.7938  0.1782
 8453SOL     OW25936   5.365   2.883   4.247 -0.3247 -0.4304 -0.2626
 8453SOL    HW125937   5.400   2.877   4.158  2.5135 -0.5400  0.7508
 8453SOL    HW225938   5.439   2.914   4.300 -1.3073 -2.2058  2.3864
 8454SOL     OW25939   2.518   1.529   1.110  0.4751  0.4400 -0.7028
 8454SOL    HW125940   2.470   1.531   1.027  2.1791  0.6804 -1.7466
 8454SOL    HW225941   2.549   1.619   1.121 -1.7815  1.0450  1.5269
 8455SOL     OW25942   1.046   8.281   6.128 -0.3969  0.1227 -0.4566
 8455SOL    HW125943   1.110   8.316   6.191 -0.0407 -2.5175  0.7995
 8455SOL    HW225944   1.096   8.218   6.076 -1.3102  0.3028 -1.5766
 8456SOL     OW25945   6.490   5.306   0.417  0.5046 -0.0860  0.3788
 8456SOL    HW125946   6.576   5.345   0.400  1.1570 -1.4198  0.5091
 8456SOL    HW225947   6.460   5.350   0.496  1.1847  0.2352  0.4689
 8457SOL     OW25948   0.773   7.605   9.365 -0.7236 -0.1348 -0.3142
 8457SOL    HW125949   0.869   7.609   9.375 -0.9012  0.2177  1.4987
 8457SOL    HW225950   0.755   7.664   9.292  0.4276 -0.0590 -0.5623
 8458SOL     OW25951   0.133   7.808   9.187  0.0522 -0.0022  0.9490
 8458SOL    HW125952   0.168   7.742   9.247 -0.2216  0.1081  1.2313
 8458SOL    HW225953   0.082   7.867   9.243  0.4179  0.5337  0.7179
 8459SOL     OW25954   8.536   6.520   7.339 -0.3221 -0.4591  0.0561
 8459SOL    HW125955   8.567   6.512   7.429 -0.2368  0.0098  0.0681
 8459SOL    HW225956   8.584   6.594   7.303  0.5104 -1.3496 -0.7410
 8460SOL     OW25957   9.856   5.299   6.381 -0.1389  0.0792  0.2924
 8460SOL    HW125958   9.863   5.394   6.393  0.9145 -0.1764  1.9396
 8460SOL    HW225959   9.763   5.280   6.395 -0.8524  1.1153 -2.4032
 8461SOL     OW25960   8.466   5.451   9.345  0.1036  0.3472  0.0244
 8461SOL    HW125961   8.381   5.408   9.336  0.3923 -0.0646 -0.8430
 8461SOL    HW225962   8.529   5.379   9.352  0.4297  0.6469  0.2560
 8462SOL     OW25963   1.823   9.708   4.733  0.3661  0.0308 -0.1841
 8462SOL    HW125964   1.758   9.755   4.786  0.6512  2.1418 -1.5632
 8462SOL    HW225965   1.774   9.680   4.656  1.4376  4.2456 -2.7172
 8463SOL     OW25966   1.145   7.965   5.444  0.6844 -0.2124 -0.3050
 8463SOL    HW125967   1.073   7.914   5.406  1.9383 -1.8366 -0.5722
 8463SOL    HW225968   1.137   8.051   5.403 -0.4939 -0.6618 -1.0795
 8464SOL     OW25969   1.024   4.896   1.256 -0.1996 -0.4055 -0.4083
 8464SOL    HW125970   0.936   4.930   1.271 -0.8171 -0.2248 -3.7070
 8464SOL    HW225971   1.075   4.972   1.228  0.7760 -0.7102  0.4601
 8465SOL     OW25972   0.031   6.585   2.205 -0.6064 -0.0864 -0.1304
 8465SOL    HW125973   0.020   6.496   2.238  0.0907  0.5923  2.0868
 8465SOL    HW225974   0.090   6.575   2.130 -0.5182 -1.4948  0.0896
 8466SOL     OW25975   7.882   2.504   7.358 -0.3255  0.3618  0.0382
 8466SOL    HW125976   7.962   2.546   7.390  0.5497  0.4362 -2.1296
 8466SOL    HW225977   7.856   2.446   7.430  0.3619  1.9978  1.7028
 8467SOL     OW25978   6.553   0.969   8.352 -0.1324  0.4420 -0.4508
 8467SOL    HW125979   6.573   0.982   8.444 -0.7058  1.4425 -0.4568
 8467SOL    HW225980   6.473   0.916   8.352 -0.4864  0.9757 -0.3663
 8468SOL     OW25981   2.940   1.556   1.678  0.0720 -0.0517  0.5526
 8468SOL    HW125982   2.956   1.513   1.594  0.3735  0.8501  0.1442
 8468SOL    HW225983   2.932   1.649   1.657  0.3465  0.2084  1.5442
 8469SOL     OW25984   0.118   2.300   0.644  0.0635  0.1304  0.4519
 8469SOL    HW125985   0.204   2.259   0.635 -0.6148 -1.3759  0.5591
 8469SOL    HW225986   0.127   2.384   0.600  1.8165  0.3403  1.1381
 8470SOL     OW25987   2.609   1.733   4.244  0.4881 -0.1879 -0.0512
 8470SOL    HW125988   2.581   1.693   4.162  2.1070 -0.4113 -0.5374
 8470SOL    HW225989   2.530   1.774   4.280 -0.8055 -2.1958 -0.4669
 8471SOL     OW25990   6.499   4.954   7.645  0.5764 -0.0502 -0.2277
 8471SOL    HW125991   6.574   4.954   7.704 -0.7187  2.2596  1.6344
 8471SOL    HW225992   6.490   5.045   7.617 -0.8598 -0.4778 -1.3083
 8472SOL     OW25993   6.260   5.599   4.730  0.0689 -0.0568  0.1714
 8472SOL    HW125994   6.242   5.553   4.648 -0.1197 -0.2658  0.3277
 8472SOL    HW225995   6.337   5.653   4.711  0.3769 -0.5369  0.0242
 8473SOL     OW25996   2.302   7.051   6.528 -0.1945 -0.3038  0.2105
 8473SOL    HW125997   2.333   6.997   6.455 -0.9870 -0.4613 -0.0184
 8473SOL    HW225998   2.216   7.083   6.499 -1.4194 -1.9461  1.8513
 8474SOL     OW25999   7.787   7.612   3.345  0.3539 -0.6737  0.2103
 8474SOL    HW126000   7.727   7.583   3.414 -0.2587  1.7457  0.8171
 8474SOL    HW226001   7.864   7.644   3.392  0.1550  0.4990 -0.2136
 8475SOL     OW26002   6.036   3.171   2.264 -0.2560 -0.4190  0.2799
 8475SOL    HW126003   6.032   3.126   2.179  3.1936 -0.3891 -0.0554
 8475SOL    HW226004   6.065   3.260   2.242 -2.5230  0.6319  1.2997
 8476SOL     OW26005   1.554   3.610   0.502 -0.2205  0.5201 -0.4157
 8476SOL    HW126006   1.641   3.647   0.513 -0.7957  1.4743  1.0760
 8476SOL    HW226007   1.564   3.518   0.528  0.5103  0.3922 -1.0965
 8477SOL     OW26008   0.213   3.853   0.363 -0.6169 -0.4885  0.0134
 8477SOL    HW126009   0.254   3.918   0.306  0.0023  0.6272  1.6674
 8477SOL    HW226010   0.273   3.778   0.360  0.4166  0.2775  0.6233
 8478SOL     OW26011   0.871   3.782   7.737 -0.3257  0.8622  0.1647
 8478SOL    HW126012   0.845   3.873   7.730 -0.3185  0.9468  1.1245
 8478SOL    HW226013   0.954   3.784   7.785 -0.2226  0.3655  0.0199
 8479SOL     OW26014   7.320   9.242   6.980  0.4698  0.4915 -0.1958
 8479SOL    HW126015   7.327   9.296   7.059 -1.0437  0.1989  0.1573
 8479SOL    HW226016   7.290   9.302   6.912 -0.3366  0.2893 -0.0208
 8480SOL     OW26017   5.374   7.114   4.859 -0.2574  0.8043 -0.9034
 8480SOL    HW126018   5.361   7.058   4.783 -0.3248  0.0363 -0.3427
 8480SOL    HW226019   5.412   7.056   4.925 -2.0897  0.9163  0.3349
 8481SOL     OW26020   3.638   9.088   8.870 -0.4120  0.1318 -0.2246
 8481SOL    HW126021   3.697   9.163   8.861 -0.4583  0.2384  0.2764
 8481SOL    HW226022   3.695   9.013   8.882 -0.3631  0.0688 -0.8583
 8482SOL     OW26023   3.418   5.146   5.721 -0.1575  0.3598  0.1937
 8482SOL    HW126024   3.462   5.072   5.763  0.0099 -0.9336 -2.1070
 8482SOL    HW226025   3.480   5.219   5.729  0.8575 -0.4789  0.1228
 8483SOL     OW26026   7.376   3.720   5.819 -0.2087 -0.0243 -0.0112
 8483SOL    HW126027   7.282   3.703   5.832 -0.2621 -0.1725 -0.5551
 8483SOL    HW226028   7.409   3.640   5.779  0.2586 -0.1606  0.6393
 8484SOL     OW26029   2.094   0.900   5.112 -0.5859  0.1537 -0.0415
 8484SOL    HW126030   2.083   0.993   5.092 -1.1424  0.1005 -0.0017
 8484SOL    HW226031   2.141   0.865   5.036 -1.1538  0.2977 -0.4770
 8485SOL     OW26032   7.600   6.376   0.594 -0.4526 -0.2708 -0.0402
 8485SOL    HW126033   7.560   6.406   0.675  0.2022 -0.9779  0.5456
 8485SOL    HW226034   7.690   6.407   0.598 -0.8412  1.2006 -1.2967
 8486SOL     OW26035   9.507   0.098   0.778 -0.1423  0.0102  0.3138
 8486SOL    HW126036   9.510   0.067   0.687  0.3032 -2.5797  1.1283
 8486SOL    HW226037   9.453   0.033   0.823 -0.5917  1.4175  1.8680
 8487SOL     OW26038   2.162   6.606   8.081 -0.0019 -0.6972  0.5004
 8487SOL    HW126039   2.239   6.563   8.117  0.9374  1.8017  1.7176
 8487SOL    HW226040   2.197   6.668   8.017 -0.9615  0.5137  1.0998
 8488SOL     OW26041   4.310   0.830   5.589  0.4516  0.1470  0.1129
 8488SOL    HW126042   4.256   0.841   5.511  0.6048  1.2170  0.1461
 8488SOL    HW226043   4.296   0.739   5.616  0.4170 -0.2419 -1.1675
 8489SOL     OW26044   4.810   1.599   8.916 -0.1434 -0.0394 -1.2937
 8489SOL    HW126045   4.782   1.663   8.850  0.1013 -1.1463 -2.5088
 8489SOL    HW226046   4.856   1.532   8.866  0.4294 -0.7016  0.0723
 8490SOL     OW26047   3.842   0.904   2.984 -0.3164 -0.0695 -0.6974
 8490SOL    HW126048   3.867   0.811   2.982  2.0400  0.4519  1.0192
 8490SOL    HW226049   3.888   0.943   2.910  1.1956  0.2478  0.3805
 8491SOL     OW26050   0.442   4.795   2.270 -0.1650 -0.0886  0.9495
 8491SOL    HW126051   0.508   4.778   2.204  0.4664 -0.2503  1.6128
 8491SOL    HW226052   0.365   4.745   2.241  0.5148 -1.1884  0.9986
 8492SOL     OW26053   4.237   2.793   5.631 -0.1558  0.0686 -0.3571
 8492SOL    HW126054   4.260   2.870   5.683  0.0242 -0.9041  1.0588
 8492SOL    HW226055   4.262   2.816   5.541  0.3679  1.4523  0.1162
 8493SOL     OW26056   5.510   0.892   1.662  0.2556 -0.2785 -0.0787
 8493SOL    HW126057   5.556   0.820   1.618 -1.4503 -1.9735  0.7674
 8493SOL    HW226058   5.510   0.867   1.755 -0.1867  0.9407  0.2698
 8494SOL     OW26059   7.603   3.286   5.790 -0.3277  0.5269  1.0020
 8494SOL    HW126060   7.512   3.257   5.796  0.0676 -0.6547  1.5817
 8494SOL    HW226061   7.654   3.213   5.824  0.9095  0.8003 -0.1644
 8495SOL     OW26062   9.087   7.768   4.167 -0.0152  0.0709 -0.2626
 8495SOL    HW126063   9.012   7.712   4.189  1.8001 -1.9007  1.3478
 8495SOL    HW226064   9.048   7.844   4.124 -2.9089 -0.9162  0.3668
 8496SOL     OW26065   4.289   5.911   2.616 -0.1289 -0.0252  0.3289
 8496SOL    HW126066   4.379   5.936   2.637  0.2813 -0.2078 -1.1086
 8496SOL    HW226067   4.249   5.891   2.701  1.2977 -0.3252  0.9554
 8497SOL     OW26068   1.518   4.127   3.442 -0.2322 -0.0974  0.6541
 8497SOL    HW126069   1.436   4.113   3.488 -0.3254  0.5757  0.7020
 8497SOL    HW226070   1.560   4.041   3.440 -0.9549 -0.4535  0.5887
 8498SOL     OW26071   6.769   1.092   9.448  0.2769  0.2060  0.8973
 8498SOL    HW126072   6.856   1.111   9.412 -0.3690 -0.9993 -1.4958
 8498SOL    HW226073   6.770   0.998   9.467 -0.1040  0.4294  2.1203
 8499SOL     OW26074   7.550   9.212   5.576 -0.7513  0.6221 -0.1044
 8499SOL    HW126075   7.561   9.222   5.670  1.1382  1.5804 -0.3891
 8499SOL    HW226076   7.612   9.143   5.552  0.3137  1.8107 -0.9050
 8500SOL     OW26077   7.336   2.656   2.079 -0.3057 -0.0670  0.3898
 8500SOL    HW126078   7.312   2.735   2.030  1.9366  0.5602  0.2055
 8500SOL    HW226079   7.357   2.591   2.012  0.6655  0.1157  0.5014
 8501SOL     OW26080   6.858   4.640   3.526 -0.1918 -0.7250  0.2584
 8501SOL    HW126081   6.811   4.562   3.499 -1.7692 -0.6695  2.5412
 8501SOL    HW226082   6.818   4.711   3.475  2.3605 -1.4219 -3.0764
 8502SOL     OW26083   0.652   1.841   2.409 -0.2187  0.5675 -0.2325
 8502SOL    HW126084   0.608   1.924   2.393 -0.2817  0.5380 -0.2134
 8502SOL    HW226085   0.588   1.774   2.385  0.8149  0.4827 -3.1007
 8503SOL     OW26086   7.648   0.878   4.268 -0.0939 -0.8186 -0.2089
 8503SOL    HW126087   7.615   0.947   4.325  0.8637 -2.2218  2.1959
 8503SOL    HW226088   7.592   0.802   4.287 -0.7137 -0.9291 -2.3009
 8504SOL     OW26089   2.316   5.398   0.780  0.1463  0.0310  0.0229
 8504SOL    HW126090   2.289   5.485   0.752  0.5747  0.5923  1.3162
 8504SOL    HW226091   2.265   5.338   0.725 -1.7860  1.0730  0.6136
 8505SOL     OW26092   5.812   1.800   6.148  0.2481 -0.1204  0.4043
 8505SOL    HW126093   5.887   1.815   6.205 -0.2227 -0.0787  1.0186
 8505SOL    HW226094   5.802   1.704   6.147 -1.0962 -0.0548  2.2029
 8506SOL     OW26095   8.073   1.600   8.754 -0.2004 -0.4946  0.0257
 8506SOL    HW126096   8.060   1.601   8.849  1.7709  0.4310  0.3433
 8506SOL    HW226097   8.143   1.536   8.740  0.6123  0.4920 -0.5878
 8507SOL     OW26098   9.856   4.520   2.925  0.0141 -0.1719 -0.4866
 8507SOL    HW126099   9.808   4.575   2.988  1.7568  4.3153 -2.6314
 8507SOL    HW226100   9.947   4.527   2.952  0.2760 -2.5400 -0.6096
 8508SOL     OW26101   5.729   3.303   9.453  0.4227  0.2374  0.5164
 8508SOL    HW126102   5.718   3.335   9.363  1.2591  0.9617  0.6621
 8508SOL    HW226103   5.718   3.208   9.446  0.8404  0.2477 -0.4074
 8509SOL     OW26104   6.791   9.526   2.240 -0.4780 -0.1601 -0.6384
 8509SOL    HW126105   6.881   9.500   2.258 -1.6363 -3.3334  1.4422
 8509SOL    HW226106   6.776   9.601   2.297  0.7065  0.1454 -0.7057
 8510SOL     OW26107   0.045   6.543   0.869  0.7646  0.2419 -0.1092
 8510SOL    HW126108   0.124   6.504   0.904  1.3051 -0.3958 -1.9056
 8510SOL    HW226109   0.028   6.495   0.788 -0.0132  2.0424 -1.0886
 8511SOL     OW26110   6.599   4.645   3.150 -0.1549 -0.0063  0.2133
 8511SOL    HW126111   6.605   4.555   3.119  0.1073 -0.4561  1.5131
 8511SOL    HW226112   6.514   4.675   3.119 -0.3711 -0.7981  0.0187
 8512SOL     OW26113   6.537   1.969   5.253 -0.6352 -0.3598  0.0165
 8512SOL    HW126114   6.629   1.942   5.261 -0.0731  0.8386 -1.7775
 8512SOL    HW226115   6.492   1.890   5.221 -0.2415 -0.9523  0.8837
 8513SOL     OW26116   0.214   3.249   9.076 -0.2960 -0.0883 -0.2595
 8513SOL    HW126117   0.259   3.311   9.019  0.4918 -0.1103  0.3254
 8513SOL    HW226118   0.249   3.163   9.050 -1.0859 -0.2561 -0.7937
 8514SOL     OW26119   9.639   0.937   5.525 -0.0189 -0.5897  0.0743
 8514SOL    HW126120   9.591   0.958   5.445  2.2663  0.5389 -1.0687
 8514SOL    HW226121   9.670   0.847   5.511  0.2662 -0.4416 -0.2336
 8515SOL     OW26122   6.280   6.384   7.844 -0.3315 -0.3120  0.2006
 8515SOL    HW126123   6.236   6.337   7.914 -1.4370  1.2853  0.6361
 8515SOL    HW226124   6.214   6.393   7.775  0.9723 -2.5831 -1.4908
 8516SOL     OW26125   7.645   0.220   2.148 -0.3935 -0.8360  0.0647
 8516SOL    HW126126   7.664   0.281   2.219 -1.1463 -1.8429  1.1751
 8516SOL    HW226127   7.731   0.196   2.114 -0.0680  0.4675 -0.0899
 8517SOL     OW26128   8.452   7.303   1.271  0.2802 -0.0172  0.2466
 8517SOL    HW126129   8.504   7.339   1.199  0.3354 -0.8564 -0.1454
 8517SOL    HW226130   8.390   7.243   1.229 -0.0063 -0.1521  0.8516
 8518SOL     OW26131   2.131   9.700   4.980  0.0994  0.2524 -0.0469
 8518SOL    HW126132   2.063   9.762   5.006 -0.0445 -0.2476  0.8199
 8518SOL    HW226133   2.209   9.730   5.025 -0.0979 -0.4953  0.8152
 8519SOL     OW26134   1.642   9.100   2.836 -0.4225  0.6347  0.0087
 8519SOL    HW126135   1.687   9.126   2.916  3.7095 -1.6084 -1.2558
 8519SOL    HW226136   1.677   9.159   2.769  0.4234 -0.8576 -0.9365
 8520SOL     OW26137   7.435   8.998   4.006 -0.1290 -0.1110  0.1971
 8520SOL    HW126138   7.379   9.073   3.989  0.8267  1.0693  1.9359
 8520SOL    HW226139   7.524   9.031   3.992  0.2484 -1.6093 -1.3193
 8521SOL     OW26140   1.353   2.412   1.462  0.0289 -0.5894  0.3929
 8521SOL    HW126141   1.389   2.397   1.374  0.9006 -0.6694  0.7524
 8521SOL    HW226142   1.430   2.430   1.516 -0.6035  0.8267  0.8645
 8522SOL     OW26143   5.191   8.743   1.034  0.5499 -0.0570 -0.1828
 8522SOL    HW126144   5.232   8.710   1.114 -2.7871 -2.7628  0.6377
 8522SOL    HW226145   5.230   8.692   0.964  0.9838 -0.1646  0.1286
 8523SOL     OW26146   5.065   5.548   4.013  0.2452 -0.2337 -0.2404
 8523SOL    HW126147   5.006   5.473   4.025 -0.1537  0.3187  1.5881
 8523SOL    HW226148   5.009   5.624   4.029  1.0395  0.3705 -0.3160
 8524SOL     OW26149   8.625   3.639   3.403  0.4073  0.1140 -0.6574
 8524SOL    HW126150   8.542   3.613   3.363 -0.1026  0.3670  0.1983
 8524SOL    HW226151   8.677   3.673   3.331 -0.9839  1.8352 -0.9199
 8525SOL     OW26152   5.053   2.256   9.091  0.1537 -0.1131  0.2625
 8525SOL    HW126153   5.131   2.202   9.099  0.7431  0.6699 -0.0294
 8525SOL    HW226154   5.036   2.258   8.997 -2.2102 -2.9929  0.4816
 8526SOL     OW26155   7.851   1.499   0.798 -0.0436 -0.1774 -0.0196
 8526SOL    HW126156   7.816   1.412   0.777 -2.0897  0.3288  1.0255
 8526SOL    HW226157   7.785   1.560   0.767 -0.0857  0.8494  1.9435
 8527SOL     OW26158   0.334   4.092   0.906  0.0081  0.6022  0.0255
 8527SOL    HW126159   0.398   4.025   0.883  1.4257  1.1053  2.2024
 8527SOL    HW226160   0.250   4.045   0.909  0.1449 -0.0383 -3.0155
 8528SOL     OW26161   8.948   5.621   4.139  0.0906  0.0695 -0.0745
 8528SOL    HW126162   8.937   5.566   4.217  3.5460  0.6876  1.0183
 8528SOL    HW226163   9.017   5.578   4.089  0.5030  1.6205 -0.9057
 8529SOL     OW26164   0.405   8.810   2.239 -0.1861  0.1144  0.0207
 8529SOL    HW126165   0.473   8.750   2.208 -0.2648  0.6435 -1.2398
 8529SOL    HW226166   0.323   8.775   2.203 -0.1425  1.3637 -1.3772
 8530SOL     OW26167   1.833   8.709   1.907 -0.1329  0.2880  0.1520
 8530SOL    HW126168   1.906   8.762   1.876 -1.2882  0.4043 -2.6104
 8530SOL    HW226169   1.871   8.624   1.928  0.7674  0.2400 -1.5601
 8531SOL     OW26170   3.760   1.044   0.127  0.1783  0.2185 -0.2243
 8531SOL    HW126171   3.736   1.105   0.197 -0.6017 -0.7348  0.3540
 8531SOL    HW226172   3.685   1.046   0.067  0.4851  0.3952 -0.6100
 8532SOL     OW26173   2.013   1.572   0.384 -0.2281  0.4105 -0.1218
 8532SOL    HW126174   1.937   1.532   0.426  0.0740  1.6090  1.6879
 8532SOL    HW226175   2.050   1.630   0.451  2.1614  0.0402 -1.0005
 8533SOL     OW26176   7.001   1.829   7.296 -0.0831 -0.6915  0.0463
 8533SOL    HW126177   7.087   1.793   7.271  0.9309 -0.9617  3.4199
 8533SOL    HW226178   7.010   1.923   7.280 -0.3924 -1.0238 -2.5904
 8534SOL     OW26179   7.763   2.340   7.555  0.1953 -0.2509  0.8921
 8534SOL    HW126180   7.744   2.408   7.619 -0.0916  0.9902 -0.4631
 8534SOL    HW226181   7.677   2.305   7.531  0.0442  0.9751 -0.5481
 8535SOL     OW26182   5.537   6.650   4.742  0.3098  0.2079  0.5428
 8535SOL    HW126183   5.632   6.655   4.743  0.4447 -1.3628 -0.4960
 8535SOL    HW226184   5.515   6.583   4.807  0.1696 -1.6718 -1.3418
 8536SOL     OW26185   0.823   3.971   9.240  0.2382  0.4497  0.0338
 8536SOL    HW126186   0.893   3.907   9.253  1.3839  1.8830  1.2829
 8536SOL    HW226187   0.774   3.969   9.323  0.5698  1.4947  0.2688
 8537SOL     OW26188   2.224   0.976   6.931 -0.2630 -0.1970  0.5178
 8537SOL    HW126189   2.139   0.981   6.975 -0.9562  0.3031 -0.8054
 8537SOL    HW226190   2.235   1.062   6.890 -0.4773 -1.1301 -1.6623
 8538SOL     OW26191   2.054   7.410   0.327  0.9142  0.0080 -0.3596
 8538SOL    HW126192   2.048   7.480   0.392  1.6336  0.5968 -0.9000
 8538SOL    HW226193   2.062   7.456   0.244 -2.5184 -0.6756 -1.2373
 8539SOL     OW26194   0.743   3.432   2.685  0.0972  0.0153  0.4703
 8539SOL    HW126195   0.699   3.472   2.611 -0.7400 -1.5646  0.0652
 8539SOL    HW226196   0.725   3.338   2.676 -0.0493 -0.2313  2.6582
 8540SOL     OW26197   1.689   6.040   7.381 -0.3834  0.0018  0.0842
 8540SOL    HW126198   1.737   6.083   7.452 -0.9712  1.7012 -0.4898
 8540SOL    HW226199   1.597   6.042   7.410 -0.6875  1.1146 -0.8690
 8541SOL     OW26200   1.712   8.062   9.199  0.4220 -0.1871 -0.0344
 8541SOL    HW126201   1.658   8.142   9.197 -0.1218 -0.5582 -0.6583
 8541SOL    HW226202   1.801   8.094   9.213 -0.0944  0.3525  2.7446
 8542SOL     OW26203   1.050   2.104   1.834  0.2304  0.3353 -0.1431
 8542SOL    HW126204   1.071   2.018   1.872  0.9341 -0.0544 -1.3650
 8542SOL    HW226205   0.976   2.087   1.776  0.2476  0.5981 -0.2426
 8543SOL     OW26206   8.082   3.724   3.046  0.2934 -0.0457 -0.4636
 8543SOL    HW126207   8.147   3.780   3.089  0.4707  0.3211 -1.1779
 8543SOL    HW226208   8.121   3.637   3.050  1.1092  0.2496 -1.3501
 8544SOL     OW26209   0.249   6.893   2.068  0.3272 -0.7303 -0.2040
 8544SOL    HW126210   0.258   6.959   2.136 -0.3875 -2.1322  1.3328
 8544SOL    HW226211   0.198   6.936   1.999 -1.4060 -0.1051  1.3956
 8545SOL     OW26212   6.135   5.836   5.778  0.0732 -0.3777 -0.0089
 8545SOL    HW126213   6.081   5.895   5.832  0.2890 -0.0890 -0.1070
 8545SOL    HW226214   6.072   5.794   5.719  0.1891  1.4468 -1.4997
 8546SOL     OW26215   3.870   0.080   1.722 -0.2284 -0.6141 -0.4948
 8546SOL    HW126216   3.844   0.164   1.759  0.2649 -0.4379 -0.5425
 8546SOL    HW226217   3.965   0.075   1.736  0.0461 -0.3616 -2.0817
 8547SOL     OW26218   0.409   5.400   0.510 -0.0508  0.2536  0.4090
 8547SOL    HW126219   0.409   5.479   0.457  0.4462 -0.1962 -0.2957
 8547SOL    HW226220   0.368   5.333   0.454  1.0939 -0.3915  0.2964
 8548SOL     OW26221   5.446   5.668   0.711 -0.3775 -0.0365  0.1995
 8548SOL    HW126222   5.482   5.622   0.787  0.0169 -0.6959 -0.3799
 8548SOL    HW226223   5.512   5.734   0.689 -0.7475  0.5322  0.7667
 8549SOL     OW26224   3.034   1.576   2.183 -0.3374 -0.6781 -0.4817
 8549SOL    HW126225   3.111   1.581   2.241 -0.7814  0.2298  0.0408
 8549SOL    HW226226   3.071   1.578   2.095  0.2254  0.0982 -0.2397
 8550SOL     OW26227   4.273   7.048   8.497 -0.1414  0.4688  0.3002
 8550SOL    HW126228   4.217   6.972   8.511  1.5786 -0.7822  0.8342
 8550SOL    HW226229   4.223   7.105   8.440 -1.2929 -1.3307 -0.5910
 8551SOL     OW26230   2.707   1.426   1.728  0.2206  0.1466  0.0292
 8551SOL    HW126231   2.649   1.501   1.717  0.2812  0.2622  0.4595
 8551SOL    HW226232   2.793   1.458   1.702  1.1259  1.5471  4.0665
 8552SOL     OW26233   0.722   0.856   0.477  0.2229 -0.4934  0.4275
 8552SOL    HW126234   0.750   0.831   0.565  1.4612  1.7361  0.7713
 8552SOL    HW226235   0.653   0.794   0.454  0.3348 -1.5482  2.6853
 8553SOL     OW26236   9.848   9.355   2.905 -0.1401 -0.2566 -0.0379
 8553SOL    HW126237   9.879   9.338   2.994 -1.5069 -0.8253  0.3632
 8553SOL    HW226238   9.801   9.275   2.881 -1.2093  0.5263 -0.6266
 8554SOL     OW26239   1.510   1.617   5.886  0.0035  0.0131  0.2751
 8554SOL    HW126240   1.585   1.562   5.910  0.0733 -0.0494 -0.0779
 8554SOL    HW226241   1.437   1.557   5.878 -0.2145  0.1533  1.1881
 8555SOL     OW26242   1.342   2.955   4.012 -0.3439 -0.2066 -0.2747
 8555SOL    HW126243   1.274   2.924   4.072  0.7841 -1.3307  0.4744
 8555SOL    HW226244   1.398   2.878   3.998  0.0921  0.3683 -1.8284
 8556SOL     OW26245   3.123   0.315   2.163 -0.4899  0.0235 -0.4883
 8556SOL    HW126246   3.141   0.254   2.092  0.1340  0.4001 -0.6661
 8556SOL    HW226247   3.046   0.279   2.207  1.0620 -2.0818  0.7271
 8557SOL     OW26248   5.488   5.778   6.906 -0.2897  0.0440 -0.0123
 8557SOL    HW126249   5.531   5.721   6.969 -0.3114 -1.3606 -1.2269
 8557SOL    HW226250   5.413   5.815   6.954 -0.2130 -0.8695  0.8250
 8558SOL     OW26251   1.071   9.319   2.374 -0.2512 -0.4869 -0.4411
 8558SOL    HW126252   1.058   9.235   2.329 -0.7979  0.2305 -1.6589
 8558SOL    HW226253   1.165   9.321   2.393 -0.1509 -1.1833 -0.8074
 8559SOL     OW26254   8.926   2.825   7.609  0.1282  0.6459 -0.0767
 8559SOL    HW126255   8.971   2.891   7.661 -0.2029  0.7535  0.0786
 8559SOL    HW226256   8.966   2.831   7.523  1.8136 -0.6485  0.5759
 8560SOL     OW26257   3.279   3.115   9.340  0.6470 -0.4842 -0.0561
 8560SOL    HW126258   3.337   3.051   9.301  1.4880  0.3813 -0.2397
 8560SOL    HW226259   3.305   3.199   9.303 -0.0663  0.0511  0.6002
 8561SOL     OW26260   0.711   0.705   9.829 -0.0271 -0.0442  0.4843
 8561SOL    HW126261   0.804   0.727   9.826 -0.1141  0.9625  2.6535
 8561SOL    HW226262   0.689   0.677   9.740  2.1993  0.2672 -0.2175
 8562SOL     OW26263   7.880   6.361   5.307 -0.2064  0.2302  0.3040
 8562SOL    HW126264   7.948   6.397   5.250 -0.9675  1.8111  0.3593
 8562SOL    HW226265   7.889   6.266   5.297  1.6747  0.4134 -0.0566
 8563SOL     OW26266   8.066   8.258   3.579 -0.2656  0.3975 -0.1581
 8563SOL    HW126267   8.106   8.253   3.665  0.3453  2.7436 -0.2376
 8563SOL    HW226268   7.973   8.243   3.594  0.2575 -3.4968  0.2508
 8564SOL     OW26269   9.497   2.286   3.569 -0.5990 -0.1223  0.5078
 8564SOL    HW126270   9.521   2.359   3.627  0.3409  0.4818 -0.6037
 8564SOL    HW226271   9.525   2.208   3.617  3.0831  0.4944 -0.3622
 8565SOL     OW26272   3.161   5.659   4.038 -0.6122  0.0948  0.3686
 8565SOL    HW126273   3.228   5.676   4.105 -1.0450 -1.2420  1.1734
 8565SOL    HW226274   3.123   5.575   4.063 -1.9648  0.3883 -0.6026
 8566SOL     OW26275   5.912   2.645   2.083 -0.6480 -0.2280 -0.1481
 8566SOL    HW126276   5.869   2.606   2.007 -2.3362  0.1000  0.5934
 8566SOL    HW226277   6.002   2.614   2.078 -0.6935 -0.1515 -2.3113
 8567SOL     OW26278   5.239   6.337   2.675 -0.5657  0.2670 -0.5517
 8567SOL    HW126279   5.296   6.265   2.701 -0.0791  0.5329 -0.8709
 8567SOL    HW226280   5.292   6.416   2.689 -0.1421  0.3997 -2.6917
 8568SOL     OW26281   2.549   8.622   3.033 -0.2572 -0.1002  0.2472
 8568SOL    HW126282   2.547   8.633   3.128 -0.3498 -0.5879  0.3053
 8568SOL    HW226283   2.486   8.552   3.015 -0.1813 -0.0669 -0.1640
 8569SOL     OW26284   1.842   3.690   0.561 -0.0396  0.0324 -0.2148
 8569SOL    HW126285   1.910   3.757   0.554 -1.6353  1.9388  1.1110
 8569SOL    HW226286   1.879   3.612   0.520  3.1289  0.7786  1.0016
 8570SOL     OW26287   3.862   2.548   6.345 -0.4570  0.4641 -0.3113
 8570SOL    HW126288   3.891   2.480   6.406  0.1948  0.7736 -0.2678
 8570SOL    HW226289   3.803   2.603   6.397  0.7183  1.1914  0.2816
 8571SOL     OW26290   9.229   6.187   5.086 -0.4126 -0.1042 -0.0189
 8571SOL    HW126291   9.166   6.253   5.057 -0.1309  0.3124  0.3014
 8571SOL    HW226292   9.264   6.222   5.168  0.1271 -0.4005 -0.1180
 8572SOL     OW26293   4.612   3.597   6.777 -0.3753  1.0892  0.0737
 8572SOL    HW126294   4.683   3.659   6.761  0.4288 -0.1050 -1.2011
 8572SOL    HW226295   4.578   3.576   6.690 -1.5896  0.8285  0.5897
 8573SOL     OW26296   4.603   5.064   1.476 -0.8927 -0.0998  0.1286
 8573SOL    HW126297   4.649   5.091   1.555  0.4364 -0.9935 -0.3056
 8573SOL    HW226298   4.590   5.146   1.427  1.6566  0.0641 -0.4463
 8574SOL     OW26299   5.850   8.445   7.576  0.2450 -0.2295 -0.1474
 8574SOL    HW126300   5.861   8.540   7.578 -0.6159 -0.1338  1.3341
 8574SOL    HW226301   5.936   8.411   7.601  0.5532  0.1545 -0.6663
 8575SOL     OW26302   9.143   8.221   1.503  0.3603  0.5911  0.1058
 8575SOL    HW126303   9.134   8.300   1.556  2.0655 -0.0478  1.4216
 8575SOL    HW226304   9.116   8.150   1.561  0.2761  0.0440 -0.5830
 8576SOL     OW26305   1.304   1.150   5.592 -0.4544 -0.1766 -0.3873
 8576SOL    HW126306   1.304   1.090   5.667 -0.0034 -0.4557 -0.6117
 8576SOL    HW226307   1.353   1.226   5.623  1.5517 -1.1204 -1.0464
 8577SOL     OW26308   6.405   5.272   0.678 -0.4961 -0.2219  0.0906
 8577SOL    HW126309   6.328   5.226   0.645 -0.4819 -1.0709  1.1654
 8577SOL    HW226310   6.472   5.204   0.684  0.0116  0.2842  0.1726
 8578SOL     OW26311   0.450   3.633   7.120  0.0533 -0.0824  0.7611
 8578SOL    HW126312   0.361   3.665   7.135 -0.3636 -1.4362  1.3011
 8578SOL    HW226313   0.494   3.706   7.076 -2.3699 -0.6008 -3.0709
 8579SOL     OW26314   3.186   2.862   3.353 -0.0288 -0.3168  0.2658
 8579SOL    HW126315   3.159   2.903   3.435 -1.8836 -1.5864  0.3295
 8579SOL    HW226316   3.242   2.928   3.311 -1.2496  1.4473  1.2864
 8580SOL     OW26317   3.525   6.203   4.586 -0.0324  0.2033 -0.1055
 8580SOL    HW126318   3.470   6.223   4.510 -0.1198 -2.3239 -0.8083
 8580SOL    HW226319   3.546   6.110   4.576  1.1637  0.1554  2.2247
 8581SOL     OW26320   1.804   4.047   9.200  0.2448  0.0091  0.0744
 8581SOL    HW126321   1.785   4.021   9.290 -1.7216 -0.5465 -0.4490
 8581SOL    HW226322   1.780   3.970   9.147  0.1870  0.7536 -1.0217
 8582SOL     OW26323   5.203   1.694   3.204  0.0100  0.0562  0.0894
 8582SOL    HW126324   5.256   1.629   3.250 -0.3048  0.0484  0.4427
 8582SOL    HW226325   5.267   1.744   3.152  0.2013 -0.8141 -0.5243
 8583SOL     OW26326   1.468   0.487   6.015 -0.2355 -0.0012 -0.7135
 8583SOL    HW126327   1.508   0.431   5.949 -2.2824 -0.2337 -1.8539
 8583SOL    HW226328   1.446   0.567   5.968  0.5747  0.8784  0.3461
 8584SOL     OW26329   0.005   7.020   8.345  0.0638  0.2267 -0.9563
 8584SOL    HW126330   0.037   7.003   8.434 -0.9132  1.1729 -0.3836
 8584SOL    HW226331   0.056   7.095   8.315 -2.4070  2.7504  0.5533
 8585SOL     OW26332   8.845   0.532   7.533 -0.2067 -0.1212  0.1604
 8585SOL    HW126333   8.827   0.447   7.494 -2.1591  0.0589  0.5673
 8585SOL    HW226334   8.784   0.592   7.490 -0.5343  0.5938  1.5658
 8586SOL     OW26335   5.821   9.444   7.164 -0.0704  0.0959  0.2217
 8586SOL    HW126336   5.795   9.506   7.233  0.6668  0.7492 -0.0695
 8586SOL    HW226337   5.913   9.425   7.182  0.6821  1.6819 -1.5902
 8587SOL     OW26338   4.383   6.249   7.281  0.3457 -0.2679 -0.6357
 8587SOL    HW126339   4.473   6.280   7.282 -0.0099  0.7896 -0.2601
 8587SOL    HW226340   4.382   6.177   7.345  0.3281  1.5372  1.5044
 8588SOL     OW26341   2.663   7.754   5.513 -0.1509  0.0501 -0.5680
 8588SOL    HW126342   2.686   7.844   5.540  0.3294 -0.4925  0.9523
 8588SOL    HW226343   2.742   7.704   5.528 -1.4914 -1.3993  2.4746
 8589SOL     OW26344   7.826   5.882   9.926  0.3271  0.0381 -0.3607
 8589SOL    HW126345   7.776   5.963   9.917  1.6951  0.7608 -2.0142
 8589SOL    HW226346   7.771   5.815   9.887  0.1897  0.6288 -1.2024
 8590SOL     OW26347   7.058   5.912   5.020 -0.3559 -0.6321  0.1757
 8590SOL    HW126348   7.002   5.836   5.001  0.1967 -1.4457  1.6751
 8590SOL    HW226349   7.138   5.875   5.056 -0.6494  0.6857  2.3598
 8591SOL     OW26350   1.197   4.828   3.659 -0.2161  0.7034 -0.8628
 8591SOL    HW126351   1.138   4.761   3.624  0.9870 -1.6085  1.2583
 8591SOL    HW226352   1.139   4.886   3.709 -1.0400 -0.0316 -0.9300
 8592SOL     OW26353   5.952   2.144   0.491  0.0162  0.7701 -0.2243
 8592SOL    HW126354   5.990   2.121   0.406  0.6631  1.0056 -0.0060
 8592SOL    HW226355   5.911   2.063   0.522  1.1923  0.2327 -0.0269
 8593SOL     OW26356   3.367   6.021   6.343 -0.3685  0.2654 -0.1674
 8593SOL    HW126357   3.284   6.030   6.296  1.0581  1.9709 -2.6138
 8593SOL    HW226358   3.381   5.927   6.348 -2.0313 -0.0374 -0.4529
 8594SOL     OW26359   6.276   9.753   9.207  0.0325 -0.5168  0.3254
 8594SOL    HW126360   6.310   9.711   9.128  1.6785  0.4836  0.4605
 8594SOL    HW226361   6.200   9.802   9.177 -1.3892 -2.7692 -0.0004
 8595SOL     OW26362   1.204   3.109   2.593 -0.2261  0.0044 -0.2586
 8595SOL    HW126363   1.238   3.102   2.682 -0.0768  1.5315 -0.1644
 8595SOL    HW226364   1.279   3.090   2.537  0.0115  0.3381 -0.0570
 8596SOL     OW26365   5.430   8.713   7.834  0.2340  0.2509  0.4015
 8596SOL    HW126366   5.494   8.648   7.863  0.4953 -0.1565 -1.0230
 8596SOL    HW226367   5.483   8.784   7.798 -0.0946  0.3233  0.0592
 8597SOL     OW26368   6.485   0.246   6.365  0.3322  0.2058  0.6185
 8597SOL    HW126369   6.547   0.214   6.300 -1.0843  0.6328 -0.9999
 8597SOL    HW226370   6.420   0.176   6.372 -0.6036  0.9946  0.0552
 8598SOL     OW26371   1.295  -0.008   0.429 -0.5831 -0.3721 -0.0739
 8598SOL    HW126372   1.369   0.046   0.399 -2.3031  2.4329  0.3800
 8598SOL    HW226373   1.234  -0.008   0.356 -0.8924 -1.2311  0.1721
 8599SOL     OW26374   1.303   7.451   7.146 -0.0423 -0.0148  0.0840
 8599SOL    HW126375   1.377   7.431   7.089  1.8566  0.4249  2.2383
 8599SOL    HW226376   1.322   7.539   7.179 -1.2203 -0.1323  1.1348
 8600SOL     OW26377   1.536   2.725   6.413  0.2403 -0.2718  0.1230
 8600SOL    HW126378   1.543   2.652   6.474 -0.1939  0.1341  0.6628
 8600SOL    HW226379   1.538   2.803   6.468  0.7405  0.1255 -0.4543
 8601SOL     OW26380   6.871   0.545   0.459  0.0407  0.2201 -0.1454
 8601SOL    HW126381   6.945   0.526   0.402  2.2191  1.7809  1.9797
 8601SOL    HW226382   6.862   0.640   0.456 -0.1905  0.2756  1.6095
 8602SOL     OW26383   0.413   5.112   2.474  0.7104 -0.0037 -0.3859
 8602SOL    HW126384   0.411   5.206   2.491 -1.7311  0.0295 -0.6083
 8602SOL    HW226385   0.446   5.105   2.384  1.5759  0.5621 -0.1333
 8603SOL     OW26386   4.475   0.904   1.614  0.1520 -0.3097  0.4841
 8603SOL    HW126387   4.501   0.910   1.522 -2.2985 -3.2405 -0.5659
 8603SOL    HW226388   4.467   0.810   1.630 -1.0534  0.1729  3.2255
 8604SOL     OW26389   9.314   7.633   8.016 -0.6812 -0.5972 -0.1288
 8604SOL    HW126390   9.383   7.605   7.955 -2.2244 -1.6859 -1.4700
 8604SOL    HW226391   9.256   7.687   7.962 -0.7295  0.5690  1.0547
 8605SOL     OW26392   8.046   7.156   7.761  0.5529 -0.0619 -0.0064
 8605SOL    HW126393   8.021   7.143   7.670  1.1765 -3.3573  0.1584
 8605SOL    HW226394   8.139   7.133   7.764  0.7531  0.7780  1.3498
 8606SOL     OW26395   1.394   0.709   4.059  0.0245 -0.1081  0.1342
 8606SOL    HW126396   1.319   0.656   4.034  0.2108 -0.4763  0.3514
 8606SOL    HW226397   1.470   0.665   4.022  0.0465  0.8764 -1.0610
 8607SOL     OW26398   1.191   1.275   0.378 -0.4136 -0.5528 -0.2508
 8607SOL    HW126399   1.123   1.305   0.319 -1.1027 -1.7388 -0.0922
 8607SOL    HW226400   1.203   1.347   0.440 -1.2107 -0.1653 -0.5373
 8608SOL     OW26401   3.849   9.461   4.416  0.1186  0.1516  0.5763
 8608SOL    HW126402   3.826   9.455   4.508 -0.6435 -1.2596  0.3167
 8608SOL    HW226403   3.939   9.428   4.411  0.1374  0.1699  0.7978
 8609SOL     OW26404   1.012   3.287   4.941 -0.4220 -0.2126 -0.1375
 8609SOL    HW126405   0.952   3.328   5.003 -0.5575  0.4071 -0.6677
 8609SOL    HW226406   0.980   3.198   4.931 -1.3861  0.1655 -0.5592
 8610SOL     OW26407   8.255   5.019   5.846 -0.8324  0.7899 -0.0629
 8610SOL    HW126408   8.306   5.100   5.837  0.7364 -0.2260 -0.7104
 8610SOL    HW226409   8.180   5.032   5.787  0.6297  0.8811 -1.9938
 8611SOL     OW26410   3.015   2.993   5.773  0.8818  0.1994  0.0090
 8611SOL    HW126411   2.970   2.909   5.786 -0.7086  0.8625 -0.8055
 8611SOL    HW226412   3.005   3.039   5.856  0.8780 -0.0290  0.1351
 8612SOL     OW26413   2.968   7.439   7.781  0.0973  0.2964 -0.5199
 8612SOL    HW126414   2.992   7.453   7.690 -0.3163 -0.1289 -0.7019
 8612SOL    HW226415   2.909   7.512   7.802  0.5126  0.6194 -0.4658
 8613SOL     OW26416   8.289   0.546   8.561  0.2054  0.3033  0.1854
 8613SOL    HW126417   8.291   0.560   8.467  0.3450  1.0046  0.2802
 8613SOL    HW226418   8.377   0.570   8.590  1.0100 -2.3677  0.1954
 8614SOL     OW26419   2.534   2.295   8.941 -0.1430 -0.2396  0.1596
 8614SOL    HW126420   2.533   2.388   8.964  0.5958 -0.3999  0.8973
 8614SOL    HW226421   2.616   2.284   8.893  0.4334 -0.7752  1.2602
 8615SOL     OW26422   3.647   4.505   0.950  0.1304  0.2356  0.3312
 8615SOL    HW126423   3.571   4.542   0.904  0.5493  1.1713  0.3577
 8615SOL    HW226424   3.658   4.562   1.026 -0.8206 -1.5555  1.8773
 8616SOL     OW26425   7.116   0.447   1.098 -0.3855  0.8660  0.2882
 8616SOL    HW126426   7.099   0.507   1.025 -0.4590  1.6272  0.9242
 8616SOL    HW226427   7.147   0.503   1.169  0.5234  0.0312  0.5754
 8617SOL     OW26428   8.566   9.912   7.660 -0.1696 -0.2814  0.5546
 8617SOL    HW126429   8.510   9.852   7.709 -1.1711  0.4000  0.2868
 8617SOL    HW226430   8.594   9.862   7.583  1.0557 -1.2107  1.5499
 8618SOL     OW26431   2.824   3.707   3.882  0.4375  0.0753 -0.4951
 8618SOL    HW126432   2.876   3.677   3.957  1.2333 -0.7365 -1.3513
 8618SOL    HW226433   2.770   3.777   3.918  1.5722  0.4381  0.6025
 8619SOL     OW26434   1.043   3.449   3.133 -0.2671  0.0358  0.3387
 8619SOL    HW126435   1.005   3.371   3.175 -1.8414  1.2939  1.4233
 8619SOL    HW226436   1.099   3.488   3.201 -0.1397  0.2771  0.0980
 8620SOL     OW26437   4.927   3.968   2.047  0.0570 -0.1599 -0.2709
 8620SOL    HW126438   4.855   3.907   2.065  0.2698 -0.3607 -0.1026
 8620SOL    HW226439   5.006   3.914   2.049  0.2367  0.1018 -0.2256
 8621SOL     OW26440   4.224   3.746   3.991  0.4245 -0.0388  0.0546
 8621SOL    HW126441   4.277   3.677   3.951  0.9216  0.5747 -0.3741
 8621SOL    HW226442   4.287   3.817   4.009 -0.3373  0.9651 -1.0840
 8622SOL     OW26443   8.823   6.208   4.552  0.4904 -0.5993  0.1366
 8622SOL    HW126444   8.829   6.152   4.629  0.6970  0.0931  0.6392
 8622SOL    HW226445   8.894   6.178   4.495 -1.2665 -2.8583 -0.9933
 8623SOL     OW26446   0.540   3.959   6.629  0.0698 -0.3645  0.3776
 8623SOL    HW126447   0.520   3.898   6.700 -0.0630  0.2203  0.8562
 8623SOL    HW226448   0.508   4.043   6.661 -0.7189 -0.2382 -0.7170
 8624SOL     OW26449   7.101   5.213   5.134  0.0169  0.1488  0.2151
 8624SOL    HW126450   7.150   5.137   5.102  1.2781  1.6230 -1.5729
 8624SOL    HW226451   7.016   5.207   5.091 -0.1195 -0.5578  0.5682
 8625SOL     OW26452   8.403   6.963   8.088  0.1322 -0.4509 -0.0039
 8625SOL    HW126453   8.334   7.021   8.120 -1.0210 -0.4764 -2.1921
 8625SOL    HW226454   8.471   7.022   8.055  1.6440 -0.4165  2.8464
 8626SOL     OW26455   5.846   7.808   6.884 -0.0155 -0.4033  0.2031
 8626SOL    HW126456   5.856   7.882   6.944  0.3847  0.3853 -0.8113
 8626SOL    HW226457   5.763   7.823   6.839  1.0342  0.6028 -1.5197
 8627SOL     OW26458   5.183   7.093   3.453 -0.0630 -0.3375  0.0492
 8627SOL    HW126459   5.182   7.168   3.395  0.2821 -1.4645 -1.4779
 8627SOL    HW226460   5.170   7.017   3.396  1.0276 -1.5685  1.3254
 8628SOL     OW26461   1.171   9.654   9.597 -0.7468 -0.1095 -0.3788
 8628SOL    HW126462   1.179   9.609   9.681 -0.7949  0.9877  0.2382
 8628SOL    HW226463   1.178   9.585   9.531  0.2974 -0.8671  0.4959
 8629SOL     OW26464   6.211   8.189   2.104  0.0026  0.0575  0.4677
 8629SOL    HW126465   6.160   8.252   2.053 -2.1830 -2.3573 -0.5438
 8629SOL    HW226466   6.179   8.200   2.194 -1.0847 -0.2472  0.1292
 8630SOL     OW26467   9.994   4.552   2.049  0.2081 -0.1337  0.1043
 8630SOL    HW126468   9.903   4.573   2.071  0.3411 -0.5001  1.0706
 8630SOL    HW226469   9.989   4.468   2.004 -0.0471  0.5050 -1.1049
 8631SOL     OW26470   2.876   8.105   5.865  0.2985  0.1130 -0.3151
 8631SOL    HW126471   2.838   8.193   5.858  0.8882  0.4281  0.3042
 8631SOL    HW226472   2.969   8.121   5.880  0.7079 -0.6508 -1.8875
 8632SOL     OW26473   1.555   8.696   5.355 -0.4404 -0.8493 -0.2719
 8632SOL    HW126474   1.583   8.722   5.442  0.5852 -2.1685 -0.1728
 8632SOL    HW226475   1.477   8.749   5.338  0.7351  1.1922  0.4169
 8633SOL     OW26476   6.365   7.097   5.627 -0.6048 -0.0112  0.1087
 8633SOL    HW126477   6.407   7.042   5.693 -0.7230 -0.2247  0.0073
 8633SOL    HW226478   6.313   7.036   5.574  1.2691 -0.2324 -1.6225
 8634SOL     OW26479   3.514   5.403   6.215  0.5239 -0.3933  0.6683
 8634SOL    HW126480   3.457   5.412   6.292  0.7307 -2.0782  1.0397
 8634SOL    HW226481   3.583   5.467   6.230 -0.8416  1.1802  0.5637
 8635SOL     OW26482   9.613   1.745   7.569 -0.2127 -0.1789 -0.6004
 8635SOL    HW126483   9.538   1.747   7.629  1.4429 -2.0850  1.7650
 8635SOL    HW226484   9.681   1.795   7.614  1.4440 -2.6150 -0.2098
 8636SOL     OW26485   8.550   6.545   1.368 -0.6020  0.1201 -0.2353
 8636SOL    HW126486   8.592   6.578   1.448  1.6920  0.1136 -1.3655
 8636SOL    HW226487   8.518   6.624   1.324  0.6429  0.3999 -0.6531
 8637SOL     OW26488   3.354   7.517   2.241  0.3377  0.3006  0.2379
 8637SOL    HW126489   3.390   7.444   2.191  0.7263  0.1956  0.6622
 8637SOL    HW226490   3.389   7.505   2.330 -1.2253 -0.1412  0.8207
 8638SOL     OW26491   1.384   8.159   7.500 -0.0253  0.4047  0.1427
 8638SOL    HW126492   1.359   8.067   7.504  1.6058 -0.0964 -0.2113
 8638SOL    HW226493   1.339   8.194   7.423  1.4804 -0.8430 -1.3835
 8639SOL     OW26494   5.494   9.302   5.201  0.5562  0.4332  0.4115
 8639SOL    HW126495   5.466   9.357   5.127 -0.4890 -1.0560 -0.3695
 8639SOL    HW226496   5.460   9.346   5.278  0.1931  1.1561 -0.1507
 8640SOL     OW26497   7.569   6.030   5.279  0.2252 -0.0528 -1.0605
 8640SOL    HW126498   7.625   5.973   5.225  2.2989  1.5179 -0.7162
 8640SOL    HW226499   7.551   5.978   5.357  2.0125 -0.3443 -0.7788
 8641SOL     OW26500   3.321   3.956   6.100  0.2032  0.5116  0.1000
 8641SOL    HW126501   3.353   3.893   6.166 -0.1253  0.5862  0.3342
 8641SOL    HW226502   3.254   4.007   6.146 -0.8558 -0.1924 -0.6061
 8642SOL     OW26503   1.541   9.674   4.609 -0.1131 -0.0484  0.5214
 8642SOL    HW126504   1.570   9.586   4.637  0.5709 -0.5521 -1.6037
 8642SOL    HW226505   1.463   9.657   4.556 -0.8262  0.7999  1.2646
 8643SOL     OW26506   8.073   4.963   9.556 -0.0575  0.2362 -0.8831
 8643SOL    HW126507   8.121   4.935   9.634  2.0943  0.2609 -2.1417
 8643SOL    HW226508   8.002   5.018   9.591  0.7066  0.0931  1.0507
 8644SOL     OW26509   2.566   3.257   9.733  0.0995  0.1982 -0.6578
 8644SOL    HW126510   2.588   3.165   9.749  0.0202  0.2757 -0.0756
 8644SOL    HW226511   2.583   3.270   9.640  1.7165  0.0285 -0.4243
 8645SOL     OW26512   5.312   4.580   9.872  0.2874  0.6208  0.0936
 8645SOL    HW126513   5.244   4.514   9.861 -0.4352  1.3620  0.0179
 8645SOL    HW226514   5.352   4.590   9.786  0.7603 -0.0840  0.2209
 8646SOL     OW26515   9.288   8.922   2.247  0.3481 -0.2762  1.1321
 8646SOL    HW126516   9.346   8.997   2.233 -0.6619  0.2657 -0.4037
 8646SOL    HW226517   9.218   8.957   2.301 -1.6986  0.8328 -1.9636
 8647SOL     OW26518   9.973   4.090   2.091  0.7084  0.0713 -0.4226
 8647SOL    HW126519   9.887   4.097   2.050  0.6599 -1.2406 -0.5762
 8647SOL    HW226520  10.033   4.072   2.019  1.0160  0.3352 -0.2338
 8648SOL     OW26521   7.234   3.099   8.826  0.2790  0.3768  0.1504
 8648SOL    HW126522   7.266   3.153   8.753  0.5596  0.9068  0.6627
 8648SOL    HW226523   7.269   3.012   8.808  0.1996  0.4642 -0.4482
 8649SOL     OW26524   3.549   8.443   8.801 -0.0083 -0.2432 -0.5325
 8649SOL    HW126525   3.635   8.456   8.762 -0.4215  0.8821 -1.1190
 8649SOL    HW226526   3.528   8.527   8.842  0.3691 -1.3478  2.1227
 8650SOL     OW26527   2.205   4.238   9.128  0.3314 -0.2378  0.2360
 8650SOL    HW126528   2.164   4.163   9.086 -0.2138 -0.5772  1.3176
 8650SOL    HW226529   2.161   4.314   9.091  1.9543 -0.3158 -2.0274
 8651SOL     OW26530   0.077   1.012   3.524  0.2719  0.6709  0.2445
 8651SOL    HW126531   0.171   1.003   3.506  0.8555  2.2968  2.1196
 8651SOL    HW226532   0.041   1.053   3.446  1.2063  0.4324 -0.3185
 8652SOL     OW26533   0.330   1.800   4.897  0.4664 -0.1717 -0.4013
 8652SOL    HW126534   0.403   1.783   4.838 -0.1584 -1.7320 -0.8000
 8652SOL    HW226535   0.290   1.713   4.910 -1.4701  0.6619 -0.4516
 8653SOL     OW26536   8.897   1.853   3.526  0.3138 -0.1345 -0.0036
 8653SOL    HW126537   8.860   1.817   3.445 -0.7117  0.4936  0.1662
 8653SOL    HW226538   8.897   1.948   3.512 -0.0750 -0.0058  0.8079
 8654SOL     OW26539   6.278   5.258   3.346  0.0546  0.1499 -0.1711
 8654SOL    HW126540   6.297   5.164   3.340  0.3816  0.2218 -0.2777
 8654SOL    HW226541   6.336   5.298   3.282  1.6367  0.6677  1.5167
 8655SOL     OW26542   0.126   7.325   2.985  0.1687  0.0577 -0.0573
 8655SOL    HW126543   0.194   7.262   3.011  1.7157  0.4871 -2.6834
 8655SOL    HW226544   0.170   7.410   2.990 -0.4869  0.4541 -0.8359
 8656SOL     OW26545   2.990   9.157   3.690 -0.0664  0.2115 -0.4217
 8656SOL    HW126546   3.035   9.222   3.636 -1.4645  0.9540 -0.7366
 8656SOL    HW226547   3.043   9.151   3.769  1.0086  0.4621 -1.1070
 8657SOL     OW26548   6.813   3.182   2.972 -0.5353 -0.6851  0.1802
 8657SOL    HW126549   6.729   3.184   3.019 -0.8820  0.0865 -0.4345
 8657SOL    HW226550   6.815   3.096   2.930 -2.1954  0.1409 -1.7903
 8658SOL     OW26551   8.108   2.277   7.206 -0.1726  0.0108  0.4552
 8658SOL    HW126552   8.060   2.253   7.127  0.1071 -0.3780  0.4053
 8658SOL    HW226553   8.124   2.194   7.251  1.8604 -0.0597 -0.3066
 8659SOL     OW26554   1.083   3.530   7.538 -0.3963  0.1793  0.5615
 8659SOL    HW126555   1.034   3.510   7.617 -1.5225  1.5499  0.2579
 8659SOL    HW226556   1.175   3.531   7.565 -0.7243  0.0563  1.7061
 8660SOL     OW26557   5.851   0.700   4.410  0.3397 -0.2210  0.5701
 8660SOL    HW126558   5.924   0.761   4.415 -0.4059  0.6709  0.9300
 8660SOL    HW226559   5.781   0.743   4.458 -0.1026 -1.5258  1.1532
 8661SOL     OW26560   5.658   9.642   8.397 -0.2478  0.6129  0.3316
 8661SOL    HW126561   5.654   9.570   8.335  1.6665 -0.4302  1.3128
 8661SOL    HW226562   5.602   9.710   8.359 -0.6847 -0.7025 -1.5184
 8662SOL     OW26563   9.841   9.729   5.489  0.8202 -0.0394  0.4932
 8662SOL    HW126564   9.924   9.733   5.536  1.7076  2.0141 -1.1099
 8662SOL    HW226565   9.865   9.713   5.398 -0.6061 -0.1311  0.1078
 8663SOL     OW26566   9.167   7.315   6.806  1.2291 -0.3426 -0.3902
 8663SOL    HW126567   9.211   7.393   6.839  0.7683 -0.8568  1.6097
 8663SOL    HW226568   9.226   7.243   6.828 -0.8176 -1.1675  3.2626
 8664SOL     OW26569   7.273   4.152   0.575 -0.0839  0.4290 -0.5942
 8664SOL    HW126570   7.279   4.216   0.504 -0.4720  0.7429 -0.3499
 8664SOL    HW226571   7.184   4.117   0.568  0.2440 -0.3370 -0.9418
 8665SOL     OW26572   6.942   3.286   1.616  0.1725 -0.5809  1.0093
 8665SOL    HW126573   6.929   3.299   1.522 -1.5957 -0.3913  1.2357
 8665SOL    HW226574   7.037   3.288   1.628  0.4281 -0.5542 -0.7572
 8666SOL     OW26575   1.290   8.905   9.456  0.2190  0.4096 -0.1265
 8666SOL    HW126576   1.208   8.915   9.503 -0.4010  1.6024 -1.3713
 8666SOL    HW226577   1.308   8.811   9.458 -1.6563  0.0032 -0.5917
 8667SOL     OW26578   4.289   9.734   0.994 -0.6180 -0.4027 -0.1650
 8667SOL    HW126579   4.249   9.649   1.014 -0.8124 -0.0687  0.9639
 8667SOL    HW226580   4.252   9.759   0.909 -1.4904 -0.9068  0.0529
 8668SOL     OW26581   7.628   5.355   5.731  0.0687 -0.1432 -0.1396
 8668SOL    HW126582   7.564   5.345   5.660  0.2244 -0.4645 -0.2342
 8668SOL    HW226583   7.664   5.443   5.718 -0.9191  0.3539  0.3821
 8669SOL     OW26584   3.660   4.340   8.636 -0.1852 -0.1031  0.6451
 8669SOL    HW126585   3.587   4.278   8.636  0.4894 -0.9435 -0.4625
 8669SOL    HW226586   3.705   4.324   8.553  0.0351  1.8648  0.3216
 8670SOL     OW26587   7.153   7.712   4.541 -0.4401 -0.1000 -0.3148
 8670SOL    HW126588   7.226   7.653   4.558  0.1696  0.5222 -0.7281
 8670SOL    HW226589   7.192   7.785   4.494 -1.3933  0.0822 -0.8370
 8671SOL     OW26590   1.357   0.563   3.663  0.0354 -0.1336  0.0394
 8671SOL    HW126591   1.343   0.570   3.568 -0.1024  1.4386  0.1581
 8671SOL    HW226592   1.268   0.557   3.699  0.0420  0.2821  0.1306
 8672SOL     OW26593   3.187   1.247   0.102  0.6655 -0.0326 -0.4931
 8672SOL    HW126594   3.106   1.200   0.120 -0.6765  2.7720  1.7330
 8672SOL    HW226595   3.247   1.181   0.066 -2.0169 -2.5779 -0.6244
 8673SOL     OW26596   1.007   4.136   5.799 -0.2253  0.0890  0.5439
 8673SOL    HW126597   0.973   4.130   5.889  0.1696 -2.2281  0.6100
 8673SOL    HW226598   1.096   4.168   5.809  1.1262 -3.4348  1.4701
 8674SOL     OW26599   1.590   2.163   0.931 -0.3102 -0.0657 -0.0493
 8674SOL    HW126600   1.556   2.151   1.019  2.0164  1.5621  1.2099
 8674SOL    HW226601   1.683   2.143   0.939 -0.0383  0.1658 -2.1314
 8675SOL     OW26602   6.455   8.728   3.757  0.3393 -0.5071 -0.2696
 8675SOL    HW126603   6.465   8.633   3.754 -2.0995 -0.8967  1.1105
 8675SOL    HW226604   6.524   8.758   3.816  0.1649 -1.6498  0.5457
 8676SOL     OW26605   3.134   5.225   4.671  0.5003  0.0635  0.1117
 8676SOL    HW126606   3.121   5.232   4.576 -3.1361 -0.2927  0.4646
 8676SOL    HW226607   3.124   5.315   4.703 -3.4014 -0.3785  0.5272
 8677SOL     OW26608   1.184   5.916   2.656  0.7561  0.3326 -0.5535
 8677SOL    HW126609   1.139   5.833   2.668  0.7135  0.1874 -1.6888
 8677SOL    HW226610   1.114   5.981   2.651  0.7570  0.3312 -0.5812
 8678SOL     OW26611   3.635   6.554   7.840  0.1742  0.2412  0.0496
 8678SOL    HW126612   3.703   6.491   7.814 -2.0776 -1.9360 -0.9970
 8678SOL    HW226613   3.586   6.509   7.909 -1.9947  0.4593 -1.2754
 8679SOL     OW26614   3.130   4.651   4.267 -0.3250  0.4373 -0.0818
 8679SOL    HW126615   3.060   4.708   4.234 -0.0003  0.6870 -0.3389
 8679SOL    HW226616   3.178   4.705   4.330 -1.7640 -0.4450  1.8893
 8680SOL     OW26617   1.234   1.811   8.089  0.3268 -0.2283  0.3577
 8680SOL    HW126618   1.289   1.887   8.109 -0.0825 -0.7388  4.3592
 8680SOL    HW226619   1.287   1.758   8.030  2.0888  1.5503  0.2314
 8681SOL     OW26620   2.653   4.520   1.733  0.1924  0.4763 -0.1786
 8681SOL    HW126621   2.738   4.510   1.774 -0.5293 -0.6827  1.1229
 8681SOL    HW226622   2.642   4.614   1.723  0.8777  0.7399  1.2922
 8682SOL     OW26623   3.964   9.099   7.354  0.8063 -0.0166 -0.7833
 8682SOL    HW126624   3.944   9.149   7.433  1.0938 -1.6610  0.3803
 8682SOL    HW226625   3.908   9.022   7.360  1.5278 -0.6316 -1.7150
 8683SOL     OW26626   3.486   0.483   8.970  0.5619  0.4370  0.3039
 8683SOL    HW126627   3.475   0.390   8.992 -4.0961  0.9099  0.9520
 8683SOL    HW226628   3.465   0.489   8.877 -0.2361  0.9209  0.5027
 8684SOL     OW26629   9.387   0.128   0.230  0.2959  0.1800  0.4905
 8684SOL    HW126630   9.319   0.179   0.186 -1.0107  0.1385  2.3700
 8684SOL    HW226631   9.388   0.044   0.184  2.4635  1.7227 -2.6421
 8685SOL     OW26632   8.802   7.274   9.850 -0.0368  0.0529  0.1635
 8685SOL    HW126633   8.778   7.234   9.933  2.3908  0.9155  1.3600
 8685SOL    HW226634   8.812   7.367   9.869  0.4721  0.2876 -1.1093
 8686SOL     OW26635   8.122   0.269   8.405 -0.1291  0.5983  0.1316
 8686SOL    HW126636   8.028   0.256   8.395 -0.1294  0.0781  0.7662
 8686SOL    HW226637   8.141   0.346   8.352 -1.0603  1.2341  0.6892
 8687SOL     OW26638   5.038   3.133   8.322 -0.4742  0.4430 -0.3314
 8687SOL    HW126639   4.969   3.076   8.288 -0.3231 -0.6897  1.1567
 8687SOL    HW226640   5.055   3.100   8.411  1.8988  0.7574 -0.6128
 8688SOL     OW26641   6.393   5.468   4.946 -1.1026 -0.3322  0.9751
 8688SOL    HW126642   6.323   5.445   4.884  0.0517  1.5437 -1.1726
 8688SOL    HW226643   6.403   5.563   4.937  1.5691 -0.5062  1.3363
 8689SOL     OW26644   2.385   3.104   0.934 -0.2470 -0.5081 -0.1601
 8689SOL    HW126645   2.425   3.073   0.853  1.2873 -1.2722  0.8383
 8689SOL    HW226646   2.425   3.050   1.002 -0.4720  1.0099  1.2329
 8690SOL     OW26647   8.918   8.682   4.376  0.0565 -0.3672  0.0698
 8690SOL    HW126648   8.935   8.773   4.352 -0.9034 -0.8260 -2.8129
 8690SOL    HW226649   9.004   8.640   4.376  0.2819  0.0857 -0.8910
 8691SOL     OW26650   2.421   9.625   0.417 -0.1195 -0.7566  0.9402
 8691SOL    HW126651   2.379   9.568   0.481  0.4397 -0.8317  1.2490
 8691SOL    HW226652   2.481   9.567   0.369  0.2414 -0.4919  1.0638
 8692SOL     OW26653   9.617   9.240   0.778  0.5121  0.0761  0.2209
 8692SOL    HW126654   9.642   9.285   0.859  0.0945  1.6372 -0.4851
 8692SOL    HW226655   9.656   9.292   0.708  1.6251 -1.7567 -0.5879
 8693SOL     OW26656   3.448   7.281   1.994  0.0437 -0.2868  0.2175
 8693SOL    HW126657   3.514   7.227   2.037 -1.4666 -0.2055  2.8888
 8693SOL    HW226658   3.496   7.356   1.959  1.5137 -0.8655  0.9247
 8694SOL     OW26659   3.442   0.518   0.140  0.1177 -0.0454  0.0164
 8694SOL    HW126660   3.378   0.503   0.209  0.6193  0.0581  0.5127
 8694SOL    HW226661   3.470   0.609   0.152  1.0389 -0.3704  0.3945
 8695SOL     OW26662   8.096   5.823   0.333 -0.6037 -0.2193  0.5418
 8695SOL    HW126663   8.138   5.814   0.247 -2.2162 -0.9444 -0.2266
 8695SOL    HW226664   8.096   5.917   0.350 -0.6061 -0.0263 -0.4483
 8696SOL     OW26665   5.649   3.317   5.198 -0.2931  0.2683  0.3494
 8696SOL    HW126666   5.727   3.263   5.214  0.0343  1.0511  1.5612
 8696SOL    HW226667   5.585   3.285   5.262 -1.1506 -0.6647 -0.9319
 8697SOL     OW26668   3.706   5.717   2.507  0.1626 -0.0107  0.8760
 8697SOL    HW126669   3.724   5.808   2.531  1.3980 -0.4054  1.5607
 8697SOL    HW226670   3.706   5.717   2.411 -1.7877  1.0397  0.8326
 8698SOL     OW26671   6.522   4.875   0.184  0.1006 -0.3786  0.4810
 8698SOL    HW126672   6.468   4.952   0.199  0.5602  0.2802 -0.9878
 8698SOL    HW226673   6.478   4.805   0.230 -0.9968  0.5161  0.8363
 8699SOL     OW26674   7.251   6.484   3.040  0.4311 -0.1268 -0.4737
 8699SOL    HW126675   7.312   6.532   3.096 -0.0032 -0.1823  0.0627
 8699SOL    HW226676   7.307   6.431   2.983  0.8968 -1.2628  0.9748
 8700SOL     OW26677   8.469   3.918   7.600 -0.2069 -0.4962  0.0036
 8700SOL    HW126678   8.433   3.974   7.669  0.0736 -1.0267  0.5852
 8700SOL    HW226679   8.473   3.975   7.523  2.0704  0.9853  1.0961
 8701SOL     OW26680   8.986   7.380   0.489  0.1843  0.4924  0.8727
 8701SOL    HW126681   9.076   7.352   0.470 -0.4105 -1.5781  0.8561
 8701SOL    HW226682   8.986   7.399   0.583  0.1305 -1.8383  1.3987
 8702SOL     OW26683   7.420   1.677   2.199 -0.4637  0.0728  0.2842
 8702SOL    HW126684   7.458   1.673   2.287 -2.4584 -1.8241  1.1829
 8702SOL    HW226685   7.401   1.585   2.178  1.2444  0.3088 -2.7957
 8703SOL     OW26686   4.719   8.527   7.978 -0.7895 -0.2210 -0.3069
 8703SOL    HW126687   4.698   8.470   7.904  0.8305  0.0471 -1.0159
 8703SOL    HW226688   4.759   8.604   7.938 -1.7514  0.8561  0.7343
 8704SOL     OW26689   6.193   3.676   6.758 -0.0661 -0.1203  0.0013
 8704SOL    HW126690   6.281   3.650   6.731 -0.6384 -0.7591 -1.3533
 8704SOL    HW226691   6.205   3.712   6.846  1.4719 -0.6160  0.0349
 8705SOL     OW26692   4.050   7.843   0.744  0.1391  0.1483 -0.2148
 8705SOL    HW126693   4.093   7.758   0.737 -0.2601 -0.0967  0.2828
 8705SOL    HW226694   4.060   7.882   0.657 -0.7235 -0.9103 -0.8039
 8706SOL     OW26695   1.497   4.062   9.047  0.1938  1.0667  0.0457
 8706SOL    HW126696   1.469   3.972   9.063  2.7999  0.5990  2.8071
 8706SOL    HW226697   1.548   4.057   8.966  1.8187 -0.3973  1.0911
 8707SOL     OW26698   4.126   0.839   5.375 -0.3317  0.6041 -0.1058
 8707SOL    HW126699   4.061   0.769   5.367  0.1150  0.1569  0.1723
 8707SOL    HW226700   4.084   0.904   5.431 -0.4810  0.2428  0.2081
 8708SOL     OW26701   6.213   7.012   8.409 -0.2825 -0.0064  0.0364
 8708SOL    HW126702   6.241   6.941   8.351 -1.2807  0.5277 -1.1453
 8708SOL    HW226703   6.145   6.973   8.464  0.2752 -0.3623  0.4948
 8709SOL     OW26704   4.790   5.950   6.156 -0.2123 -0.3669 -0.2595
 8709SOL    HW126705   4.816   5.988   6.072  1.7020 -0.1264  0.4134
 8709SOL    HW226706   4.806   5.857   6.146  1.5118 -0.1517  0.3441
 8710SOL     OW26707   7.313   1.562   4.859  0.1370 -0.7585  0.3675
 8710SOL    HW126708   7.292   1.470   4.876 -0.4380 -0.8309 -0.6749
 8710SOL    HW226709   7.407   1.563   4.842  0.7812 -0.6857  3.3684
 8711SOL     OW26710   7.495   7.575   1.800  0.1712 -0.2693 -0.6567
 8711SOL    HW126711   7.562   7.632   1.763  0.5117 -0.5777 -0.5280
 8711SOL    HW226712   7.521   7.487   1.772  0.7882 -0.5818  0.8202
 8712SOL     OW26713   4.476   6.213   8.733 -0.0490  0.4586  0.2998
 8712SOL    HW126714   4.511   6.259   8.656 -1.9920  1.6854  0.0815
 8712SOL    HW226715   4.382   6.211   8.719 -0.1500 -3.9607  0.1871
 8713SOL     OW26716   3.434   3.769   2.354  0.1035  0.5553  0.4884
 8713SOL    HW126717   3.517   3.722   2.360 -0.8612 -1.4301 -0.8013
 8713SOL    HW226718   3.456   3.859   2.379  1.7449 -0.7770  4.7672
 8714SOL     OW26719   2.350   8.726   7.684 -0.4387  0.4414  0.0932
 8714SOL    HW126720   2.415   8.755   7.620  1.3705  3.0013  2.8250
 8714SOL    HW226721   2.401   8.688   7.755 -2.2433 -0.8259  0.8019
 8715SOL     OW26722   4.730   5.645   6.783  0.0006  0.1070 -0.2713
 8715SOL    HW126723   4.684   5.639   6.866 -0.1798  0.5206 -0.3363
 8715SOL    HW226724   4.662   5.637   6.717  0.3169 -1.7929 -0.4260
 8716SOL     OW26725   2.403   1.396   7.031  0.3318  0.3905 -0.1628
 8716SOL    HW126726   2.425   1.315   7.077  0.2809  1.3251  1.5800
 8716SOL    HW226727   2.488   1.440   7.018  0.3676  0.0519 -1.1655
 8717SOL     OW26728   4.985   8.054   6.391  0.4255  0.2758  0.7170
 8717SOL    HW126729   4.999   8.039   6.485 -0.9132  0.6210  1.0001
 8717SOL    HW226730   4.987   8.150   6.382  3.5091  0.2431 -0.1517
 8718SOL     OW26731   1.230   5.779   4.072 -0.8425  0.1942  0.4216
 8718SOL    HW126732   1.186   5.834   4.008 -0.3125  0.1159 -0.0228
 8718SOL    HW226733   1.293   5.838   4.115 -0.5348  0.0246  0.2059
 8719SOL     OW26734   9.999   9.563   6.696  0.0905 -0.6652  0.0081
 8719SOL    HW126735   9.988   9.468   6.690  2.1204 -0.8757 -0.8777
 8719SOL    HW226736   9.923   9.599   6.650 -0.2384 -1.8550 -0.4082
 8720SOL     OW26737   6.239   7.329   4.583 -0.2571 -0.1174 -0.2585
 8720SOL    HW126738   6.303   7.264   4.610 -0.9600 -1.2110 -1.1193
 8720SOL    HW226739   6.175   7.280   4.532 -0.8305  1.2497 -0.9167
 8721SOL     OW26740   0.204   0.559   9.710 -0.1972 -0.2218 -0.5544
 8721SOL    HW126741   0.263   0.536   9.783  1.6320 -0.4717 -2.0251
 8721SOL    HW226742   0.118   0.570   9.751  0.5166 -1.5472  1.4503
 8722SOL     OW26743   1.024   0.500   2.671  0.1699 -0.1823 -0.4268
 8722SOL    HW126744   0.951   0.442   2.648 -0.2990  0.9804 -2.1348
 8722SOL    HW226745   1.081   0.497   2.594  0.3558  1.2304 -0.3708
 8723SOL     OW26746   6.333   0.872   4.842  0.1666  0.0882  0.4568
 8723SOL    HW126747   6.370   0.921   4.768 -0.5715 -1.9368 -1.3559
 8723SOL    HW226748   6.244   0.905   4.852  0.8123  1.5639  1.6229
 8724SOL     OW26749   3.359   8.030   8.832 -0.4036 -0.2035 -0.0593
 8724SOL    HW126750   3.389   8.034   8.923 -0.8715  1.7905  0.0516
 8724SOL    HW226751   3.438   8.042   8.780 -0.4681  1.4311  0.1689
 8725SOL     OW26752   9.867   6.047   1.821  0.1995 -0.3047  0.0932
 8725SOL    HW126753   9.907   5.985   1.883  0.3962  0.2077  0.4864
 8725SOL    HW226754   9.896   6.133   1.851  0.6901 -0.0740 -1.0092
 8726SOL     OW26755   2.058   8.179   2.487  0.2865 -0.0069  0.5747
 8726SOL    HW126756   2.030   8.264   2.453 -0.8173 -0.8658 -0.7647
 8726SOL    HW226757   2.147   8.168   2.455 -0.4324 -0.4150 -1.4041
 8727SOL     OW26758   4.682   3.737   4.516 -0.1654 -0.2394  0.2521
 8727SOL    HW126759   4.744   3.797   4.477  0.9100 -0.4683  1.5458
 8727SOL    HW226760   4.736   3.671   4.560 -1.3134 -1.3305  0.1008
 8728SOL     OW26761   3.803   3.423   2.660 -0.2698  0.2235  0.6148
 8728SOL    HW126762   3.851   3.502   2.686 -1.7149  0.9360  1.2176
 8728SOL    HW226763   3.721   3.427   2.710 -1.3286 -0.5016 -0.9858
 8729SOL     OW26764   5.769   0.799   5.763  0.0871  0.0628 -0.1784
 8729SOL    HW126765   5.741   0.843   5.843 -1.0458 -0.0765 -0.4767
 8729SOL    HW226766   5.694   0.746   5.737  0.9894 -1.1258 -0.4895
 8730SOL     OW26767   2.628   5.844   1.087 -0.3750  0.0419  0.2843
 8730SOL    HW126768   2.723   5.841   1.096 -0.4458  1.5346  2.0713
 8730SOL    HW226769   2.613   5.908   1.018 -0.0981 -0.5115 -0.3021
 8731SOL     OW26770   2.906   4.998   8.876 -1.1950  0.4202 -0.2070
 8731SOL    HW126771   2.948   4.948   8.946 -1.6516  1.0792  0.5475
 8731SOL    HW226772   2.876   4.931   8.814 -2.1846 -0.2829  0.9887
 8732SOL     OW26773   4.864   5.009   4.638  0.4568  0.0690  0.1766
 8732SOL    HW126774   4.790   5.057   4.675  0.3362 -0.0642  0.1104
 8732SOL    HW226775   4.836   4.986   4.549 -0.1233 -1.4861  0.7299
 8733SOL     OW26776   2.915   2.603   4.356 -0.3034  0.2849 -0.1342
 8733SOL    HW126777   2.945   2.548   4.284  1.2649  1.4706 -0.4273
 8733SOL    HW226778   2.860   2.670   4.314  0.1101  0.6139 -0.1533
 8734SOL     OW26779   4.021   7.270   9.705  0.1972 -0.2073 -0.0695
 8734SOL    HW126780   4.004   7.255   9.798  0.3727 -1.9769 -0.2825
 8734SOL    HW226781   4.112   7.302   9.702 -1.0140  3.8816  0.6146
 8735SOL     OW26782   3.268   8.568   6.598  0.0779 -0.3431  0.1290
 8735SOL    HW126783   3.268   8.475   6.577 -0.2471 -0.6664  1.4309
 8735SOL    HW226784   3.349   8.581   6.648 -0.5923 -0.2758  1.2426
 8736SOL     OW26785   3.979   6.969   2.841 -1.1316 -0.2269 -0.0733
 8736SOL    HW126786   3.932   6.954   2.923 -0.4400  0.5066  0.4635
 8736SOL    HW226787   4.057   6.913   2.847 -0.1727  1.1245  0.5599
 8737SOL     OW26788   9.809   9.052   7.054  0.2438 -0.1796  1.0467
 8737SOL    HW126789   9.717   9.079   7.047  0.2488 -0.0044  1.6074
 8737SOL    HW226790   9.831   9.068   7.146  0.8702 -0.1037  0.8842
 8738SOL     OW26791   7.145   4.290   4.976  0.2885  0.0118 -0.3676
 8738SOL    HW126792   7.063   4.242   4.991  1.4443 -1.9359  0.0335
 8738SOL    HW226793   7.209   4.245   5.031  1.7294  1.2269 -1.0078
 8739SOL     OW26794   2.310   6.992   5.160  0.3493 -0.2156  0.2362
 8739SOL    HW126795   2.266   7.048   5.223  0.6167 -0.6146  0.7844
 8739SOL    HW226796   2.382   7.045   5.127  1.6123 -0.7755  1.9702
 8740SOL     OW26797   5.166   7.471   6.600  0.3133  0.4690  0.6438
 8740SOL    HW126798   5.125   7.446   6.517  0.6343  1.2458  0.2448
 8740SOL    HW226799   5.169   7.389   6.650  0.2894 -0.0528 -0.1847
 8741SOL     OW26800   5.051   2.565   2.268 -0.2326 -0.0496 -0.0780
 8741SOL    HW126801   5.127   2.567   2.325 -0.2737 -0.2946 -0.0132
 8741SOL    HW226802   5.065   2.637   2.206  0.2150 -0.3056 -0.2811
 8742SOL     OW26803   1.610   8.410   1.397 -0.4676 -0.6446 -0.1352
 8742SOL    HW126804   1.679   8.416   1.331 -0.5553  0.0418 -0.1631
 8742SOL    HW226805   1.557   8.488   1.385  0.8538  0.7474  2.2717
 8743SOL     OW26806   0.201   7.401   5.902 -0.3343  0.1458  0.1358
 8743SOL    HW126807   0.140   7.441   5.963 -0.7159  1.6311 -1.1452
 8743SOL    HW226808   0.222   7.316   5.941  1.3094  1.9031  3.5340
 8744SOL     OW26809   2.240   0.959   3.006 -0.4183  0.6719  0.1773
 8744SOL    HW126810   2.273   0.909   2.932 -1.1796  1.1141 -0.4819
 8744SOL    HW226811   2.298   0.936   3.078  0.6486  0.6074 -0.6679
 8745SOL     OW26812   2.137   2.850   1.233  0.0706 -0.1303  0.2947
 8745SOL    HW126813   2.169   2.872   1.145  0.6772 -0.8860  0.3220
 8745SOL    HW226814   2.206   2.796   1.271  0.6774  1.6670  1.9271
 8746SOL     OW26815   4.046   6.573   7.354  0.3258  0.3109 -0.0467
 8746SOL    HW126816   4.076   6.641   7.414  0.7333  0.2231 -0.1488
 8746SOL    HW226817   4.041   6.494   7.409  0.0939  0.3652  0.0134
 8747SOL     OW26818  -0.020   6.513   9.057  0.7184 -0.5993 -0.3189
 8747SOL    HW126819   0.065   6.472   9.038  0.5315 -1.3979  0.5239
 8747SOL    HW226820   0.001   6.583   9.119  0.7722 -0.7180 -0.2043
 8748SOL     OW26821   9.178   8.588   3.245 -0.0201  0.0782 -0.7575
 8748SOL    HW126822   9.232   8.553   3.316 -0.0056  1.0709 -0.2693
 8748SOL    HW226823   9.218   8.672   3.223 -1.8056  1.2631  0.1990
 8749SOL     OW26824   1.473   6.395   7.749 -0.3535  0.2456  0.2710
 8749SOL    HW126825   1.431   6.459   7.806 -2.5778  0.0239 -1.0140
 8749SOL    HW226826   1.511   6.446   7.678 -1.0106  0.2586 -0.0796
 8750SOL     OW26827   9.384   6.724   2.951 -0.5407 -0.0954  0.0612
 8750SOL    HW126828   9.325   6.734   3.026 -0.2906  3.9929 -0.0982
 8750SOL    HW226829   9.471   6.717   2.990 -0.4910  1.1489  0.1858
 8751SOL     OW26830   4.734   1.844   8.099 -0.1658  0.1937  0.8990
 8751SOL    HW126831   4.698   1.903   8.166  2.5492  3.1634  0.0374
 8751SOL    HW226832   4.792   1.785   8.148  0.1102  0.8780  1.4206
 8752SOL     OW26833   5.227   9.356   7.355  0.2324 -0.7104 -0.4891
 8752SOL    HW126834   5.226   9.266   7.385  0.5909 -0.8807 -0.9876
 8752SOL    HW226835   5.134   9.379   7.345  0.1502 -1.1836 -0.8400
 8753SOL     OW26836   6.242   1.286   1.076  0.0198 -0.1705 -0.9998
 8753SOL    HW126837   6.168   1.337   1.109  0.2956  0.2215 -0.9796
 8753SOL    HW226838   6.292   1.263   1.154  0.4814  0.4569 -1.1029
 8754SOL     OW26839   6.073   7.666   4.287  0.0940 -0.3442 -0.1241
 8754SOL    HW126840   6.084   7.647   4.380  1.3148  1.2375  0.1201
 8754SOL    HW226841   6.013   7.740   4.285  0.5091 -0.0113 -0.5369
 8755SOL     OW26842   2.097   6.888   5.847  0.4014 -0.1765  0.0686
 8755SOL    HW126843   2.150   6.867   5.770 -0.5462 -0.2076 -0.5852
 8755SOL    HW226844   2.052   6.969   5.824  0.4912  0.0851  0.7908
 8756SOL     OW26845   1.122   4.982   1.558  0.0620  0.0846  0.1444
 8756SOL    HW126846   1.149   5.068   1.525 -0.4893  0.6191  1.0445
 8756SOL    HW226847   1.027   4.989   1.568  0.2362  0.0747  2.1508
 8757SOL     OW26848   6.136   0.062   2.753 -0.2392 -0.5443  0.4797
 8757SOL    HW126849   6.162   0.147   2.788 -0.1084 -1.0017  1.5412
 8757SOL    HW226850   6.042   0.055   2.772 -0.7539  0.2701 -1.5788
 8758SOL     OW26851   0.514   3.373   7.385  0.4465 -0.2813 -0.3993
 8758SOL    HW126852   0.603   3.355   7.415 -0.1101 -0.8405  0.9881
 8758SOL    HW226853   0.522   3.381   7.290  1.9644 -0.3762 -0.3013
 8759SOL     OW26854   6.089   9.353   7.234 -0.4503 -0.0025 -0.1967
 8759SOL    HW126855   6.124   9.421   7.291 -1.1465  0.0891  0.1238
 8759SOL    HW226856   6.113   9.271   7.278 -0.2112  0.0474 -0.2321
 8760SOL     OW26857   2.412   7.446   7.535 -0.0497  0.1163  0.0916
 8760SOL    HW126858   2.355   7.522   7.526  0.0612  0.3496  1.2503
 8760SOL    HW226859   2.460   7.460   7.617  0.0149 -1.1643  0.3031
 8761SOL     OW26860   8.472   2.721   0.447 -0.1065 -0.2312  0.2381
 8761SOL    HW126861   8.415   2.680   0.381  1.4058  0.7552 -1.7732
 8761SOL    HW226862   8.533   2.652   0.472 -0.4892 -0.5183  0.4007
 8762SOL     OW26863   8.637   7.998   3.965  0.3407  0.0360  0.3927
 8762SOL    HW126864   8.574   7.967   4.029  1.3818  0.8515  1.8787
 8762SOL    HW226865   8.692   8.060   4.013  1.5285  0.2460 -1.1402
 8763SOL     OW26866   1.216   3.947   2.345  0.5335 -0.5256  0.2807
 8763SOL    HW126867   1.247   3.983   2.428  0.9471  0.1460 -0.1573
 8763SOL    HW226868   1.276   3.875   2.325  0.9710 -0.1213  0.1269
 8764SOL     OW26869   7.115   4.434   9.973  0.1740 -0.3183 -0.2777
 8764SOL    HW126870   7.168   4.417  10.051 -0.5457 -1.1526  0.0394
 8764SOL    HW226871   7.178   4.461   9.906  0.8025  0.3829  0.5808
 8765SOL     OW26872   6.113   7.337   7.492 -0.5634 -0.2887 -0.1570
 8765SOL    HW126873   6.090   7.430   7.499  1.1886  0.3120 -1.5291
 8765SOL    HW226874   6.201   7.332   7.530 -0.6909 -1.4159  0.0047
 8766SOL     OW26875   0.686   0.256   9.088  0.0924  0.8597 -0.9387
 8766SOL    HW126876   0.617   0.318   9.109  0.3018  0.8680 -0.2479
 8766SOL    HW226877   0.747   0.305   9.033 -0.8845  0.5934 -2.3032
 8767SOL     OW26878   0.199   1.480   9.512 -0.1758 -0.3606  0.1152
 8767SOL    HW126879   0.146   1.403   9.529  1.4116 -2.1614 -2.5033
 8767SOL    HW226880   0.141   1.554   9.530 -1.6798 -2.0796  2.9092
 8768SOL     OW26881   9.450   0.570   1.865  0.3779  0.6434  0.1743
 8768SOL    HW126882   9.437   0.639   1.929 -2.2334  2.5382 -2.1613
 8768SOL    HW226883   9.379   0.508   1.882  1.8976 -0.8462  1.3839
 8769SOL     OW26884   2.706   2.876   4.645  0.0711 -0.2544  0.1168
 8769SOL    HW126885   2.649   2.891   4.720 -2.4696 -1.0621 -1.5001
 8769SOL    HW226886   2.693   2.784   4.623 -0.8394  0.3996 -2.4410
 8770SOL     OW26887   9.303   3.876   0.668 -0.1216  0.3515  0.2811
 8770SOL    HW126888   9.276   3.873   0.576  0.3286  1.0364  0.1160
 8770SOL    HW226889   9.284   3.966   0.695  0.1452  0.2729  0.7343
 8771SOL     OW26890   4.715   5.836   0.228  0.2211 -0.4431  0.0366
 8771SOL    HW126891   4.771   5.906   0.194  0.2747  0.1527  1.2844
 8771SOL    HW226892   4.772   5.759   0.232  1.2222  0.3299  1.9768
 8772SOL     OW26893   8.655   8.939   1.498 -0.2160 -0.1864 -0.0143
 8772SOL    HW126894   8.623   8.908   1.583 -3.9664  2.7895 -0.0677
 8772SOL    HW226895   8.729   8.996   1.521  1.4303 -2.4716  0.7429
 8773SOL     OW26896   4.319   9.004   5.373 -0.1883  0.5264  0.3543
 8773SOL    HW126897   4.320   8.912   5.399 -0.7463 -0.2920 -2.1533
 8773SOL    HW226898   4.285   9.051   5.449  1.7233 -1.0839  2.3103
 8774SOL     OW26899   8.204   9.227   0.735  1.1405  0.5327  0.1343
 8774SOL    HW126900   8.285   9.238   0.685  0.8436 -0.1356 -0.4981
 8774SOL    HW226901   8.233   9.234   0.827  2.3304 -1.9143  0.0319
 8775SOL     OW26902   8.350   7.979   6.558  0.0718  0.6231 -0.0536
 8775SOL    HW126903   8.418   8.046   6.563 -1.1663  2.1425 -2.0336
 8775SOL    HW226904   8.343   7.945   6.647  2.6389  1.1568  0.4262
 8776SOL     OW26905   9.046   6.565   1.195  0.4289  0.4444 -0.6755
 8776SOL    HW126906   9.120   6.515   1.230  0.6723  0.8513 -0.6071
 8776SOL    HW226907   9.086   6.641   1.154 -0.0072  1.1233  0.1365
 8777SOL     OW26908   0.741   5.732   8.084  0.1370 -0.1139 -0.1682
 8777SOL    HW126909   0.676   5.776   8.029  0.4983  0.1400 -0.3909
 8777SOL    HW226910   0.741   5.642   8.052 -1.1637 -0.4914  0.7954
 8778SOL     OW26911   0.660   9.460   2.386 -0.1306  0.7420 -0.4855
 8778SOL    HW126912   0.572   9.467   2.421 -0.6795 -0.3476 -1.5542
 8778SOL    HW226913   0.648   9.426   2.297  1.2918  1.7200 -1.0939
 8779SOL     OW26914   4.756   4.981   3.043 -0.5134 -0.1174 -0.1898
 8779SOL    HW126915   4.794   4.973   3.130  0.4793 -1.2770 -0.7006
 8779SOL    HW226916   4.814   5.041   2.996 -0.8884  0.2848 -0.1476
 8780SOL     OW26917   3.064   3.438   8.537  0.0324  0.5718  0.0410
 8780SOL    HW126918   3.135   3.396   8.587 -0.3102  1.4932  1.3608
 8780SOL    HW226919   3.107   3.507   8.488  0.4866 -0.7913 -1.5717
 8781SOL     OW26920   5.449   4.827   6.239  0.0666 -0.0712 -0.5545
 8781SOL    HW126921   5.477   4.844   6.329  0.5673  1.1713 -0.9193
 8781SOL    HW226922   5.479   4.739   6.220  2.0201  0.4930 -0.2631
 8782SOL     OW26923   0.679   7.777   6.224 -0.5787 -0.1615  0.1929
 8782SOL    HW126924   0.637   7.849   6.270 -0.9125  0.9317 -1.7303
 8782SOL    HW226925   0.607   7.726   6.188 -0.3073 -0.3141 -0.1396
 8783SOL     OW26926   6.444   3.598   6.734 -0.4541  0.4344  0.6094
 8783SOL    HW126927   6.495   3.529   6.777  0.5657 -0.5966 -2.0423
 8783SOL    HW226928   6.497   3.677   6.745  0.1830  0.0199  0.5700
 8784SOL     OW26929   4.703   2.873   7.049  0.2059  0.5558 -0.0284
 8784SOL    HW126930   4.660   2.815   7.111  0.9769  0.6504  0.6061
 8784SOL    HW226931   4.796   2.853   7.057  0.2383 -0.6535 -2.3748
 8785SOL     OW26932   4.721   2.722   8.928 -0.3758  0.0481  0.0507
 8785SOL    HW126933   4.764   2.784   8.987 -0.6630  0.6578 -0.3770
 8785SOL    HW226934   4.771   2.641   8.938  0.4092  0.5376  0.1115
 8786SOL     OW26935   4.410   2.297   3.791 -0.8839 -0.0469 -0.0058
 8786SOL    HW126936   4.411   2.238   3.866 -1.9559  2.2675  1.9543
 8786SOL    HW226937   4.330   2.274   3.743  0.8750 -2.9813 -1.8276
 8787SOL     OW26938   5.765   5.537   7.338 -1.2090  0.4204  0.0095
 8787SOL    HW126939   5.778   5.442   7.334  0.6676  0.3449  3.5738
 8787SOL    HW226940   5.675   5.548   7.366 -1.2199 -0.3491  0.3028
 8788SOL     OW26941   7.663   9.561   5.823 -0.3885 -0.0159 -0.4240
 8788SOL    HW126942   7.655   9.467   5.838  1.4644 -0.2057 -0.4770
 8788SOL    HW226943   7.751   9.573   5.789 -0.7338  1.7089 -0.8191
 8789SOL     OW26944   0.242   4.217   9.815 -0.3486 -0.0525  0.1942
 8789SOL    HW126945   0.334   4.193   9.825  0.6579  3.0352 -0.6717
 8789SOL    HW226946   0.202   4.192   9.898  1.5467 -0.3205  1.0893
 8790SOL     OW26947   4.205   6.153   0.814  0.1103 -0.2290  0.0184
 8790SOL    HW126948   4.160   6.133   0.896  0.5202  1.1282  0.5999
 8790SOL    HW226949   4.276   6.090   0.809  0.9303  0.5495  1.4206
 8791SOL     OW26950   2.754   6.989   4.160  0.1236 -0.5426  0.2852
 8791SOL    HW126951   2.847   7.012   4.163 -0.2324  1.3102 -1.1913
 8791SOL    HW226952   2.740   6.934   4.238  2.0826  0.5211  1.4573
 8792SOL     OW26953   6.694   7.692   3.893 -0.1095 -0.1300 -0.2538
 8792SOL    HW126954   6.614   7.663   3.937 -0.2943  2.0251  0.9669
 8792SOL    HW226955   6.764   7.675   3.956  0.8074 -3.5460 -1.9179
 8793SOL     OW26956   2.232   4.073   5.714  0.4930 -0.0604  0.4169
 8793SOL    HW126957   2.260   3.982   5.705  0.1376 -0.0006 -1.7731
 8793SOL    HW226958   2.312   4.124   5.702  0.2175 -0.0263 -1.6057
 8794SOL     OW26959   4.024   8.288   8.632 -0.3065  0.6592 -0.6500
 8794SOL    HW126960   4.028   8.278   8.727 -3.0614  2.7497 -0.1836
 8794SOL    HW226961   4.105   8.249   8.601  0.2835 -0.9388  2.4558
 8795SOL     OW26962   4.281   9.168   2.652  0.1860 -0.2949  0.3804
 8795SOL    HW126963   4.261   9.077   2.672  1.3684 -0.2747  1.7742
 8795SOL    HW226964   4.195   9.210   2.644 -0.3635 -1.4989 -0.2058
 8796SOL     OW26965   6.310   8.491   0.403 -0.3981 -0.3648  0.3080
 8796SOL    HW126966   6.312   8.586   0.410 -0.5284 -0.3362 -0.0059
 8796SOL    HW226967   6.387   8.461   0.451 -0.4683 -0.1108  0.5769
 8797SOL     OW26968   0.968   2.991   4.842  0.1535 -0.0507 -0.7466
 8797SOL    HW126969   0.875   3.010   4.831  0.1949  0.9990  0.5124
 8797SOL    HW226970   0.997   2.965   4.754 -1.1725  0.2626 -1.3056
 8798SOL     OW26971   4.601   4.592   1.175 -0.2727 -0.4146 -0.4509
 8798SOL    HW126972   4.649   4.650   1.114 -1.0308 -1.2690 -1.9200
 8798SOL    HW226973   4.575   4.518   1.121  0.9218 -2.3187  1.4467
 8799SOL     OW26974   8.442   8.860   3.982  0.0911 -0.0573 -0.2432
 8799SOL    HW126975   8.419   8.795   4.049  2.6768  0.1069  0.9270
 8799SOL    HW226976   8.414   8.820   3.900 -1.8417 -0.9338  0.7714
 8800SOL     OW26977   1.937   8.714   8.747 -0.0736  0.0211 -0.6119
 8800SOL    HW126978   1.939   8.801   8.707  2.8962 -0.4064 -1.5981
 8800SOL    HW226979   1.853   8.677   8.720 -0.3491  1.6716 -2.1961
 8801SOL     OW26980   5.605   5.496   0.873 -0.0319 -0.2373  0.1246
 8801SOL    HW126981   5.610   5.421   0.814 -0.9878 -0.4132  0.2447
 8801SOL    HW226982   5.653   5.468   0.951 -1.6829 -1.3652  0.7989
 8802SOL     OW26983   1.013   3.492   1.353  0.1243  0.4315 -0.4124
 8802SOL    HW126984   0.939   3.488   1.293 -1.6260  1.7217  1.5344
 8802SOL    HW226985   0.990   3.430   1.423  1.1459  0.4410 -0.0556
 8803SOL     OW26986   6.551   1.007   8.079  0.4412 -0.2869  0.0020
 8803SOL    HW126987   6.534   1.098   8.055 -3.4226 -0.6609  0.7020
 8803SOL    HW226988   6.539   1.005   8.174  4.0500 -0.9754  0.5719
 8804SOL     OW26989   9.930   6.814   4.535 -0.1289 -0.8097 -0.6185
 8804SOL    HW126990   9.860   6.748   4.526 -0.4697 -0.8800  1.8697
 8804SOL    HW226991   9.998   6.769   4.586  0.4537  0.1859 -0.5022
 8805SOL     OW26992   4.674   7.407   1.617  0.4273 -0.9818 -0.2441
 8805SOL    HW126993   4.734   7.407   1.691  0.2859  0.7319 -0.0907
 8805SOL    HW226994   4.598   7.457   1.647 -0.7096 -2.3376 -0.7394
 8806SOL     OW26995   6.187   4.269   0.786 -0.1776 -0.0492 -0.4602
 8806SOL    HW126996   6.143   4.197   0.742  1.0880 -0.3688 -1.2451
 8806SOL    HW226997   6.203   4.333   0.716 -1.0751  0.9107  0.1801
 8807SOL     OW26998   3.134   9.636   6.327 -0.0491 -0.0474 -0.3301
 8807SOL    HW126999   3.190   9.644   6.250  0.0551  0.3581 -0.2155
 8807SOL    HW227000   3.187   9.587   6.391  0.3584  0.7436 -0.0526
 8808SOL     OW27001   4.258   7.685   6.321  0.2675 -0.3368  0.6254
 8808SOL    HW127002   4.305   7.740   6.258 -0.6877  0.6629  0.7462
 8808SOL    HW227003   4.263   7.733   6.403 -2.7194  0.9391  0.1953
 8809SOL     OW27004   3.614   1.789   0.501  0.3777 -0.5567  0.6851
 8809SOL    HW127005   3.708   1.800   0.504  0.2517  1.0608 -0.0767
 8809SOL    HW227006   3.597   1.752   0.414  0.2131  0.5673  0.2263
 8810SOL     OW27007   2.465   3.019   8.100 -0.3953  0.1103  0.0104
 8810SOL    HW127008   2.387   2.973   8.132  0.0090 -1.7503 -1.4701
 8810SOL    HW227009   2.538   2.980   8.149  0.1336 -2.1716 -2.3382
 8811SOL     OW27010   6.174   6.539   3.269  0.2748 -0.1172  0.4231
 8811SOL    HW127011   6.241   6.488   3.315  0.9644 -0.6011 -1.0544
 8811SOL    HW227012   6.095   6.529   3.322  0.6829 -1.7931  0.7705
 8812SOL     OW27013   2.567   7.198   2.008 -0.5646  0.3912 -0.4002
 8812SOL    HW127014   2.477   7.166   2.006 -0.5918  0.4180  0.2035
 8812SOL    HW227015   2.561   7.289   1.978 -0.5545  0.0057 -1.6238
 8813SOL     OW27016   8.880   4.246   1.499 -0.5654 -0.3234 -0.7666
 8813SOL    HW127017   8.864   4.340   1.512 -2.1870 -0.5685 -0.8468
 8813SOL    HW227018   8.793   4.208   1.486  0.1124 -1.7621 -1.3094
 8814SOL     OW27019   9.871   0.890   6.279  0.3839  0.1257  0.2262
 8814SOL    HW127020   9.886   0.872   6.372 -1.0224  1.0016  0.6482
 8814SOL    HW227021   9.917   0.972   6.263  2.3154 -1.0165 -0.3850
 8815SOL     OW27022   0.897   3.834   1.376 -0.2046 -0.1038  0.8627
 8815SOL    HW127023   0.931   3.758   1.329  1.0658  1.1051 -0.2591
 8815SOL    HW227024   0.858   3.798   1.455  0.4696 -1.9114  0.4097
 8816SOL     OW27025   7.046   5.785   2.437 -0.0806  0.3372 -0.3005
 8816SOL    HW127026   7.103   5.744   2.502  1.2730  1.1385 -0.9343
 8816SOL    HW227027   7.100   5.852   2.396 -0.2956 -1.1715 -3.3618
 8817SOL     OW27028   2.106   7.569   1.450  0.3584 -0.6876  0.5932
 8817SOL    HW127029   2.099   7.648   1.504  2.9281 -0.4211  0.6347
 8817SOL    HW227030   2.098   7.600   1.360 -0.2783 -0.6284  0.6657
 8818SOL     OW27031   9.219   5.489   4.553 -0.0808  0.5489 -0.0958
 8818SOL    HW127032   9.286   5.422   4.562  1.2199  1.8380  0.1537
 8818SOL    HW227033   9.171   5.487   4.636  1.7560  1.7645  1.0751
 8819SOL     OW27034   0.040   7.371   7.658 -0.3265 -0.0097  0.5470
 8819SOL    HW127035   0.024   7.297   7.716 -0.7838  0.6484  1.2913
 8819SOL    HW227036   0.089   7.433   7.712 -3.0103  1.7412  1.1696
 8820SOL     OW27037   7.661   5.380   6.128 -0.3776 -0.3414 -0.0448
 8820SOL    HW127038   7.615   5.361   6.047 -0.2777  1.5122 -0.5856
 8820SOL    HW227039   7.611   5.334   6.196 -0.6466 -1.6466 -1.1087
 8821SOL     OW27040   2.550   5.276   1.010 -0.5514 -0.3484 -0.4001
 8821SOL    HW127041   2.540   5.359   1.056 -2.3338 -1.0705  0.6417
 8821SOL    HW227042   2.580   5.300   0.922  2.6367  1.1063  0.9340
 8822SOL     OW27043   8.887   8.377   7.908  0.3680  0.2080  0.3097
 8822SOL    HW127044   8.804   8.379   7.955  0.7914 -0.0877  1.0775
 8822SOL    HW227045   8.864   8.344   7.821  0.0486 -2.3945  1.3051
 8823SOL     OW27046   3.565   2.538   4.322 -0.3482  0.4546  0.3360
 8823SOL    HW127047   3.569   2.560   4.415 -1.8035  1.5203  0.1868
 8823SOL    HW227048   3.472   2.541   4.301 -0.0592  0.0057 -1.1069
 8824SOL     OW27049   2.309   0.078   3.484  0.2921 -0.2433 -0.5733
 8824SOL    HW127050   2.393   0.088   3.528  0.7918  0.3101 -1.6111
 8824SOL    HW227051   2.325   0.011   3.417  0.0476  0.1975 -1.0850
 8825SOL     OW27052   1.726   7.516   5.072 -0.4724  0.0769 -0.2758
 8825SOL    HW127053   1.781   7.534   5.148 -1.5614 -1.0613  0.8347
 8825SOL    HW227054   1.755   7.430   5.041 -0.2799  0.3720 -0.9155
 8826SOL     OW27055   8.090   9.761   6.210  0.1050 -0.3342  0.7702
 8826SOL    HW127056   8.053   9.843   6.241  0.5389 -0.4460  1.6297
 8826SOL    HW227057   8.183   9.779   6.197 -0.2543  0.0726 -1.8325
 8827SOL     OW27058   2.831   4.727   4.808  0.1911  0.0544 -0.1277
 8827SOL    HW127059   2.826   4.679   4.891 -1.4586  0.3102 -0.0452
 8827SOL    HW227060   2.793   4.812   4.827  0.0131  0.2044 -1.0889
 8828SOL     OW27061   4.626   6.142   5.588  0.5306  0.0242 -0.1514
 8828SOL    HW127062   4.701   6.112   5.537 -1.0973 -0.9035 -2.1352
 8828SOL    HW227063   4.558   6.160   5.523 -1.4625 -0.6029  1.6419
 8829SOL     OW27064   9.696   3.802   9.208 -0.0183 -0.1140 -0.2496
 8829SOL    HW127065   9.619   3.829   9.258 -0.0882 -0.6450 -0.0644
 8829SOL    HW227066   9.735   3.732   9.260  0.0304 -0.5250 -0.8280
 8830SOL     OW27067   4.397   6.770   7.234 -0.0397  1.1735 -0.4677
 8830SOL    HW127068   4.462   6.777   7.165  0.1171 -0.3999 -0.4998
 8830SOL    HW227069   4.439   6.719   7.303 -1.4847 -0.6042 -0.8309
 8831SOL     OW27070   9.140   3.387   2.635 -0.2553  0.0637 -0.0044
 8831SOL    HW127071   9.221   3.345   2.605 -0.5409  1.2789 -2.8211
 8831SOL    HW227072   9.074   3.317   2.630 -0.1993  0.0799 -2.0709
 8832SOL     OW27073   2.816   1.281   3.856  0.0017  0.4643  0.8003
 8832SOL    HW127074   2.814   1.292   3.761 -0.2320 -0.3603  0.7098
 8832SOL    HW227075   2.737   1.233   3.877 -0.2681  1.1797  1.4929
 8833SOL     OW27076   7.163   2.248   9.910  0.6723  0.0260  0.0439
 8833SOL    HW127077   7.248   2.233   9.951 -0.0027 -0.9958  1.1669
 8833SOL    HW227078   7.100   2.226   9.979 -0.5020  1.0180 -0.6746
 8834SOL     OW27079   7.065   5.191   1.498  0.2851 -0.6123  0.3347
 8834SOL    HW127080   7.115   5.273   1.494  1.9620 -1.6303 -0.8602
 8834SOL    HW227081   6.981   5.213   1.458  0.4862  0.6786  0.5787
 8835SOL     OW27082   5.402   6.111   8.366  0.0036  0.1275  0.3785
 8835SOL    HW127083   5.349   6.055   8.422 -0.3208  1.0419  1.0091
 8835SOL    HW227084   5.463   6.154   8.427 -0.2594  1.0259  0.0140
 8836SOL     OW27085   8.976   5.510   3.753  0.3022  0.4392  0.0374
 8836SOL    HW127086   8.911   5.441   3.745  3.0454 -2.2905 -0.8839
 8836SOL    HW227087   9.005   5.506   3.844  0.5843  0.2629 -0.0602
 8837SOL     OW27088   7.429   5.847   8.251 -0.4075 -0.4904  0.7640
 8837SOL    HW127089   7.403   5.810   8.167 -0.9685  0.7767  0.3610
 8837SOL    HW227090   7.394   5.786   8.316 -0.5974 -1.0943  0.1117
 8838SOL     OW27091   8.775   0.323   3.134  0.4096  0.0525  0.6086
 8838SOL    HW127092   8.798   0.369   3.054  2.1243 -2.5317 -0.5247
 8838SOL    HW227093   8.855   0.323   3.186  0.2924 -1.0393  0.8268
 8839SOL     OW27094   8.320   6.071   8.721  0.2632 -0.3626 -1.0639
 8839SOL    HW127095   8.410   6.101   8.717  1.4568 -3.6180 -1.9712
 8839SOL    HW227096   8.305   6.026   8.637 -1.0053 -2.7400  0.2983
 8840SOL     OW27097   6.163   5.984   5.367 -0.2007  0.2821 -0.5134
 8840SOL    HW127098   6.213   5.951   5.441 -0.0751  2.5852  0.5322
 8840SOL    HW227099   6.208   6.065   5.341  0.3484 -0.9239 -3.8045
 8841SOL     OW27100   0.876   9.193   0.528  0.0644 -0.2193 -0.7653
 8841SOL    HW127101   0.858   9.115   0.579  0.2167 -0.3767 -0.9517
 8841SOL    HW227102   0.797   9.247   0.537 -0.5632 -0.9549 -1.6873
 8842SOL     OW27103   1.074   6.906   0.394  0.2735  0.1794 -0.0753
 8842SOL    HW127104   1.138   6.841   0.424 -0.8906 -0.5376  0.9075
 8842SOL    HW227105   1.099   6.923   0.303  3.1413  1.5082  0.8494
 8843SOL     OW27106   1.875   4.893   7.866 -0.5464  0.2477  0.4705
 8843SOL    HW127107   1.808   4.962   7.875 -1.6216 -0.6913 -0.0926
 8843SOL    HW227108   1.845   4.840   7.792  1.0811  0.0542 -0.0842
 8844SOL     OW27109   2.437   6.440   4.607  0.0479 -0.0119 -0.2536
 8844SOL    HW127110   2.418   6.435   4.701  0.1465 -1.3252 -0.2846
 8844SOL    HW227111   2.478   6.356   4.586 -0.0887  0.2123 -1.5028
 8845SOL     OW27112   6.577   3.836   6.701 -0.6906 -0.2665  0.0488
 8845SOL    HW127113   6.523   3.842   6.621 -1.2266  0.6086  0.4545
 8845SOL    HW227114   6.534   3.896   6.763  0.0372 -0.5140  0.8090
 8846SOL     OW27115   8.163   2.979   3.244  0.4047 -0.1783 -0.3701
 8846SOL    HW127116   8.247   2.948   3.212 -0.0097 -2.3944  0.5185
 8846SOL    HW227117   8.098   2.920   3.205 -0.7095  1.1559 -0.6189
 8847SOL     OW27118   3.837   1.592   8.634  0.5189  0.3499  0.5860
 8847SOL    HW127119   3.869   1.593   8.544  0.6356  1.8486  0.6174
 8847SOL    HW227120   3.744   1.569   8.626  0.4712  0.7117  0.0643
 8848SOL     OW27121   1.217   0.492   9.548  0.2065 -0.2824  0.5028
 8848SOL    HW127122   1.131   0.520   9.576 -0.4719  1.8872 -3.1436
 8848SOL    HW227123   1.275   0.513   9.622 -1.9815  0.4350  2.1009
 8849SOL     OW27124   6.491   2.217   4.417 -0.3423  0.6704 -0.1087
 8849SOL    HW127125   6.459   2.229   4.507  1.6429  1.9353  0.5151
 8849SOL    HW227126   6.447   2.286   4.367 -1.9220 -0.4195 -0.2845
 8850SOL     OW27127   5.087   6.327   8.426  0.1601 -0.3580 -0.1623
 8850SOL    HW127128   5.091   6.231   8.423  0.5559 -0.3420 -0.1388
 8850SOL    HW227129   5.080   6.353   8.334 -0.7243 -0.4379 -0.1301
 8851SOL     OW27130   6.990   4.800   5.998  0.1872 -0.2776  0.2288
 8851SOL    HW127131   6.966   4.712   5.970  0.6773 -0.3604  0.0619
 8851SOL    HW227132   7.073   4.790   6.044  0.5650  0.1730 -0.3329
 8852SOL     OW27133   6.966   9.826   5.221 -0.2195  0.3670 -0.8341
 8852SOL    HW127134   6.877   9.794   5.214 -0.7117  0.5015  2.9317
 8852SOL    HW227135   7.021   9.754   5.191 -1.5088  0.1100 -2.7226
 8853SOL     OW27136   0.949   0.104   9.077  0.0243 -0.0509  0.6396
 8853SOL    HW127137   1.010   0.081   9.147  0.5699 -1.9688 -0.3878
 8853SOL    HW227138   0.880   0.154   9.120  1.1673  0.2175  2.2374
 8854SOL     OW27139   5.625   6.284   5.985 -0.1267 -0.0901 -0.1241
 8854SOL    HW127140   5.667   6.247   6.063 -0.3428  0.7456  0.4021
 8854SOL    HW227141   5.532   6.283   6.005 -0.1172  0.9994  0.0288
 8855SOL     OW27142   5.887   9.865   9.773 -0.2583 -0.4517 -0.0436
 8855SOL    HW127143   5.882   9.789   9.715 -0.4067  0.2427 -0.9667
 8855SOL    HW227144   5.978   9.867   9.803  0.0277 -0.3625 -0.9009
 8856SOL     OW27145   1.992   4.360   7.860  0.2032  0.4827 -0.3125
 8856SOL    HW127146   1.996   4.337   7.768 -1.8208 -1.7996  0.0645
 8856SOL    HW227147   1.932   4.435   7.863 -0.1992  0.1829 -0.7921
 8857SOL     OW27148   0.564   5.557   7.078  0.2071  0.0398  0.3605
 8857SOL    HW127149   0.535   5.624   7.139 -0.5247  0.0488  0.0100
 8857SOL    HW227150   0.484   5.524   7.038  0.4058 -1.9998  1.4872
 8858SOL     OW27151   7.983   3.199   8.681 -0.5289  0.0843  0.1794
 8858SOL    HW127152   8.057   3.238   8.728 -0.8085 -0.4445  1.0671
 8858SOL    HW227153   7.936   3.149   8.747 -1.1663 -0.3349 -0.5784
 8859SOL     OW27154   4.074   2.933   8.543 -0.4126 -0.8535  0.3247
 8859SOL    HW127155   3.984   2.913   8.514  0.0213 -1.8237 -0.4228
 8859SOL    HW227156   4.066   3.016   8.590 -2.0011 -1.7667  1.7975
 8860SOL     OW27157   7.992   7.378   5.690  0.0540 -0.1535  0.0404
 8860SOL    HW127158   7.916   7.433   5.707  0.6239  0.2079  1.6895
 8860SOL    HW227159   7.959   7.288   5.697 -0.3723 -0.0090 -0.0792
 8861SOL     OW27160   6.273   6.917   0.780 -0.2682  0.1447 -0.0631
 8861SOL    HW127161   6.288   6.855   0.850  0.5186 -0.3753 -0.6681
 8861SOL    HW227162   6.296   7.002   0.818  0.1354 -0.1291  0.3165
 8862SOL     OW27163   7.887   5.184   4.461  0.2773  0.0179 -0.1682
 8862SOL    HW127164   7.925   5.208   4.546 -0.9542 -0.4831  0.5525
 8862SOL    HW227165   7.875   5.089   4.466  0.7933 -0.1115 -1.1700
 8863SOL     OW27166   4.510   8.138   7.921  0.1223  0.0703  0.3618
 8863SOL    HW127167   4.517   8.070   7.988  0.1341 -0.5258 -0.2269
 8863SOL    HW227168   4.481   8.216   7.968  0.9537 -0.1114  1.1904
 8864SOL     OW27169   3.454   8.384   7.150 -0.2573 -0.0465 -0.0420
 8864SOL    HW127170   3.538   8.395   7.106  0.9973 -2.8179  1.3918
 8864SOL    HW227171   3.420   8.300   7.118 -2.3025  0.7965 -0.2566
 8865SOL     OW27172   3.379   4.131   2.161 -0.2323  0.6640 -0.2288
 8865SOL    HW127173   3.458   4.134   2.107  0.6439 -0.0144  0.9647
 8865SOL    HW227174   3.412   4.116   2.250 -1.7680 -1.1839  0.0942
 8866SOL     OW27175   4.533   3.200   4.291  0.0251  0.2701  0.4198
 8866SOL    HW127176   4.545   3.264   4.221  0.6751 -0.7625 -0.4364
 8866SOL    HW227177   4.577   3.238   4.366 -0.2829  1.1832  0.1537
 8867SOL     OW27178   5.851   0.471   9.115  0.4920  0.2324 -0.3412
 8867SOL    HW127179   5.869   0.385   9.078  0.1780  0.2174 -0.4613
 8867SOL    HW227180   5.890   0.533   9.052  0.8757  0.1766 -0.1637
 8868SOL     OW27181   9.916   5.789   2.232 -0.5921 -0.4955 -0.1322
 8868SOL    HW127182   9.926   5.695   2.216  0.9922 -0.6738  1.6055
 8868SOL    HW227183   9.955   5.803   2.318 -0.7629  1.7782 -0.3648
 8869SOL     OW27184   0.775   1.110   1.099 -0.3708  0.3115  0.1027
 8869SOL    HW127185   0.748   1.165   1.172 -0.0691 -0.8190  1.0925
 8869SOL    HW227186   0.843   1.160   1.054  0.0641  0.6530  1.1213
 8870SOL     OW27187   3.924   7.538   1.005 -0.1628  0.3592  0.2234
 8870SOL    HW127188   3.939   7.449   1.036  1.1611  0.7137  0.6761
 8870SOL    HW227189   3.922   7.531   0.910  0.5383 -0.0720  0.2366
 8871SOL     OW27190   0.891   9.871   3.825  0.8726 -0.3122  0.2674
 8871SOL    HW127191   0.852   9.940   3.772 -0.5783 -1.3957 -0.1352
 8871SOL    HW227192   0.829   9.798   3.819  1.7329 -1.2087  1.7162
 8872SOL     OW27193   0.881   3.912   5.718 -0.4265  0.4681 -0.3265
 8872SOL    HW127194   0.856   3.860   5.794  1.2670  0.2898  0.1619
 8872SOL    HW227195   0.947   3.973   5.751  0.3313  0.4005 -1.6225
 8873SOL     OW27196   1.508   2.998   7.639  0.1459  0.1069  0.1701
 8873SOL    HW127197   1.501   2.963   7.728  0.6969  0.0710  0.2037
 8873SOL    HW227198   1.602   2.993   7.619 -0.2609 -2.6053 -1.5330
 8874SOL     OW27199   3.987   7.878   6.780  0.5503  0.0098  0.2839
 8874SOL    HW127200   4.009   7.786   6.765  1.0096 -0.1853  1.8831
 8874SOL    HW227201   3.898   7.888   6.746  0.7530 -0.8498 -0.5200
 8875SOL     OW27202   2.501   0.621   0.046 -0.1196  0.3188  0.0874
 8875SOL    HW127203   2.567   0.664  -0.008  0.6186  0.2251  0.8740
 8875SOL    HW227204   2.543   0.540   0.075 -0.5505  0.2846  0.6468
 8876SOL     OW27205   2.819   6.143   4.051 -0.0972 -0.0191  0.0130
 8876SOL    HW127206   2.898   6.187   4.021 -0.3741  0.9429  0.6341
 8876SOL    HW227207   2.849   6.059   4.085  0.4934 -0.1738 -0.8809
 8877SOL     OW27208   6.839   1.355   1.539  0.4737 -0.2564  0.1134
 8877SOL    HW127209   6.895   1.413   1.488  0.2607 -0.0239  0.1412
 8877SOL    HW227210   6.760   1.407   1.555  1.0731  0.1636  1.8532
 8878SOL     OW27211   2.664   9.115   8.897 -0.2150  0.2222  0.0268
 8878SOL    HW127212   2.730   9.052   8.868 -1.6463 -1.8957  1.0903
 8878SOL    HW227213   2.587   9.096   8.843 -0.2984  2.0434 -0.5734
 8879SOL     OW27214   4.508   8.030   6.932 -0.2297  0.2922 -0.7421
 8879SOL    HW127215   4.510   8.089   7.007 -2.4294  2.2831 -2.1128
 8879SOL    HW227216   4.496   7.943   6.970  0.2361  1.0560  1.2521
 8880SOL     OW27217   8.435   4.334   5.033 -0.0572  0.2427 -0.3787
 8880SOL    HW127218   8.515   4.284   5.049 -0.7004 -0.6366  0.2618
 8880SOL    HW227219   8.463   4.409   4.982  1.0437 -0.4912 -0.9013
 8881SOL     OW27220   6.636   7.875   1.818  0.5722 -0.7982  0.1410
 8881SOL    HW127221   6.589   7.956   1.839  3.1584  0.6024  0.9133
 8881SOL    HW227222   6.600   7.811   1.880 -0.5498  0.1081  0.4703
 8882SOL     OW27223  -0.022   9.370   7.861  0.8610 -0.2039  0.1176
 8882SOL    HW127224   0.014   9.301   7.806  0.4386 -0.1812 -0.1971
 8882SOL    HW227225   0.051   9.400   7.915  1.3485 -0.0449 -0.6200
 8883SOL     OW27226   5.242   5.442   2.525  0.8707 -0.0646  0.0208
 8883SOL    HW127227   5.216   5.387   2.452  0.6320  0.3960 -0.2472
 8883SOL    HW227228   5.333   5.465   2.507  0.1820  1.8532 -1.3041
 8884SOL     OW27229   3.101   2.296   0.758  0.6912 -0.1289 -0.1604
 8884SOL    HW127230   3.109   2.360   0.687 -0.3910  1.4527  1.0772
 8884SOL    HW227231   3.012   2.262   0.749  0.2142  0.7777  0.9734
 8885SOL     OW27232   7.155   3.838   9.364 -0.4240  0.4508  0.3334
 8885SOL    HW127233   7.088   3.783   9.324 -0.2429  0.9722 -0.7107
 8885SOL    HW227234   7.121   3.928   9.355 -0.5361  0.5649  1.6637
 8886SOL     OW27235   9.052   2.625   4.049 -0.0875  0.6392  0.0330
 8886SOL    HW127236   9.134   2.661   4.017  0.3793 -0.6024 -0.2255
 8886SOL    HW227237   8.986   2.691   4.026  0.2077 -0.0499 -3.4552
 8887SOL     OW27238   0.098   4.143   9.084  0.0035 -0.2840  0.0714
 8887SOL    HW127239   0.022   4.084   9.082 -0.8982  0.5840  3.2129
 8887SOL    HW227240   0.171   4.086   9.108 -0.5491 -0.4418  1.4580
 8888SOL     OW27241   2.646   3.280   7.653  0.6023 -0.0081 -0.0646
 8888SOL    HW127242   2.563   3.328   7.656  1.0584  0.7555  1.7025
 8888SOL    HW227243   2.629   3.198   7.699  0.4760 -0.4670 -0.9161
 8889SOL     OW27244   8.910   5.837   4.465  0.6003 -0.0250 -0.4009
 8889SOL    HW127245   8.939   5.887   4.541 -1.4482  0.4403  0.1370
 8889SOL    HW227246   8.965   5.759   4.465 -0.5266 -0.9707  2.7066
 8890SOL     OW27247   8.366   7.820   0.399 -0.7885 -0.4462 -0.5947
 8890SOL    HW127248   8.377   7.759   0.471  1.6172 -0.6303 -1.0077
 8890SOL    HW227249   8.389   7.905   0.436 -2.2041 -0.0839 -0.5059
 8891SOL     OW27250   6.572   8.120   0.182 -0.2205 -0.0036  0.4362
 8891SOL    HW127251   6.487   8.154   0.210 -0.7107 -1.6068  1.0321
 8891SOL    HW227252   6.636   8.178   0.223 -0.9934 -0.5749  2.5704
 8892SOL     OW27253   4.496   2.950   4.442 -0.5647 -0.0252 -0.1641
 8892SOL    HW127254   4.510   2.991   4.356 -1.9090 -0.3380 -0.5667
 8892SOL    HW227255   4.440   2.874   4.423 -1.4484  0.2966  1.0800
 8893SOL     OW27256   9.045   7.078   3.153 -0.5652 -0.1753  0.1836
 8893SOL    HW127257   9.063   7.043   3.066  0.2028  0.8206 -0.0784
 8893SOL    HW227258   8.950   7.081   3.159 -0.6634  1.5272 -1.3959
 8894SOL     OW27259   3.602   3.589   6.379 -0.2783 -0.2050 -0.5829
 8894SOL    HW127260   3.652   3.540   6.443 -0.7992 -1.4606 -1.1021
 8894SOL    HW227261   3.668   3.629   6.322  0.1682  0.5315  0.4327
 8895SOL     OW27262   5.440   7.942   3.130  0.1170 -0.0573  0.1957
 8895SOL    HW127263   5.400   7.855   3.126  0.8094 -0.3299 -1.6441
 8895SOL    HW227264   5.423   7.972   3.219  0.2998 -2.2790  1.0301
 8896SOL     OW27265   3.857   0.551   4.810  1.0052 -0.3373  0.6561
 8896SOL    HW127266   3.790   0.604   4.767  1.4336 -1.2961 -1.3014
 8896SOL    HW227267   3.913   0.614   4.854 -0.8724  0.5199  1.9937
 8897SOL     OW27268   2.851   5.265   2.874 -0.1127  0.0830 -0.2392
 8897SOL    HW127269   2.850   5.188   2.931  1.8573  2.0352  2.7778
 8897SOL    HW227270   2.943   5.279   2.855 -0.5128  1.2244 -1.4414
 8898SOL     OW27271   9.040   5.917   1.480 -0.6498 -0.7472  0.3137
 8898SOL    HW127272   9.071   5.986   1.537  1.8130 -0.6985 -0.9715
 8898SOL    HW227273   9.029   5.841   1.538 -0.2829 -0.1417  1.1943
 8899SOL     OW27274   8.845   0.097   0.453 -0.3342  0.2102 -0.1973
 8899SOL    HW127275   8.764   0.125   0.411 -0.1504  2.0064  0.5410
 8899SOL    HW227276   8.817   0.047   0.530 -0.6943 -0.7574 -0.9425
 8900SOL     OW27277   3.560   6.418   4.978 -0.3687 -0.3938 -0.1604
 8900SOL    HW127278   3.536   6.412   5.071  0.3322  0.2987  0.0654
 8900SOL    HW227279   3.589   6.508   4.966 -0.8113 -0.3691 -1.1492
 8901SOL     OW27280   8.171   8.704   1.397 -0.3143  0.3810  0.0234
 8901SOL    HW127281   8.151   8.646   1.324  0.5253  0.7023 -0.4625
 8901SOL    HW227282   8.142   8.655   1.474 -0.4819 -0.2877 -0.4544
 8902SOL     OW27283   6.510   1.545   0.731 -0.0000 -0.5164 -0.0068
 8902SOL    HW127284   6.516   1.630   0.686 -0.6827 -0.2154  0.4577
 8902SOL    HW227285   6.417   1.535   0.751  0.1073 -1.2892  0.1172
 8903SOL     OW27286   0.796   4.029   6.745 -0.1083 -0.1037  0.4908
 8903SOL    HW127287   0.777   3.972   6.819 -0.7549 -0.1876  0.2709
 8903SOL    HW227288   0.710   4.056   6.713  0.1270 -0.6028 -0.6291
 8904SOL     OW27289   5.198   9.521   1.327  0.6285 -0.4309 -0.4153
 8904SOL    HW127290   5.225   9.498   1.416  0.5698 -0.8970 -0.5171
 8904SOL    HW227291   5.160   9.441   1.292  2.2878 -0.8067 -1.5027
 8905SOL     OW27292   3.461   2.179   5.919 -0.6019 -0.3673  0.2844
 8905SOL    HW127293   3.545   2.146   5.886 -1.1645 -1.1350 -0.4115
 8905SOL    HW227294   3.477   2.194   6.012  0.5102  0.1802  0.0279
 8906SOL     OW27295   1.267   6.751   5.362 -0.3928 -0.3064 -0.3081
 8906SOL    HW127296   1.257   6.707   5.277 -1.5828 -0.6114 -0.0259
 8906SOL    HW227297   1.289   6.680   5.423  3.0480  0.2223 -0.7492
 8907SOL     OW27298   3.060   0.935   6.255  0.2578 -0.0978  0.0939
 8907SOL    HW127299   3.049   1.029   6.268  2.1643  0.2804 -0.6668
 8907SOL    HW227300   2.974   0.905   6.226 -0.5428  1.2912  0.9080
 8908SOL     OW27301   6.334   9.488   1.021 -0.4779  0.0104 -0.4178
 8908SOL    HW127302   6.270   9.548   1.060 -0.3137 -0.2362  0.2266
 8908SOL    HW227303   6.394   9.466   1.092  1.0906  1.2291 -1.3117
 8909SOL     OW27304   9.353   9.727   4.734 -0.5394  0.4634 -0.4514
 8909SOL    HW127305   9.316   9.705   4.819  0.5834  0.4960  0.0597
 8909SOL    HW227306   9.305   9.672   4.672  0.5229 -1.6934  0.5198
 8910SOL     OW27307   9.558   7.007   7.914  0.5236 -0.5375  0.2299
 8910SOL    HW127308   9.501   6.943   7.871 -0.0356  0.1526 -0.0657
 8910SOL    HW227309   9.499   7.067   7.958  0.7415  2.3392 -3.0094
 8911SOL     OW27310   5.332   8.572   4.216 -0.1865  0.1116  0.5602
 8911SOL    HW127311   5.362   8.581   4.306 -0.5418 -0.9955  0.8061
 8911SOL    HW227312   5.394   8.624   4.165  0.7856 -0.2766  1.3052
 8912SOL     OW27313   8.567   1.532   3.467  0.3859  0.5761 -0.4541
 8912SOL    HW127314   8.587   1.576   3.549  3.2706 -1.5609  0.1224
 8912SOL    HW227315   8.508   1.461   3.491 -0.0637  0.9188 -0.5283
 8913SOL     OW27316   0.413   7.993   2.651  0.1531 -0.2601  0.1818
 8913SOL    HW127317   0.379   7.915   2.607  0.1574 -0.6237  0.8030
 8913SOL    HW227318   0.337   8.052   2.657  0.3226  0.1019 -0.9447
 8914SOL     OW27319   3.428   0.717   6.440  0.6648 -0.0990 -0.0996
 8914SOL    HW127320   3.466   0.711   6.527  4.0046  0.7980 -1.3705
 8914SOL    HW227321   3.423   0.626   6.410 -0.0556 -0.3739  0.7948
 8915SOL     OW27322   8.894   0.536   0.423 -0.9591  0.4881 -0.0979
 8915SOL    HW127323   8.805   0.506   0.443 -0.1555 -0.7835  1.9299
 8915SOL    HW227324   8.950   0.464   0.451  0.7345  1.2068 -1.4503
 8916SOL     OW27325   1.158   7.153   1.228 -0.3830  0.9515  0.1083
 8916SOL    HW127326   1.135   7.201   1.148  0.0779 -0.3826 -0.8670
 8916SOL    HW227327   1.251   7.171   1.241 -0.0293 -0.1627 -0.6624
 8917SOL     OW27328   8.910   6.717   1.725 -0.5980 -0.2417  0.4647
 8917SOL    HW127329   8.920   6.630   1.764  0.2269 -0.5277 -0.3446
 8917SOL    HW227330   8.947   6.708   1.637  0.7018  1.2625  0.8232
 8918SOL     OW27331   1.480   5.496   2.944  0.6519  0.2485 -0.9054
 8918SOL    HW127332   1.517   5.431   2.883 -0.3576 -1.1718 -0.0672
 8918SOL    HW227333   1.484   5.453   3.029 -0.9150  0.9142 -0.4745
 8919SOL     OW27334   0.998   5.405   1.202 -0.1017  0.4950  0.6878
 8919SOL    HW127335   1.065   5.337   1.198 -1.6163 -1.1028  1.2295
 8919SOL    HW227336   0.931   5.376   1.141  0.0788  2.5475 -0.5630
 8920SOL     OW27337   2.327   8.143   2.422  0.0939  0.2253  0.0162
 8920SOL    HW127338   2.349   8.209   2.356  0.4457  0.1978  0.1060
 8920SOL    HW227339   2.376   8.065   2.395 -0.3066  0.0034 -0.0805
 8921SOL     OW27340   5.656   0.117   1.059 -0.0001 -0.0427 -0.1448
 8921SOL    HW127341   5.706   0.040   1.087 -0.4232 -0.3811 -0.3002
 8921SOL    HW227342   5.569   0.082   1.037  0.3155  0.1929 -1.8887
 8922SOL     OW27343   0.532   8.464   2.220  0.1584  0.1092 -0.0091
 8922SOL    HW127344   0.536   8.479   2.125 -2.0097  1.5851  0.0681
 8922SOL    HW227345   0.548   8.550   2.259 -0.2973 -0.2101  0.9181
 8923SOL     OW27346   7.352   3.017   2.458  0.3065  0.1582 -0.2499
 8923SOL    HW127347   7.271   2.982   2.422  0.7631 -0.3985 -0.7608
 8923SOL    HW227348   7.395   3.061   2.385  0.1468  1.0695  0.1833
 8924SOL     OW27349   3.526   0.604   5.698  0.5215  0.0251 -0.1002
 8924SOL    HW127350   3.587   0.678   5.701  0.3032  0.2119 -0.2109
 8924SOL    HW227351   3.459   0.626   5.763  0.6523 -0.2523  0.1313
 8925SOL     OW27352   3.840   9.743   9.096 -0.3138 -0.6457 -0.3981
 8925SOL    HW127353   3.824   9.648   9.099 -0.3054 -0.6337  1.5293
 8925SOL    HW227354   3.925   9.754   9.138 -0.6987  0.2711  0.1793
 8926SOL     OW27355   2.500   6.065   8.050  0.5098  0.0661  0.4473
 8926SOL    HW127356   2.564   6.010   8.095  1.7757  1.0618 -0.0725
 8926SOL    HW227357   2.465   6.009   7.980  0.7570 -0.5190  0.7893
 8927SOL     OW27358   3.287   6.855   8.535  0.1546  0.0301  0.4688
 8927SOL    HW127359   3.266   6.762   8.525  3.5697 -0.8049 -0.3150
 8927SOL    HW227360   3.225   6.899   8.477 -0.1644 -1.9884 -0.8506
 8928SOL     OW27361   8.369   4.126   7.776 -0.4628 -0.5852  0.6090
 8928SOL    HW127362   8.293   4.133   7.718 -1.6821  0.3414  2.2162
 8928SOL    HW227363   8.332   4.132   7.864  1.4419 -0.6255  1.4624
 8929SOL     OW27364   6.799   4.789   6.582  0.6996  0.1494  0.1220
 8929SOL    HW127365   6.734   4.772   6.651 -1.4021 -1.8512 -2.1591
 8929SOL    HW227366   6.873   4.732   6.604  0.4690  0.2456  1.1935
 8930SOL     OW27367   5.598   0.694   1.502  0.1498 -0.3007  0.3414
 8930SOL    HW127368   5.676   0.639   1.495 -0.8995 -1.8753  0.5702
 8930SOL    HW227369   5.533   0.652   1.446  0.0986  2.2460 -1.6869
 8931SOL     OW27370   4.667   7.923   6.409 -0.4826 -0.0679 -0.4586
 8931SOL    HW127371   4.721   8.001   6.423  0.4241 -0.8568  0.7154
 8931SOL    HW227372   4.719   7.869   6.349  0.3049 -1.0340  1.0359
 8932SOL     OW27373   0.789   7.385   9.625 -0.0295  0.1402  0.0868
 8932SOL    HW127374   0.859   7.413   9.683  2.6151  0.2603 -2.9030
 8932SOL    HW227375   0.728   7.459   9.623  2.3521  2.1907 -0.9568
 8933SOL     OW27376   6.196   6.996   4.744  0.3553  0.0381 -0.0314
 8933SOL    HW127377   6.121   6.937   4.737 -0.6817  1.1735  0.9257
 8933SOL    HW227378   6.230   6.981   4.832  0.3563  0.5337  0.0571
 8934SOL     OW27379  -0.017   5.349   0.590  0.6793  0.3127  0.2444
 8934SOL    HW127380   0.040   5.288   0.636 -0.2598 -0.2892  0.6462
 8934SOL    HW227381   0.006   5.338   0.498  0.6872 -0.4845  0.3334
 8935SOL     OW27382   4.641   1.452   6.995 -0.0740  0.8133 -0.5290
 8935SOL    HW127383   4.680   1.371   7.028 -0.4248  0.9972  0.3580
 8935SOL    HW227384   4.576   1.476   7.061  0.0442  1.8356 -0.7716
 8936SOL     OW27385   3.330   7.312   1.586 -0.1949 -0.0459  0.5703
 8936SOL    HW127386   3.300   7.265   1.508 -0.4856  0.1293  0.5753
 8936SOL    HW227387   3.345   7.243   1.651  0.7890 -0.2677  0.1310
 8937SOL     OW27388   1.970   4.177   8.407 -0.3350  0.6628  0.1619
 8937SOL    HW127389   1.963   4.195   8.501  0.2109  0.1364  0.3094
 8937SOL    HW227390   1.890   4.215   8.370 -0.7055  0.6170  0.8785
 8938SOL     OW27391   9.227   8.059   0.458  0.0235  0.4662  0.1381
 8938SOL    HW127392   9.287   8.089   0.526  0.0724 -1.3335  0.9422
 8938SOL    HW227393   9.243   7.964   0.452 -2.2644  0.0334 -0.0801
 8939SOL     OW27394   5.124   5.843   2.579 -0.2217  0.4078  0.5954
 8939SOL    HW127395   5.133   5.769   2.640 -1.9018 -0.7972 -0.5069
 8939SOL    HW227396   5.040   5.883   2.603  0.4408  1.7125  0.8579
 8940SOL     OW27397   9.688   4.633   6.455  0.9175 -0.1295 -0.4159
 8940SOL    HW127398   9.773   4.676   6.452  0.7693  0.1839 -0.1460
 8940SOL    HW227399   9.705   4.550   6.500  1.0575 -0.0202 -0.2668
 8941SOL     OW27400   7.606   4.375   1.699  0.1498  0.2935 -0.1844
 8941SOL    HW127401   7.582   4.286   1.725  1.6676  0.7108  3.1499
 8941SOL    HW227402   7.526   4.427   1.713  0.1498 -0.0110  0.9962
 8942SOL     OW27403   3.882   5.931   0.988  0.6412  0.0023  0.4925
 8942SOL    HW127404   3.806   5.880   1.016  2.9771 -3.0119  1.8978
 8942SOL    HW227405   3.919   5.967   1.068  0.8736  1.2847 -0.1516
 8943SOL     OW27406   3.877   6.458   9.556 -0.1260 -0.0224 -0.4837
 8943SOL    HW127407   3.898   6.498   9.641 -1.5033 -0.1719 -0.0334
 8943SOL    HW227408   3.821   6.523   9.513  1.3605  0.4793 -1.7219
 8944SOL     OW27409   3.977   5.554   7.329 -0.2796  0.0769 -0.3116
 8944SOL    HW127410   4.026   5.617   7.382 -1.5710  0.2778  0.6990
 8944SOL    HW227411   4.002   5.468   7.364  1.7852 -0.0699 -1.9491
 8945SOL     OW27412   6.058   0.370   1.974 -0.3191  0.2133  0.0681
 8945SOL    HW127413   6.056   0.437   2.042  0.3624  1.7412 -1.3498
 8945SOL    HW227414   6.151   0.349   1.964 -0.2948  0.8410 -1.1464
 8946SOL     OW27415   8.569   9.571   0.280  0.1739 -0.1668 -0.0436
 8946SOL    HW127416   8.539   9.505   0.217 -0.5906 -2.1151  2.2140
 8946SOL    HW227417   8.497   9.635   0.284 -0.0538 -0.3775 -0.6676
 8947SOL     OW27418   3.143   5.928   0.734 -0.1833  0.2026  0.4090
 8947SOL    HW127419   3.055   5.891   0.736 -0.2534  0.3827  0.6734
 8947SOL    HW227420   3.130   6.023   0.734  0.0149  0.2329  0.7692
 8948SOL     OW27421   8.934   3.081   9.217  0.2312  0.1348 -0.0843
 8948SOL    HW127422   8.983   3.079   9.135  1.4262 -0.1299  0.6262
 8948SOL    HW227423   8.998   3.106   9.283 -0.3413 -1.1834  1.0224
 8949SOL     OW27424   8.303   4.914   4.135  0.3482 -0.4834 -0.6672
 8949SOL    HW127425   8.217   4.910   4.094  0.4740  2.3055 -1.3366
 8949SOL    HW227426   8.361   4.949   4.068  1.9237 -1.7454 -0.0335
 8950SOL     OW27427   1.026   3.092   8.832 -0.3943 -0.7626  0.3386
 8950SOL    HW127428   0.977   3.171   8.806  0.8798 -0.3679 -1.0132
 8950SOL    HW227429   1.024   3.036   8.754 -0.0833 -1.4526  0.8191
 8951SOL     OW27430   9.122   7.665   0.700 -0.6536 -0.1777  0.1603
 8951SOL    HW127431   9.198   7.608   0.715 -1.3452 -1.4756 -1.0478
 8951SOL    HW227432   9.136   7.739   0.759  1.5690 -0.3476 -0.0520
 8952SOL     OW27433   9.845   5.085   7.972 -0.1626 -0.6758 -0.4356
 8952SOL    HW127434   9.909   5.124   7.912 -0.6122 -1.2435 -1.3080
 8952SOL    HW227435   9.842   5.145   8.046  1.1836 -0.5016 -0.4937
 8953SOL     OW27436   9.332   3.478   9.633  0.2096  0.0417  0.2974
 8953SOL    HW127437   9.241   3.471   9.662  0.0978  1.3462  0.3378
 8953SOL    HW227438   9.368   3.390   9.645 -0.1858  0.1877  3.2581
 8954SOL     OW27439   0.193   0.669   6.995 -0.7333 -0.4799 -0.3095
 8954SOL    HW127440   0.154   0.670   6.907 -0.9314  1.4400 -0.2384
 8954SOL    HW227441   0.286   0.656   6.980 -0.7031  0.2991 -0.8440
 8955SOL     OW27442   3.293   8.661   1.483  0.6527  0.0249 -0.5430
 8955SOL    HW127443   3.298   8.701   1.569 -2.6447 -1.7287  0.6098
 8955SOL    HW227444   3.342   8.580   1.491  0.4783 -0.0633 -0.3767
 8956SOL     OW27445   3.414   1.093   0.109 -0.1879  0.5257 -0.1291
 8956SOL    HW127446   3.468   1.173   0.114 -0.1331  0.5418 -0.8778
 8956SOL    HW227447   3.438   1.053   0.025 -1.4005  0.5761 -0.5150
 8957SOL     OW27448   9.242   7.245   5.509 -0.3033  0.4198  0.1293
 8957SOL    HW127449   9.289   7.186   5.450  1.6527  0.5913  1.4169
 8957SOL    HW227450   9.159   7.200   5.527 -0.7798  0.1883 -2.3671
 8958SOL     OW27451   1.738   6.969   2.936  0.6643 -0.1433  0.0018
 8958SOL    HW127452   1.800   7.042   2.934  0.4792  0.0863  1.3548
 8958SOL    HW227453   1.757   6.924   3.018 -1.5045  0.4680  0.9082
 8959SOL     OW27454   7.699   7.596   9.209 -0.1086  0.2259 -0.6145
 8959SOL    HW127455   7.791   7.604   9.183  1.0491 -1.8809  2.3191
 8959SOL    HW227456   7.696   7.632   9.298 -2.0417 -0.2032 -0.4694
 8960SOL     OW27457   1.066   8.482   5.443 -0.3020 -0.2293  0.2963
 8960SOL    HW127458   0.979   8.490   5.483 -0.4683 -0.1609 -0.0794
 8960SOL    HW227459   1.051   8.437   5.360  0.1267 -0.9092  0.5794
 8961SOL     OW27460   7.306   5.571   2.143  1.0269 -0.3545  0.0520
 8961SOL    HW127461   7.390   5.531   2.167  1.5661  1.7457  2.0314
 8961SOL    HW227462   7.314   5.662   2.171 -0.7178  0.8057 -2.7650
 8962SOL     OW27463   8.741   9.482   9.724  0.1168 -0.6910 -0.1118
 8962SOL    HW127464   8.820   9.484   9.669 -0.1417 -0.2025 -0.4692
 8962SOL    HW227465   8.692   9.406   9.693  0.6413 -1.2368  0.3861
 8963SOL     OW27466   0.909   0.633   7.659 -0.7045 -0.1839 -0.0721
 8963SOL    HW127467   0.984   0.636   7.719  0.9235 -3.4440 -1.6559
 8963SOL    HW227468   0.949   0.634   7.572 -2.6221 -0.4825 -1.0010
 8964SOL     OW27469   8.139   5.821   7.588 -0.3206 -0.0104 -0.1565
 8964SOL    HW127470   8.062   5.861   7.628  0.4873  2.0219 -0.5254
 8964SOL    HW227471   8.205   5.820   7.657 -0.3420 -0.8257 -0.1300
 8965SOL     OW27472   2.838   7.599   2.186 -0.4125 -0.2037 -0.3333
 8965SOL    HW127473   2.774   7.617   2.117 -0.5437  0.6822  0.0097
 8965SOL    HW227474   2.869   7.686   2.213  0.5324 -0.5978 -0.1211
 8966SOL     OW27475   2.396   8.637   8.487  0.1102  0.6581 -0.2111
 8966SOL    HW127476   2.477   8.681   8.461  0.2449  0.9377  0.6518
 8966SOL    HW227477   2.334   8.709   8.503 -0.4862  0.4345 -1.3736
 8967SOL     OW27478   0.726   6.469   2.334 -0.3089 -0.1867 -0.2274
 8967SOL    HW127479   0.648   6.420   2.310 -0.5575  0.4144 -0.6609
 8967SOL    HW227480   0.779   6.471   2.255  0.4803 -1.1982  0.2559
 8968SOL     OW27481   5.304   3.428   2.056 -0.0503 -0.4402  0.0553
 8968SOL    HW127482   5.228   3.428   1.997 -0.3299  0.4374  0.3918
 8968SOL    HW227483   5.371   3.380   2.008 -0.4389 -0.1845 -0.7734
 8969SOL     OW27484   2.072   8.167   3.339 -0.6655 -0.7257 -0.8169
 8969SOL    HW127485   2.054   8.112   3.262 -1.5701 -0.9051 -0.4866
 8969SOL    HW227486   2.162   8.196   3.326 -0.4766 -1.5377 -1.4666
 8970SOL     OW27487   3.401   3.476   9.519 -0.5717 -0.1065 -0.0664
 8970SOL    HW127488   3.488   3.512   9.500 -1.0829  1.4516  0.4176
 8970SOL    HW227489   3.418   3.410   9.586  0.2196  0.3954  0.2526
 8971SOL     OW27490   1.962   9.520   0.398  0.1076 -0.1665  0.3781
 8971SOL    HW127491   1.876   9.506   0.437 -0.4981 -0.7379 -1.0901
 8971SOL    HW227492   1.987   9.435   0.364 -0.1958  0.6387 -2.0053
 8972SOL     OW27493   1.195   7.149   8.897  0.5784 -0.1488  0.1307
 8972SOL    HW127494   1.277   7.122   8.854  0.4550 -1.1015  0.4571
 8972SOL    HW227495   1.149   7.067   8.913  0.8376  0.0806  2.5144
 8973SOL     OW27496   9.019   2.399   5.686 -0.5333 -0.1899 -0.4258
 8973SOL    HW127497   9.072   2.341   5.740 -0.6345 -1.1733 -1.3557
 8973SOL    HW227498   8.999   2.473   5.744 -0.0392 -0.8583  0.6408
 8974SOL     OW27499   3.952   2.740   0.464  0.0016  0.1068 -0.2684
 8974SOL    HW127500   3.982   2.770   0.378  0.7385  0.0601 -0.0402
 8974SOL    HW227501   3.897   2.811   0.497  2.0944  1.4874  0.4687
 8975SOL     OW27502   4.080   9.545   2.917 -0.1412  0.0390 -0.2735
 8975SOL    HW127503   4.154   9.492   2.949  2.9628  2.9518 -1.9014
 8975SOL    HW227504   4.082   9.623   2.972 -1.7613  0.4002 -0.6880
 8976SOL     OW27505   8.929   5.923   0.971  0.2765  0.2416  0.2371
 8976SOL    HW127506   8.948   5.917   1.065 -1.9212  0.0632  0.7213
 8976SOL    HW227507   8.904   6.014   0.957 -4.0343 -0.6410  0.9090
 8977SOL     OW27508   4.237   5.120   1.524 -0.3591  0.4471 -0.6198
 8977SOL    HW127509   4.315   5.132   1.578 -1.2345 -1.8457  1.3143
 8977SOL    HW227510   4.271   5.093   1.439  0.9940  1.2899 -0.3729
 8978SOL     OW27511   1.776   6.768   1.642  0.4286 -0.2425  0.0100
 8978SOL    HW127512   1.774   6.680   1.604 -0.8782  0.4982 -1.7721
 8978SOL    HW227513   1.698   6.771   1.697 -0.0141  0.0882 -0.6332
 8979SOL     OW27514   9.870   3.059   6.471  0.2430  0.5125  0.3072
 8979SOL    HW127515   9.906   3.014   6.548  0.3208  2.9642  1.8028
 8979SOL    HW227516   9.785   3.016   6.456  0.3502 -0.2048  1.5819
 8980SOL     OW27517   4.758   3.688   7.053  0.0694  0.3549 -0.3317
 8980SOL    HW127518   4.772   3.782   7.064 -0.9722  0.4233  0.6099
 8980SOL    HW227519   4.676   3.681   7.003  0.4704 -0.0550 -0.9464
 8981SOL     OW27520   1.188   0.655   0.747  0.2316 -0.4597 -0.1321
 8981SOL    HW127521   1.173   0.643   0.654 -2.1927  0.1234  0.1168
 8981SOL    HW227522   1.262   0.716   0.752  0.9379 -1.1470 -1.6077
 8982SOL     OW27523   9.204   2.351   7.611 -0.3957  0.1839  0.1064
 8982SOL    HW127524   9.145   2.412   7.656 -0.0846  0.4817  0.1183
 8982SOL    HW227525   9.156   2.324   7.533 -0.8817 -0.2247  0.5469
 8983SOL     OW27526   8.995   6.471   1.846 -0.1227 -0.1882  0.2426
 8983SOL    HW127527   8.972   6.399   1.787 -0.1309 -0.6014  0.7431
 8983SOL    HW227528   9.004   6.430   1.932 -0.2735  0.4330  0.5626
 8984SOL     OW27529   8.433   5.328   3.189  0.3293  0.1033  0.2507
 8984SOL    HW127530   8.487   5.344   3.266 -0.6628 -0.4376  1.0847
 8984SOL    HW227531   8.491   5.344   3.115  1.1037  1.3524  1.0892
 8985SOL     OW27532   9.810   4.497   4.618  0.1289 -0.4214 -0.4357
 8985SOL    HW127533   9.875   4.561   4.644 -0.5460  0.1719 -0.1868
 8985SOL    HW227534   9.861   4.424   4.581  0.8632  0.8238 -2.0139
 8986SOL     OW27535   6.545   3.462   2.982 -0.0117 -0.4444 -0.4440
 8986SOL    HW127536   6.601   3.491   2.910 -0.2938  0.1060 -0.4485
 8986SOL    HW227537   6.457   3.487   2.955 -0.0253  0.5608  0.4675
 8987SOL     OW27538   5.782   7.628   9.000 -0.1833  0.2940  0.4060
 8987SOL    HW127539   5.710   7.567   8.983  1.2384 -0.9552 -1.7184
 8987SOL    HW227540   5.794   7.626   9.095 -2.4559  0.0072  0.7410
 8988SOL     OW27541   7.617   8.453   6.174  0.6427  0.2247  0.1204
 8988SOL    HW127542   7.707   8.448   6.205  0.2022 -2.5349  1.2516
 8988SOL    HW227543   7.597   8.364   6.144 -1.1647  1.1877 -1.7713
 8989SOL     OW27544   8.070   4.786   0.835 -0.4817 -0.0519  0.2915
 8989SOL    HW127545   8.025   4.868   0.853  0.3593  0.2581  1.0203
 8989SOL    HW227546   8.077   4.783   0.739  0.1278  1.0876  0.2812
 8990SOL     OW27547   5.709   4.714   7.120 -0.1175  1.0436 -0.3328
 8990SOL    HW127548   5.625   4.676   7.093  0.7596 -0.8307 -0.6102
 8990SOL    HW227549   5.689   4.763   7.200 -1.3390 -0.1032  0.0986
 8991SOL     OW27550   1.438   8.851   4.563 -0.2428  0.0382 -0.2353
 8991SOL    HW127551   1.352   8.893   4.555  0.7952  2.3933  0.1626
 8991SOL    HW227552   1.465   8.834   4.473 -0.5612  0.4999 -0.4236
 8992SOL     OW27553   8.862   7.797   3.495  0.1572 -0.3697  0.2022
 8992SOL    HW127554   8.895   7.708   3.504 -0.4018 -0.4740  1.3664
 8992SOL    HW227555   8.802   7.808   3.569 -0.6197  0.5998 -0.5527
 8993SOL     OW27556   5.385   9.717   9.863  0.0931  0.1739  0.3427
 8993SOL    HW127557   5.346   9.722   9.951 -0.6774 -0.8455  0.0681
 8993SOL    HW227558   5.312   9.697   9.805  0.2867  2.4148 -0.8053
 8994SOL     OW27559   4.955   5.572   9.130 -0.2478 -0.0539 -0.4348
 8994SOL    HW127560   5.013   5.628   9.182 -0.2255  0.2782 -0.8106
 8994SOL    HW227561   5.007   5.495   9.111 -0.2502 -0.1714  0.0219
 8995SOL     OW27562   4.419   3.296   9.925  0.4106 -0.2334  0.6600
 8995SOL    HW127563   4.499   3.281   9.976  1.0071 -1.2557 -0.5410
 8995SOL    HW227564   4.405   3.391   9.931  1.6459 -0.0511  0.9813
 8996SOL     OW27565   4.858   8.581   7.538  0.0126 -0.3268 -0.1738
 8996SOL    HW127566   4.775   8.545   7.568 -0.3172  0.1997 -0.4274
 8996SOL    HW227567   4.911   8.590   7.617 -1.2405  2.1187  0.5030
 8997SOL     OW27568   2.277   7.227   0.123  0.1101 -0.6417  0.3966
 8997SOL    HW127569   2.350   7.168   0.103  1.8424  1.3564  0.4997
 8997SOL    HW227570   2.261   7.274   0.041  2.1146  2.1481  1.4295
 8998SOL     OW27571   9.362   0.623   5.491 -0.4248 -0.0024 -0.5460
 8998SOL    HW127572   9.296   0.652   5.427  1.1263  2.0227 -1.3177
 8998SOL    HW227573   9.359   0.690   5.560 -1.5190 -1.7416  1.2023
 8999SOL     OW27574   2.327   9.307   3.604  0.3230  0.0979  0.4635
 8999SOL    HW127575   2.316   9.389   3.557 -0.9096 -0.6385 -0.6107
 8999SOL    HW227576   2.357   9.245   3.538  2.2817 -0.1110  1.4754
 9000SOL     OW27577   2.972   4.994   2.034  0.2725 -0.2193 -0.5607
 9000SOL    HW127578   2.962   5.035   1.947 -0.4590  0.6054 -0.1092
 9000SOL    HW227579   3.024   4.915   2.018  0.8008  0.3260 -1.6314
 9001SOL     OW27580   3.646   6.657   4.097  0.4574 -0.2124  0.1667
 9001SOL    HW127581   3.723   6.703   4.132 -0.0128  0.2087  0.6875
 9001SOL    HW227582   3.583   6.727   4.079 -0.4211 -0.6648  1.3481
 9002SOL     OW27583   4.398   6.038   3.768  0.0982 -0.2449  0.1566
 9002SOL    HW127584   4.474   6.032   3.709  0.4408 -1.0550  0.6658
 9002SOL    HW227585   4.436   6.038   3.856 -0.4903 -0.5518  0.4117
 9003SOL     OW27586   6.378   5.741   3.213 -0.2797  0.3905  0.8439
 9003SOL    HW127587   6.362   5.697   3.130  1.7482  1.5636 -0.2541
 9003SOL    HW227588   6.418   5.674   3.269 -1.1740 -0.2670  0.7088
 9004SOL     OW27589   3.341   3.823   6.369 -0.0245  0.2528 -0.0258
 9004SOL    HW127590   3.384   3.778   6.442  1.6077  0.6394 -0.7108
 9004SOL    HW227591   3.250   3.830   6.396 -0.0360 -2.0377  0.8116
 9005SOL     OW27592   8.581   6.231   0.071  0.4285  0.1231  0.4112
 9005SOL    HW127593   8.597   6.144   0.107 -2.1038 -0.1924  0.9132
 9005SOL    HW227594   8.596   6.222  -0.023 -2.1326 -1.5242  0.0884
 9006SOL     OW27595   3.706   2.652   6.526  0.2831  0.1508  0.1793
 9006SOL    HW127596   3.746   2.662   6.613  0.2733  1.2643  0.0677
 9006SOL    HW227597   3.652   2.730   6.515  0.1296 -0.0729 -0.7548
 9007SOL     OW27598   2.721   5.042   7.357  0.5461  0.5502 -0.2927
 9007SOL    HW127599   2.789   5.009   7.298 -1.9031  0.8044 -3.5413
 9007SOL    HW227600   2.672   5.104   7.304 -2.7052 -0.2261  1.5654
 9008SOL     OW27601   2.927   5.314   2.006  0.5727  0.0224  0.1416
 9008SOL    HW127602   2.899   5.223   2.009 -2.2086  0.7943  0.9522
 9008SOL    HW227603   2.944   5.337   2.097  0.7352  0.4557  0.0072
 9009SOL     OW27604   5.540   5.005   2.543  0.5852 -0.0617  1.1225
 9009SOL    HW127605   5.460   5.016   2.492  0.3126  0.7113  1.6885
 9009SOL    HW227606   5.538   4.914   2.572  0.7535 -0.5273 -0.2246
 9010SOL     OW27607   4.257   5.206   3.686 -0.6965  0.0736  0.4446
 9010SOL    HW127608   4.342   5.228   3.724  0.3043 -1.7526 -0.5804
 9010SOL    HW227609   4.244   5.114   3.708 -1.9755  0.0635 -0.2470
 9011SOL     OW27610   7.007   8.827   6.906 -0.0941  0.0830 -0.1402
 9011SOL    HW127611   6.931   8.885   6.895 -0.1359  0.4848  1.8509
 9011SOL    HW227612   6.985   8.772   6.981  1.5021  0.1179  0.4003
 9012SOL     OW27613   0.602   2.059   5.483  0.2238 -0.1240  0.2994
 9012SOL    HW127614   0.647   1.976   5.473 -1.0023 -1.1971  2.8399
 9012SOL    HW227615   0.672   2.123   5.494  1.1632 -0.9846 -0.4635
 9013SOL     OW27616   0.397   6.366   5.364  0.2639 -0.0368  0.1637
 9013SOL    HW127617   0.468   6.430   5.369 -0.2088  0.5141 -0.0702
 9013SOL    HW227618   0.317   6.418   5.368 -0.2032 -0.8236  3.2924
 9014SOL     OW27619   8.815   7.001   7.732 -0.9237  0.0083 -0.2505
 9014SOL    HW127620   8.728   7.009   7.692 -0.5473 -1.7437 -1.5587
 9014SOL    HW227621   8.868   6.958   7.664  0.1891 -1.6290  1.5739
 9015SOL     OW27622   3.680   4.332   7.152 -0.6618 -0.9460 -0.0933
 9015SOL    HW127623   3.695   4.426   7.163 -2.4778 -0.4204 -1.5545
 9015SOL    HW227624   3.760   4.299   7.112 -0.4397  0.2320 -0.6614
 9016SOL     OW27625   1.396   5.003   8.689 -0.2842 -0.2527  0.1083
 9016SOL    HW127626   1.406   5.098   8.694  0.6937 -0.1897 -1.9763
 9016SOL    HW227627   1.305   4.987   8.715 -0.8280  1.3795 -0.6389
 9017SOL     OW27628   7.703   3.262   1.282 -0.6874  0.1883  0.5040
 9017SOL    HW127629   7.798   3.263   1.269 -0.9191  0.0081 -1.4871
 9017SOL    HW227630   7.679   3.170   1.274 -1.2386  0.4391 -0.9210
 9018SOL     OW27631   6.643   8.424   1.824 -0.5550  0.0272  0.0092
 9018SOL    HW127632   6.559   8.427   1.869 -0.9992 -0.6299 -0.7506
 9018SOL    HW227633   6.668   8.332   1.825  0.1542  0.2176  0.2212
 9019SOL     OW27634   7.703   4.330   2.426  0.2628  0.1943 -0.2917
 9019SOL    HW127635   7.664   4.249   2.457 -1.6578  1.0579 -0.3465
 9019SOL    HW227636   7.758   4.304   2.352 -0.0409 -1.0832 -0.0808
 9020SOL     OW27637   1.608   0.464   0.558  0.4120  0.5772 -0.3663
 9020SOL    HW127638   1.560   0.523   0.500 -0.3514 -1.0633 -1.4658
 9020SOL    HW227639   1.575   0.484   0.645  0.8423  2.3866 -0.5689
 9021SOL     OW27640   5.170   8.041   3.825 -0.7633 -0.0838 -0.3375
 9021SOL    HW127641   5.210   7.964   3.867 -0.6329  1.2678  2.2516
 9021SOL    HW227642   5.241   8.082   3.776 -0.0059  0.0555  0.8439
 9022SOL     OW27643   4.539   0.372   0.361  0.1341 -0.3071 -0.0184
 9022SOL    HW127644   4.570   0.408   0.444  1.2216  1.4996 -1.1230
 9022SOL    HW227645   4.549   0.444   0.299  0.6626 -1.9906 -2.0036
 9023SOL     OW27646   9.250   2.450   0.872 -0.0154 -0.2439  0.0875
 9023SOL    HW127647   9.189   2.523   0.880  0.8101  0.2792  2.1518
 9023SOL    HW227648   9.304   2.455   0.951  1.5723 -1.7137 -0.8437
 9024SOL     OW27649   0.654   6.921   1.998 -0.0985 -0.0421  0.4338
 9024SOL    HW127650   0.716   6.891   1.932  1.2046  0.9548  1.1413
 9024SOL    HW227651   0.632   6.843   2.048  0.0823 -0.5332 -0.2430
 9025SOL     OW27652   4.731   0.253   6.281 -0.2509  0.1820 -0.1805
 9025SOL    HW127653   4.779   0.189   6.228 -0.2290 -0.7484  0.9421
 9025SOL    HW227654   4.791   0.327   6.289 -0.0120  0.0776 -0.9222
 9026SOL     OW27655   1.239   4.000   8.620 -0.3782  0.1520 -0.0906
 9026SOL    HW127656   1.299   4.070   8.591  0.9023 -1.0133 -0.3402
 9026SOL    HW227657   1.227   4.017   8.714  2.8598 -1.2970  0.7170
 9027SOL     OW27658   8.806   3.721   5.505 -0.1219 -0.7511 -0.3303
 9027SOL    HW127659   8.764   3.760   5.582 -1.0531  0.6851 -1.4999
 9027SOL    HW227660   8.834   3.634   5.534 -1.1458 -0.5563  1.3911
 9028SOL     OW27661   1.891   5.531   3.067 -0.0601 -0.1998  0.5849
 9028SOL    HW127662   1.844   5.467   3.120  1.1375 -0.0176  1.9175
 9028SOL    HW227663   1.964   5.559   3.122 -0.1216  1.7664 -0.2629
 9029SOL     OW27664   7.165   4.919   7.770 -0.4067  0.4523  0.3694
 9029SOL    HW127665   7.230   4.979   7.733  0.3877 -0.2201  0.6165
 9029SOL    HW227666   7.215   4.869   7.836 -0.9434 -0.7391 -0.1071
 9030SOL     OW27667   9.497   9.654   9.017  0.2913 -0.2585  0.1417
 9030SOL    HW127668   9.415   9.699   8.999  0.3817 -0.8115 -1.9165
 9030SOL    HW227669   9.479   9.562   8.996  2.0736 -0.0233 -2.9722
 9031SOL     OW27670   2.013   5.949   5.824 -0.3042  0.4746  0.4976
 9031SOL    HW127671   2.049   6.038   5.819 -2.5900  1.5153  1.1701
 9031SOL    HW227672   1.920   5.962   5.843 -0.9241 -2.0632 -0.4507
 9032SOL     OW27673   4.674   8.590   4.097  0.3374 -0.5392 -0.2947
 9032SOL    HW127674   4.757   8.585   4.049  0.0292 -2.3973 -0.7421
 9032SOL    HW227675   4.607   8.599   4.029  0.0271 -1.4084 -0.1202
 9033SOL     OW27676   1.903   0.275   8.365 -0.0919  0.0598  0.1236
 9033SOL    HW127677   1.906   0.264   8.460  1.0980  0.9820  0.2047
 9033SOL    HW227678   1.816   0.242   8.341  0.0966 -1.4493  1.3488
 9034SOL     OW27679   4.757   0.001   0.440 -0.5775  0.1586 -0.0931
 9034SOL    HW127680   4.821   0.013   0.370  0.1444  1.8633  0.7740
 9034SOL    HW227681   4.772   0.076   0.498 -1.1322 -1.2076  1.8934
 9035SOL     OW27682   6.802   3.965   0.879  0.1048 -0.7986 -0.1584
 9035SOL    HW127683   6.881   3.913   0.893  0.5939  0.1171  0.5756
 9035SOL    HW227684   6.829   4.055   0.897 -0.9201 -0.3813 -0.6527
 9036SOL     OW27685   7.840   0.025   2.759 -0.3166 -0.4031  0.1784
 9036SOL    HW127686   7.909  -0.005   2.700  0.3322  0.2151  0.6124
 9036SOL    HW227687   7.770   0.054   2.701  0.7629  1.2923 -0.3380
 9037SOL     OW27688   8.288   8.447   0.604 -0.6505  0.1824 -0.2601
 9037SOL    HW127689   8.315   8.437   0.513  0.5303 -1.0162  0.1762
 9037SOL    HW227690   8.214   8.387   0.614 -0.0369 -0.5857 -0.1720
 9038SOL     OW27691   0.280   9.365   1.586  1.0110  0.4415 -0.4144
 9038SOL    HW127692   0.249   9.274   1.578  1.1123  0.5376 -2.3603
 9038SOL    HW227693   0.287   9.379   1.680 -0.6721 -1.0087 -0.0130
 9039SOL     OW27694   8.459   7.585   6.111  0.1690 -0.2798  0.1281
 9039SOL    HW127695   8.493   7.614   6.196 -0.4240  1.1427 -0.0791
 9039SOL    HW227696   8.431   7.495   6.125  2.2186 -0.8471  0.8005
 9040SOL     OW27697   7.599   3.161   9.932 -0.2452 -0.2852 -0.2887
 9040SOL    HW127698   7.611   3.223  10.004  0.4184  0.3837 -0.9536
 9040SOL    HW227699   7.564   3.082   9.973  2.2672 -0.7566  1.1081
 9041SOL     OW27700   5.129   7.402   3.710 -0.3134 -0.0508  0.1305
 9041SOL    HW127701   5.140   7.380   3.618 -0.0039 -0.5268  0.2732
 9041SOL    HW227702   5.100   7.493   3.711 -2.0883 -0.5881 -0.5046
 9042SOL     OW27703   6.099   2.583   0.330  0.4465 -0.0401  0.3976
 9042SOL    HW127704   6.018   2.590   0.381  0.4844 -0.3927  0.5084
 9042SOL    HW227705   6.113   2.671   0.295 -0.3423 -0.1197 -0.1599
 9043SOL     OW27706   8.667   6.541   4.441 -0.0508 -0.1416 -0.3759
 9043SOL    HW127707   8.652   6.622   4.392  0.7437 -0.3598 -0.9960
 9043SOL    HW227708   8.759   6.546   4.467  0.1532 -1.0945 -0.8850
 9044SOL     OW27709   9.907   3.352   0.179  0.0795  0.2687  0.1492
 9044SOL    HW127710   9.966   3.400   0.121  0.0023 -0.2351 -0.3539
 9044SOL    HW227711   9.918   3.260   0.153  1.1958 -0.1578  1.9580
 9045SOL     OW27712   1.031   4.327   8.243 -0.3605 -0.8023 -0.4549
 9045SOL    HW127713   1.077   4.244   8.252  0.9032  0.1503  3.9921
 9045SOL    HW227714   0.948   4.315   8.290  0.1306  0.5599  0.8435
 9046SOL     OW27715   2.666   7.279   1.028 -0.3404  0.3649 -0.5393
 9046SOL    HW127716   2.708   7.209   1.078 -1.0441 -1.1725 -1.9698
 9046SOL    HW227717   2.716   7.283   0.946  0.7273  2.7472  0.1601
 9047SOL     OW27718   9.284   3.116   0.150 -0.2551 -0.2121 -0.1630
 9047SOL    HW127719   9.279   3.025   0.120 -1.0734 -0.5514  0.9454
 9047SOL    HW227720   9.364   3.120   0.201 -0.3201 -0.3599 -0.0489
 9048SOL     OW27721   1.140   2.859   3.201  0.3254  0.2462 -0.1224
 9048SOL    HW127722   1.148   2.774   3.245 -0.1084  1.6154  2.9281
 9048SOL    HW227723   1.228   2.895   3.203  0.2680  0.3884 -0.1645
 9049SOL     OW27724   8.736   7.502   4.545  0.1478  0.5191 -0.4073
 9049SOL    HW127725   8.683   7.507   4.465  0.6568  4.1928 -0.6482
 9049SOL    HW227726   8.825   7.486   4.514  0.3854  2.1816 -0.6791
 9050SOL     OW27727   2.433   7.438   9.011  0.4381  0.5278 -0.8801
 9050SOL    HW127728   2.471   7.508   9.064 -0.9188  0.6622 -0.0509
 9050SOL    HW227729   2.488   7.362   9.030 -0.1998  0.4864  1.0406
 9051SOL     OW27730   0.136   1.651   4.056 -0.1118  0.3530 -0.2656
 9051SOL    HW127731   0.138   1.632   3.962  2.2460 -0.3004 -0.1590
 9051SOL    HW227732   0.145   1.746   4.061 -2.6519  0.6772 -0.6795
 9052SOL     OW27733   4.862   5.555   0.614  0.5259 -0.1384  0.4542
 9052SOL    HW127734   4.892   5.641   0.645 -0.0731  0.2127  0.0795
 9052SOL    HW227735   4.941   5.511   0.585  0.7039  0.7462 -0.4650
 9053SOL     OW27736   7.265   2.030   4.053  0.2421  0.0438 -0.0606
 9053SOL    HW127737   7.318   2.017   4.132 -0.2908 -0.0172  0.2983
 9053SOL    HW227738   7.316   2.090   3.999 -0.0053  1.2352  0.9576
 9054SOL     OW27739   3.485   6.493   6.008 -0.2186 -0.1158  0.0607
 9054SOL    HW127740   3.429   6.461   5.937 -0.2673 -0.3987  0.2265
 9054SOL    HW227741   3.511   6.414   6.056 -1.3604  0.1761  1.2279
 9055SOL     OW27742   4.421   0.957   8.391 -0.1133 -0.3535  0.1639
 9055SOL    HW127743   4.389   0.959   8.301  0.1058  0.9241  0.1026
 9055SOL    HW227744   4.415   1.047   8.421  1.7290 -0.3853  0.7515
 9056SOL     OW27745   7.645   7.345   8.872  0.1241 -0.0210 -0.3951
 9056SOL    HW127746   7.631   7.342   8.967  1.2552 -1.5429 -0.2433
 9056SOL    HW227747   7.714   7.281   8.856 -0.3194 -0.0696 -2.3104
 9057SOL     OW27748   5.972   8.075   5.413 -0.1791 -0.6169  0.8122
 9057SOL    HW127749   5.945   7.994   5.455  0.7311 -0.7565  1.1420
 9057SOL    HW227750   6.005   8.047   5.327 -0.0114 -0.5725  0.8634
 9058SOL     OW27751   3.706   4.401   8.906 -0.3285  0.5832 -0.0214
 9058SOL    HW127752   3.735   4.394   8.815 -1.0026  0.9459 -0.2704
 9058SOL    HW227753   3.756   4.334   8.952 -1.1345 -0.6893 -0.9437
 9059SOL     OW27754   5.396   9.189   6.498  0.0422  0.1462 -0.1743
 9059SOL    HW127755   5.481   9.220   6.468  0.8278 -1.3210  0.4091
 9059SOL    HW227756   5.414   9.145   6.581 -1.3187  0.0111  0.0722
 9060SOL     OW27757   8.181   3.126   1.973 -0.6921  0.2297  0.1747
 9060SOL    HW127758   8.153   3.044   2.013  0.0622 -0.4525 -0.6379
 9060SOL    HW227759   8.230   3.171   2.042 -0.5591 -0.3019  0.4350
 9061SOL     OW27760   7.871   6.757   1.874  0.0906  0.6202  0.4913
 9061SOL    HW127761   7.843   6.835   1.826  1.6932 -0.1018 -1.7640
 9061SOL    HW227762   7.851   6.777   1.966 -0.2380  3.3614 -0.0935
 9062SOL     OW27763   4.415   1.759   7.773 -0.3275  0.2289 -0.2402
 9062SOL    HW127764   4.368   1.677   7.764 -2.7467  1.4060  0.6438
 9062SOL    HW227765   4.489   1.752   7.713 -0.6361 -2.4243 -0.4084
 9063SOL     OW27766   7.081   9.342   8.603  0.6804 -0.6991 -0.2249
 9063SOL    HW127767   7.042   9.319   8.687 -0.0859 -0.4857 -0.5143
 9063SOL    HW227768   7.109   9.433   8.613  2.7837 -1.3765  0.5803
 9064SOL     OW27769   8.812   6.221   1.734 -0.5225 -0.2156  0.0154
 9064SOL    HW127770   8.778   6.265   1.657  0.4784 -0.9039 -0.8458
 9064SOL    HW227771   8.736   6.177   1.772 -1.2101  0.8975 -0.0214
 9065SOL     OW27772   6.097   5.028   0.053 -0.0135  0.7660  0.2926
 9065SOL    HW127773   6.115   5.086  -0.021 -1.7859  0.5265 -0.3803
 9065SOL    HW227774   6.104   4.940   0.015  1.3082  0.5474  0.9833
 9066SOL     OW27775   2.989   2.637   1.369  0.3809  0.2286  0.6625
 9066SOL    HW127776   3.052   2.644   1.440  0.1902 -0.5402  0.9121
 9066SOL    HW227777   3.041   2.608   1.294  0.1772 -1.3430  1.1080
 9067SOL     OW27778   4.624   8.708   3.203 -0.2011 -0.3872  0.1344
 9067SOL    HW127779   4.547   8.726   3.257  0.2033  1.4225  0.1672
 9067SOL    HW227780   4.693   8.684   3.265  0.1162  1.1637  0.4108
 9068SOL     OW27781   8.352   3.959   2.349  0.3794 -0.7564  0.1588
 9068SOL    HW127782   8.432   3.916   2.318  0.3884  0.1851 -1.1992
 9068SOL    HW227783   8.281   3.906   2.314  0.3990 -0.9060  0.3443
 9069SOL     OW27784   3.397   1.343   1.372 -0.0404 -0.1331 -0.0953
 9069SOL    HW127785   3.315   1.391   1.381  0.3945  0.8364 -1.1892
 9069SOL    HW227786   3.464   1.410   1.371  0.6905 -0.8554 -0.3266
 9070SOL     OW27787   6.925   0.259   5.794  0.0944 -0.4822 -0.4060
 9070SOL    HW127788   6.853   0.306   5.836  0.0792 -0.0144 -0.9572
 9070SOL    HW227789   7.002   0.312   5.812  0.2748 -0.8770  0.0062
 9071SOL     OW27790   1.869   4.360   1.627 -0.4155 -0.3168  0.2097
 9071SOL    HW127791   1.908   4.355   1.539  1.0962 -0.7096  0.8576
 9071SOL    HW227792   1.855   4.268   1.651 -0.8753 -0.2064  0.3640
 9072SOL     OW27793   3.992   5.872   1.850  0.0643  0.1662 -0.8598
 9072SOL    HW127794   4.079   5.856   1.887 -0.0914  2.8450  0.9009
 9072SOL    HW227795   3.958   5.784   1.832  3.0846 -0.9822 -1.6388
 9073SOL     OW27796   5.572   8.490   4.789  0.8885  0.1101 -0.4113
 9073SOL    HW127797   5.641   8.479   4.854  0.3265 -0.1776  0.1445
 9073SOL    HW227798   5.574   8.583   4.767  0.3797  0.4196  0.8061
 9074SOL     OW27799   0.845   3.854   7.038 -0.0284 -0.0982  0.1398
 9074SOL    HW127800   0.829   3.813   7.123  0.9534 -1.6627 -0.3965
 9074SOL    HW227801   0.899   3.930   7.058 -0.7900  0.2361  1.0190
 9075SOL     OW27802   4.582   3.997   2.853 -0.2765 -0.2205  0.0536
 9075SOL    HW127803   4.528   3.922   2.829 -0.8296  0.3818 -0.6058
 9075SOL    HW227804   4.672   3.970   2.832 -0.4964 -0.6043 -0.3968
 9076SOL     OW27805   9.758   9.261   3.860  0.1355  0.4367 -0.2576
 9076SOL    HW127806   9.824   9.260   3.791  0.1723  2.3823 -0.3091
 9076SOL    HW227807   9.683   9.215   3.822  1.0442 -0.8465 -0.5830
 9077SOL     OW27808   4.102   9.765   7.095  0.0826 -0.4994 -0.6577
 9077SOL    HW127809   4.136   9.756   7.006  2.1369 -0.6097  0.0688
 9077SOL    HW227810   4.063   9.852   7.098  1.2387  0.0640 -1.3006
 9078SOL     OW27811   0.978   7.050   7.607 -0.2673 -0.3233 -0.3406
 9078SOL    HW127812   0.918   6.979   7.582  1.0753 -0.8321 -2.4240
 9078SOL    HW227813   1.060   7.027   7.563  0.6907  1.6858  0.3201
 9079SOL     OW27814   3.620   1.461   8.303  0.1877 -0.5333 -0.3596
 9079SOL    HW127815   3.561   1.386   8.314 -0.1185 -0.4057 -1.1013
 9079SOL    HW227816   3.679   1.435   8.232 -0.0810  0.0207 -0.7958
 9080SOL     OW27817   9.672   1.367   6.857 -0.2098 -0.1080 -0.4170
 9080SOL    HW127818   9.756   1.413   6.853  0.3007 -0.9354  0.4006
 9080SOL    HW227819   9.695   1.275   6.844 -0.9666 -0.3662  0.0457
 9081SOL     OW27820   9.862   2.102   8.374 -0.4163  0.3951 -0.0945
 9081SOL    HW127821   9.857   2.109   8.469  2.0859 -2.1380  0.3686
 9081SOL    HW227822   9.834   2.012   8.355  2.0052 -0.1995 -1.3065
 9082SOL     OW27823   3.400   1.853   8.311 -0.2246 -0.0092 -0.4875
 9082SOL    HW127824   3.365   1.886   8.394  2.2575  2.4932 -0.2856
 9082SOL    HW227825   3.377   1.921   8.247 -1.2496 -1.4342 -1.7210
 9083SOL     OW27826   9.257   1.550   8.788 -0.4429 -0.2040 -0.8877
 9083SOL    HW127827   9.252   1.485   8.859 -0.6058  0.5475 -0.2001
 9083SOL    HW227828   9.350   1.551   8.763 -0.2004  0.2164 -0.0174
 9084SOL     OW27829   1.501   2.689   4.054 -0.1422 -0.2908  0.1542
 9084SOL    HW127830   1.529   2.631   3.983 -1.6341 -2.2230  1.0626
 9084SOL    HW227831   1.501   2.634   4.132  1.3120  1.7572  1.6837
 9085SOL     OW27832   3.420   0.716   8.704 -0.4601 -0.0259  0.5068
 9085SOL    HW127833   3.392   0.802   8.672 -1.5051 -0.3540  0.4862
 9085SOL    HW227834   3.505   0.701   8.663 -1.2056  0.1060 -1.1434
 9086SOL     OW27835   5.287   9.365   2.069 -0.7138  0.1720  0.2811
 9086SOL    HW127836   5.209   9.341   2.120 -0.0332 -1.1366  0.7598
 9086SOL    HW227837   5.294   9.296   2.003  0.8813 -0.6326  1.2177
 9087SOL     OW27838   7.239   7.317   0.822  0.0083  0.4339  0.1631
 9087SOL    HW127839   7.263   7.385   0.760 -0.1810  1.1141  0.8272
 9087SOL    HW227840   7.224   7.239   0.768  2.3517  0.3179 -0.4269
 9088SOL     OW27841   2.355   7.465   7.825 -0.2836  0.0172 -0.4738
 9088SOL    HW127842   2.288   7.521   7.864 -0.4009 -0.7454  0.4531
 9088SOL    HW227843   2.437   7.512   7.840 -0.6135  1.2218 -2.0968
 9089SOL     OW27844   4.379   6.935   3.377 -0.3114  0.2375  0.3324
 9089SOL    HW127845   4.383   6.859   3.435 -0.3921  0.4215  0.5846
 9089SOL    HW227846   4.461   6.982   3.393 -0.5493  0.5549  0.6789
 9090SOL     OW27847   1.591   3.084   0.505  0.0027 -0.4060  0.0153
 9090SOL    HW127848   1.538   3.089   0.426  0.1993 -3.8266 -0.4888
 9090SOL    HW227849   1.536   3.125   0.573 -0.9579  0.9047 -1.4813
 9091SOL     OW27850   9.240   7.432   8.479  0.3270  0.7501  0.1302
 9091SOL    HW127851   9.146   7.443   8.471  0.0482 -2.2385 -3.3322
 9091SOL    HW227852   9.250   7.360   8.542  0.1737  0.2421 -0.4152
 9092SOL     OW27853   0.509   9.501   8.766 -0.1457  0.0213 -0.0996
 9092SOL    HW127854   0.485   9.483   8.857 -1.2369  0.5450 -0.2678
 9092SOL    HW227855   0.434   9.549   8.730  0.1332 -0.4401 -1.3630
 9093SOL     OW27856   6.659   4.466   9.118  0.6034 -0.4077 -0.1894
 9093SOL    HW127857   6.703   4.515   9.187 -1.2280 -1.5327  1.9004
 9093SOL    HW227858   6.571   4.503   9.115 -0.1021 -2.0157 -0.1687
 9094SOL     OW27859   5.507   9.951   6.103 -0.1595 -0.0111 -0.0586
 9094SOL    HW127860   5.500   9.869   6.153 -0.7448 -0.5999 -1.0581
 9094SOL    HW227861   5.579   9.935   6.043 -2.0041 -0.9331 -2.1861
 9095SOL     OW27862   5.674   9.530   5.272 -0.2357  0.0252  0.3522
 9095SOL    HW127863   5.623   9.605   5.303 -2.5049 -0.8506 -1.0345
 9095SOL    HW227864   5.648   9.457   5.329  0.7871 -0.1032  0.6959
 9096SOL     OW27865   7.288   1.054   7.044 -0.1682  0.3094  0.4684
 9096SOL    HW127866   7.282   0.958   7.039 -0.5011  0.3442  0.1172
 9096SOL    HW227867   7.331   1.071   7.128  0.0670 -0.1523  0.4449
 9097SOL     OW27868   6.003   9.466   3.058  0.6606  0.0228 -0.8521
 9097SOL    HW127869   5.991   9.383   3.013  1.8505 -1.1180  0.8421
 9097SOL    HW227870   6.016   9.443   3.150  1.3134  2.0439 -0.3797
 9098SOL     OW27871   5.167   7.331   2.480 -0.7077  0.1153  0.0852
 9098SOL    HW127872   5.190   7.360   2.392 -1.0960 -1.7825 -0.6927
 9098SOL    HW227873   5.082   7.371   2.497 -1.8600 -1.5065 -1.4955
 9099SOL     OW27874   3.963   9.504   0.842  0.4241  0.2477 -0.4127
 9099SOL    HW127875   3.990   9.565   0.774 -0.0385 -0.8516 -1.6294
 9099SOL    HW227876   3.999   9.420   0.814 -1.2991 -0.5801 -0.2778
 9100SOL     OW27877   1.188   6.126   2.091 -0.1597  0.0942 -0.4901
 9100SOL    HW127878   1.263   6.125   2.030 -0.3266  3.8760 -0.9568
 9100SOL    HW227879   1.156   6.216   2.089 -1.0301  0.1335  4.2579
 9101SOL     OW27880   4.976   2.002   7.542 -0.1059  0.1152 -0.3809
 9101SOL    HW127881   5.037   2.069   7.572 -0.2949  1.1548 -2.1574
 9101SOL    HW227882   4.890   2.038   7.562 -0.1967  0.2410 -0.9680
 9102SOL     OW27883   5.369   8.856   5.584 -0.4892 -0.4174  0.5072
 9102SOL    HW127884   5.321   8.938   5.590 -0.8771 -0.6216  0.2265
 9102SOL    HW227885   5.410   8.845   5.670  1.4070  1.1871 -0.0997
 9103SOL     OW27886   2.229   2.729   4.061  0.6264 -0.3130  0.9035
 9103SOL    HW127887   2.261   2.819   4.071 -0.8948  0.3495  0.0440
 9103SOL    HW227888   2.301   2.683   4.017  1.3274  0.5203  1.1428
 9104SOL     OW27889   0.591   9.336   2.718 -0.1252 -0.0082  0.2381
 9104SOL    HW127890   0.676   9.317   2.678 -0.3304 -0.3112 -0.0582
 9104SOL    HW227891   0.610   9.402   2.784  0.1572  0.7923 -0.6208
 9105SOL     OW27892   7.760   1.614   2.701 -0.2286  0.0660  0.4873
 9105SOL    HW127893   7.791   1.624   2.790  0.0175  0.5814  0.3449
 9105SOL    HW227894   7.692   1.546   2.707 -1.4079  1.2791  1.3509
 9106SOL     OW27895   4.311   2.513   4.065 -0.5597 -0.2038  0.3414
 9106SOL    HW127896   4.396   2.556   4.054 -0.8948  0.2875 -0.4617
 9106SOL    HW227897   4.248   2.578   4.033 -1.1107 -1.1167 -0.4713
 9107SOL     OW27898   9.295   4.274   3.630  0.0276 -0.5170 -0.9253
 9107SOL    HW127899   9.346   4.299   3.707  0.6175 -0.5484 -1.2979
 9107SOL    HW227900   9.357   4.227   3.574 -1.0519 -3.0138 -0.1840
 9108SOL     OW27901   5.475   6.818   9.388 -0.4713 -0.1014 -0.4472
 9108SOL    HW127902   5.452   6.750   9.452 -0.3619 -0.4193 -0.7460
 9108SOL    HW227903   5.409   6.886   9.402  0.4658  0.5488  1.0802
 9109SOL     OW27904   1.690   6.838   1.082 -0.0127  0.9694  0.0399
 9109SOL    HW127905   1.703   6.760   1.028  0.0510  0.6313  0.5418
 9109SOL    HW227906   1.722   6.814   1.168  1.2096  1.9738 -0.1020
 9110SOL     OW27907   8.530   3.761   4.988  0.1001 -0.0962  0.1690
 9110SOL    HW127908   8.559   3.807   4.910 -0.3744  0.8620  0.5287
 9110SOL    HW227909   8.559   3.817   5.061  0.6920 -1.0613  0.6820
 9111SOL     OW27910   3.069   3.215   6.699 -0.1870 -0.4011 -0.1761
 9111SOL    HW127911   3.080   3.284   6.634 -1.2173 -0.6616 -0.6453
 9111SOL    HW227912   3.061   3.134   6.649  1.3068 -0.9295  0.3799
 9112SOL     OW27913   5.984   4.833   3.222 -1.0404 -0.6531  0.0383
 9112SOL    HW127914   5.986   4.831   3.318  0.0437  2.6496  0.1932
 9112SOL    HW227915   5.893   4.854   3.201 -0.7526  1.2637  0.5329
 9113SOL     OW27916   7.589   8.225   9.133 -0.2352  0.1553  0.1456
 9113SOL    HW127917   7.581   8.222   9.037  0.3327  0.6311  0.0740
 9113SOL    HW227918   7.605   8.135   9.159 -0.1762  0.0538 -0.2323
 9114SOL     OW27919   7.768   6.993   6.987 -0.6585  0.0197 -0.0442
 9114SOL    HW127920   7.771   6.952   6.900 -2.0273  0.7842 -0.4765
 9114SOL    HW227921   7.716   6.933   7.040 -1.0411  0.2446 -0.1578
 9115SOL     OW27922   5.319   5.367   3.825  0.0555  0.3028 -0.5931
 9115SOL    HW127923   5.296   5.411   3.743 -2.6276 -1.7641 -1.0757
 9115SOL    HW227924   5.304   5.433   3.892  1.6373  1.8160 -1.6226
 9116SOL     OW27925   6.847   7.386   1.246 -0.8899  0.1664 -0.6640
 9116SOL    HW127926   6.819   7.475   1.223 -0.7935  0.1990 -0.6561
 9116SOL    HW227927   6.827   7.378   1.339  1.7256  1.2104  0.0740
 9117SOL     OW27928   4.190   3.731   4.442  0.2438  0.4908  0.4738
 9117SOL    HW127929   4.275   3.688   4.435  0.4571  1.0041 -0.1747
 9117SOL    HW227930   4.184   3.758   4.534  0.3246 -0.4417  0.7735
 9118SOL     OW27931   9.419   9.589   2.275 -0.2536  0.0114 -0.1698
 9118SOL    HW127932   9.509   9.620   2.268 -1.2967  3.6118  0.1418
 9118SOL    HW227933   9.387   9.627   2.357 -2.3596 -0.3205 -0.7875
 9119SOL     OW27934   7.790   0.834   1.610  0.2164  0.3082 -0.6969
 9119SOL    HW127935   7.806   0.796   1.697  0.4001  1.7251 -0.0757
 9119SOL    HW227936   7.874   0.826   1.565  0.6301  1.1096 -0.0997
 9120SOL     OW27937   3.722   3.890   7.935  0.3683  0.1774 -0.5797
 9120SOL    HW127938   3.636   3.904   7.975  0.5397  1.5853 -0.6710
 9120SOL    HW227939   3.782   3.941   7.989  0.5525  2.5582 -2.8216
 9121SOL     OW27940   3.765   0.542   5.367  0.2214  0.1814  0.1128
 9121SOL    HW127941   3.711   0.477   5.412 -0.3467  0.3186 -0.3494
 9121SOL    HW227942   3.775   0.508   5.278 -0.3849  0.8765 -0.2395
 9122SOL     OW27943   6.963   2.669   8.984  0.0904 -0.0866  0.3410
 9122SOL    HW127944   6.868   2.677   8.989  0.1615  0.8146  0.3967
 9122SOL    HW227945   6.991   2.661   9.075  0.0636 -0.4943  0.3167
 9123SOL     OW27946   5.207   5.793   8.236  0.2156 -0.3332  0.8925
 9123SOL    HW127947   5.160   5.864   8.193  0.0350  0.6011  2.5477
 9123SOL    HW227948   5.211   5.724   8.170  0.8759  1.3804 -0.9689
 9124SOL     OW27949   3.885   6.345   2.177 -0.0856 -0.3813  0.0030
 9124SOL    HW127950   3.803   6.304   2.205  0.5478 -0.5112  1.7544
 9124SOL    HW227951   3.904   6.410   2.245 -0.4230  2.0211 -2.0576
 9125SOL     OW27952   5.066   7.235   9.940  0.2613  0.3199 -0.4775
 9125SOL    HW127953   5.038   7.206   9.853 -0.4226 -1.2158  0.2163
 9125SOL    HW227954   5.128   7.169   9.969  0.2282  0.6328  0.3347
 9126SOL     OW27955   8.444   4.245   8.611  0.4853 -0.0712 -0.5781
 9126SOL    HW127956   8.411   4.304   8.680 -0.4656  1.6688 -2.3969
 9126SOL    HW227957   8.427   4.157   8.645 -0.6526  0.7273  1.0967
 9127SOL     OW27958   0.880   2.354   5.975  0.1889  0.1447  0.0432
 9127SOL    HW127959   0.958   2.311   5.940  0.5206  0.1963  0.7038
 9127SOL    HW227960   0.857   2.420   5.909  0.5103 -0.0861 -0.3036
 9128SOL     OW27961   3.830   3.081   9.102 -0.4132 -0.1192  0.4895
 9128SOL    HW127962   3.836   2.987   9.119 -0.1663  0.1458  2.0056
 9128SOL    HW227963   3.827   3.088   9.007 -0.7914 -1.6782  0.3586
 9129SOL     OW27964   4.210   4.988   0.700 -0.0487  0.2451  0.7174
 9129SOL    HW127965   4.124   4.952   0.679  0.2254 -0.0177  0.0272
 9129SOL    HW227966   4.190   5.069   0.747 -0.6821  0.5401 -0.0297
 9130SOL     OW27967   1.845   0.862   5.108 -0.2892 -0.2406  0.5144
 9130SOL    HW127968   1.824   0.773   5.135  1.6373 -1.0760 -0.5409
 9130SOL    HW227969   1.940   0.863   5.101 -0.4033  1.1037 -2.0600
 9131SOL     OW27970   4.892   6.306   2.468  0.1939 -0.2168  0.2986
 9131SOL    HW127971   4.824   6.254   2.511 -1.3369 -0.4761 -2.2424
 9131SOL    HW227972   4.844   6.370   2.415  1.9660  0.6565 -0.3492
 9132SOL     OW27973   0.815   6.549   4.154  0.7573 -0.1985 -0.1033
 9132SOL    HW127974   0.736   6.519   4.110  0.2959  1.0269 -0.1557
 9132SOL    HW227975   0.863   6.598   4.088  0.1410  1.5085  0.6581
 9133SOL     OW27976   4.302   3.050   8.041 -0.3109  0.1916 -0.0759
 9133SOL    HW127977   4.273   3.008   8.122 -0.0872 -1.1201 -0.6393
 9133SOL    HW227978   4.395   3.067   8.055 -1.0324  3.7701  1.4678
 9134SOL     OW27979   5.449   3.767   1.969  0.1901  0.6247 -0.2385
 9134SOL    HW127980   5.507   3.703   2.011 -0.0752  0.3022 -0.3629
 9134SOL    HW227981   5.500   3.849   1.970  0.3931  0.4980  0.2315
 9135SOL     OW27982   9.577   4.693   9.085 -0.1599  0.2254 -0.0950
 9135SOL    HW127983   9.539   4.761   9.141 -1.6828  0.6380 -1.5701
 9135SOL    HW227984   9.588   4.735   9.000 -1.3916 -1.4370 -1.1227
 9136SOL     OW27985   3.892   8.231   1.592 -0.3285  0.3460  0.0750
 9136SOL    HW127986   3.985   8.208   1.601 -0.0166  1.6631  0.4214
 9136SOL    HW227987   3.881   8.253   1.500 -0.5414 -0.7589 -0.1775
 9137SOL     OW27988   6.258   3.122   7.593  0.0675  0.4741  0.1868
 9137SOL    HW127989   6.188   3.177   7.558 -0.9938 -1.3021 -0.5862
 9137SOL    HW227990   6.215   3.066   7.658  0.5280 -1.3472 -1.0255
 9138SOL     OW27991   8.414   6.057   8.052 -0.5922 -0.5637  0.6115
 9138SOL    HW127992   8.382   6.056   8.143 -0.4611  1.5817  0.7335
 9138SOL    HW227993   8.500   6.098   8.058  1.0153 -3.5298 -0.1020
 9139SOL     OW27994   1.389   4.948   0.693 -0.7867 -0.8770 -0.7724
 9139SOL    HW127995   1.329   4.946   0.767  1.1239  3.1637  1.2173
 9139SOL    HW227996   1.470   4.908   0.726  0.2237  1.3566 -0.3961
 9140SOL     OW27997   9.099   2.158   1.067 -0.1387  0.1025  0.3614
 9140SOL    HW127998   9.071   2.070   1.044 -0.7931  0.5395 -0.5315
 9140SOL    HW227999   9.134   2.149   1.156  0.3458 -1.1646  0.0696
 9141SOL     OW28000   9.186   8.810   9.918  0.2661  0.1768  0.1934
 9141SOL    HW128001   9.268   8.830   9.963  0.3987 -2.1150  1.1415
 9141SOL    HW228002   9.145   8.742   9.973 -1.1596 -0.3774 -1.4625
 9142SOL     OW28003   1.864   5.052   2.401 -0.0048 -0.2732 -0.2211
 9142SOL    HW128004   1.908   4.971   2.375  0.6724  0.2526 -0.7545
 9142SOL    HW228005   1.910   5.121   2.353 -0.7057  0.4103  0.0637
 9143SOL     OW28006   9.511   1.577   1.739  0.1294 -0.2072 -0.0707
 9143SOL    HW128007   9.482   1.594   1.828 -0.3671 -0.9807 -0.0697
 9143SOL    HW228008   9.592   1.527   1.749  0.6460  0.6128 -0.0671
 9144SOL     OW28009   6.238   0.675   3.479 -0.1197 -0.3196 -0.2770
 9144SOL    HW128010   6.163   0.730   3.457  0.7991  1.1480  0.1006
 9144SOL    HW228011   6.235   0.604   3.415 -1.8569 -0.3567 -0.2153
 9145SOL     OW28012   0.692   9.107   5.991  0.6459  0.2991 -0.0999
 9145SOL    HW128013   0.625   9.167   6.025 -1.5525 -1.7754 -0.4752
 9145SOL    HW228014   0.699   9.039   6.057  3.3862  1.0356  0.4965
 9146SOL     OW28015   2.848   5.589   6.315 -0.5406  0.0992  0.2428
 9146SOL    HW128016   2.774   5.564   6.370 -1.7535 -0.5389 -1.5753
 9146SOL    HW228017   2.925   5.558   6.363 -1.6740 -2.6392  0.5155
 9147SOL     OW28018   2.170   7.485   4.513 -0.0851 -0.0270 -0.0570
 9147SOL    HW128019   2.249   7.448   4.473  0.9778 -0.5634  2.3723
 9147SOL    HW228020   2.108   7.492   4.441  0.8904 -3.2044 -1.3858
 9148SOL     OW28021   5.625   6.689   3.155  0.5563  0.1174  0.2947
 9148SOL    HW128022   5.648   6.779   3.179 -0.0211  0.4572 -0.3662
 9148SOL    HW228023   5.696   6.636   3.190  2.3295  1.0985 -1.5833
 9149SOL     OW28024   5.935   1.849   6.537  0.1723  0.1366 -0.4643
 9149SOL    HW128025   5.882   1.897   6.601  0.3605 -0.7870  0.4172
 9149SOL    HW228026   5.989   1.916   6.495  0.4748  0.6973  0.7738
 9150SOL     OW28027   5.395   2.487   3.210  0.1825  0.0678 -0.6570
 9150SOL    HW128028   5.402   2.577   3.176 -1.3374  1.4384  2.2797
 9150SOL    HW228029   5.471   2.476   3.266 -0.2185 -0.0689 -0.1372
 9151SOL     OW28030   4.940   5.778   7.082 -0.0556 -0.1350  0.2793
 9151SOL    HW128031   4.944   5.691   7.044  1.9152 -0.7254  1.6679
 9151SOL    HW228032   4.881   5.827   7.024 -2.5132 -2.7547  0.3504
 9152SOL     OW28033   1.900   5.921   0.389  0.3142 -0.1200 -0.8129
 9152SOL    HW128034   1.838   5.858   0.353  0.3845 -0.0544 -1.0502
 9152SOL    HW228035   1.870   5.935   0.479 -0.4664  0.4736 -1.1468
 9153SOL     OW28036   6.861   0.781   8.824 -0.5370 -0.1757  0.0538
 9153SOL    HW128037   6.907   0.864   8.814 -1.4278  0.3405  0.1503
 9153SOL    HW228038   6.925   0.724   8.868  0.6477 -0.0570 -1.4320
 9154SOL     OW28039   2.773   7.899   3.548 -0.8266  0.1403  0.7901
 9154SOL    HW128040   2.700   7.907   3.609  1.6909  2.4553  3.8268
 9154SOL    HW228041   2.849   7.883   3.603  1.4672  1.0344 -1.8805
 9155SOL     OW28042   6.382   1.353   2.860 -0.5998  0.5218  0.4574
 9155SOL    HW128043   6.414   1.418   2.798  0.7389 -0.3357  0.2090
 9155SOL    HW228044   6.365   1.402   2.941  0.6247  1.1500  0.3482
 9156SOL     OW28045   2.042   4.280   6.057 -0.1292 -0.4172 -0.1648
 9156SOL    HW128046   2.095   4.356   6.035  2.4723 -2.4504 -1.5070
 9156SOL    HW228047   2.085   4.242   6.134 -1.7388 -0.2771  0.8512
 9157SOL     OW28048   6.359   6.580   1.725 -0.2105 -0.0012 -0.1451
 9157SOL    HW128049   6.268   6.582   1.694  0.0133  2.1378 -0.8704
 9157SOL    HW228050   6.363   6.647   1.793  1.2353  1.4861 -1.5811
 9158SOL     OW28051   5.355   8.150   6.437  0.1205  0.5026 -0.1749
 9158SOL    HW128052   5.301   8.076   6.410 -1.3437  0.9815  1.2999
 9158SOL    HW228053   5.428   8.110   6.485 -0.3807 -0.0278  0.1550
 9159SOL     OW28054   2.208   7.375   9.886  0.5881 -0.2321  0.0128
 9159SOL    HW128055   2.286   7.426   9.862  0.8895 -0.7160 -0.0365
 9159SOL    HW228056   2.180   7.334   9.804  1.5823 -1.8383  0.4411
 9160SOL     OW28057   4.202   8.090   1.242 -0.2319 -0.3196 -0.2464
 9160SOL    HW128058   4.291   8.115   1.268 -1.2960  2.8856  0.7770
 9160SOL    HW228059   4.157   8.073   1.325 -1.3500  1.3355 -0.4541
 9161SOL     OW28060   9.571   2.494   6.044  0.5033 -0.6194 -0.1926
 9161SOL    HW128061   9.623   2.532   6.115  0.4955 -1.4450  0.2613
 9161SOL    HW228062   9.558   2.567   5.983 -0.2385  0.3494  1.0593
 9162SOL     OW28063   4.874   9.983   7.371  0.5655  0.0117  0.0428
 9162SOL    HW128064   4.960   9.941   7.373  0.8603  0.6106  0.2309
 9162SOL    HW228065   4.822   9.935   7.435  1.0507  0.2488  0.6246
 9163SOL     OW28066   8.558   3.365   8.299 -0.1457  0.6238  0.1208
 9163SOL    HW128067   8.649   3.378   8.326  0.1333  0.8849 -0.8835
 9163SOL    HW228068   8.532   3.284   8.342  0.5214  0.6046  0.5143
 9164SOL     OW28069   6.003   6.925   5.411 -0.0038 -0.0613  0.0384
 9164SOL    HW128070   5.930   6.906   5.352 -0.9365 -1.0247  1.4560
 9164SOL    HW228071   6.040   7.006   5.377 -2.8202  1.4341  0.2592
 9165SOL     OW28072   7.452   5.837   2.161 -0.3715 -0.4319 -0.7258
 9165SOL    HW128073   7.391   5.897   2.118  0.4272 -0.5789 -2.1130
 9165SOL    HW228074   7.458   5.870   2.251  0.7604  2.2021 -1.6446
 9166SOL     OW28075   0.717   0.833   4.483  0.6576  0.1833 -0.3419
 9166SOL    HW128076   0.676   0.916   4.459 -0.6670 -0.4257 -0.2327
 9166SOL    HW228077   0.752   0.799   4.401 -2.0051 -0.8809 -1.1418
 9167SOL     OW28078   0.645   9.333   3.342  0.0966 -0.3297  0.3623
 9167SOL    HW128079   0.642   9.275   3.418 -2.2825  0.2646  0.7785
 9167SOL    HW228080   0.600   9.284   3.273 -0.7071  0.4370  0.3225
 9168SOL     OW28081   6.145   3.923   6.911  0.0803 -0.0144  0.2331
 9168SOL    HW128082   6.238   3.943   6.904 -0.2448  1.1961 -1.1652
 9168SOL    HW228083   6.110   3.992   6.968 -0.2222  0.5204 -0.5840
 9169SOL     OW28084   0.506   7.115   5.497 -0.3483 -0.1852  0.2506
 9169SOL    HW128085   0.522   7.209   5.499  0.9591 -0.3266 -1.1871
 9169SOL    HW228086   0.445   7.099   5.568 -0.5808  1.7443  0.5341
 9170SOL     OW28087   2.261   1.057   6.164  0.3260 -0.2472  0.2763
 9170SOL    HW128088   2.297   1.131   6.213  4.2324 -0.9120 -1.2225
 9170SOL    HW228089   2.257   1.086   6.074 -0.4811 -1.1131  0.0116
 9171SOL     OW28090   1.337   9.863   5.380  0.0177 -0.2857  0.1088
 9171SOL    HW128091   1.244   9.862   5.361  0.0830  0.5803 -0.3136
 9171SOL    HW228092   1.377   9.900   5.301  0.6044  0.4377  0.7344
 9172SOL     OW28093   6.146   9.814   8.613 -0.2108 -0.3587  0.1497
 9172SOL    HW128094   6.197   9.831   8.692  0.9314 -0.6636 -0.5008
 9172SOL    HW228095   6.133   9.900   8.574  0.4362 -0.3478 -0.0506
 9173SOL     OW28096   5.363   6.123   6.743 -0.9161 -0.1657  0.4083
 9173SOL    HW128097   5.296   6.187   6.763  0.8481  2.2666 -0.9740
 9173SOL    HW228098   5.315   6.041   6.730 -3.1709  0.6066  3.0033
 9174SOL     OW28099   6.137   1.671   8.329 -0.3928 -0.3280  0.0329
 9174SOL    HW128100   6.143   1.650   8.235 -0.1885  0.6197 -0.1740
 9174SOL    HW228101   6.067   1.735   8.334 -1.6756 -1.7218  0.7902
 9175SOL     OW28102   4.208   4.191   0.897  0.4367  0.3346 -0.1469
 9175SOL    HW128103   4.239   4.113   0.943  0.6222 -0.0786 -0.9538
 9175SOL    HW228104   4.218   4.170   0.804  0.6162  1.3730 -0.3761
 9176SOL     OW28105   6.740   9.643   1.128 -0.0771 -0.2513 -0.0584
 9176SOL    HW128106   6.648   9.639   1.154  0.3318 -2.2143  1.3343
 9176SOL    HW228107   6.742   9.706   1.056 -2.3620  0.4437  0.4071
 9177SOL     OW28108   8.969   8.719   6.926 -0.3717 -0.3937 -0.3047
 9177SOL    HW128109   9.020   8.674   6.858 -0.0390 -0.5145  0.0161
 9177SOL    HW228110   8.908   8.652   6.958  0.0547 -0.5961  0.1016
 9178SOL     OW28111   3.358   4.443   3.165 -0.4246 -0.0620 -0.6171
 9178SOL    HW128112   3.419   4.414   3.233 -1.4358 -1.9115 -0.4112
 9178SOL    HW228113   3.275   4.404   3.190 -1.7191  2.3134 -0.9500
 9179SOL     OW28114   8.939   6.525   4.148 -0.3234  0.0931 -0.1470
 9179SOL    HW128115   8.881   6.574   4.089  0.2500  0.5879 -0.3110
 9179SOL    HW228116   8.964   6.588   4.215 -0.7817 -0.4042  0.5011
 9180SOL     OW28117   4.101   2.288   6.160 -0.1565  0.1735  0.0432
 9180SOL    HW128118   4.112   2.383   6.154  0.6309  0.1152  0.4834
 9180SOL    HW228119   4.124   2.256   6.073 -3.2561  0.6131 -1.0497
 9181SOL     OW28120   8.636   6.804   0.666 -0.1607  0.4814  0.1309
 9181SOL    HW128121   8.615   6.804   0.573 -0.3043  0.1673  0.1627
 9181SOL    HW228122   8.638   6.897   0.690  1.3472  0.6594 -0.5152
 9182SOL     OW28123   7.361   9.524   3.356  0.3204 -0.3350  0.1556
 9182SOL    HW128124   7.272   9.496   3.334  0.3200  0.9987 -1.8616
 9182SOL    HW228125   7.360   9.619   3.342  2.4591 -0.4936 -1.7277
 9183SOL     OW28126   8.782   1.582   5.756  0.5331  0.2062 -0.7569
 9183SOL    HW128127   8.835   1.527   5.814  0.2327 -0.5449 -1.1889
 9183SOL    HW228128   8.816   1.564   5.669 -0.2837 -0.1161 -1.0172
 9184SOL     OW28129   8.095   9.413   9.574  0.4426  0.3923 -0.0943
 9184SOL    HW128130   8.137   9.452   9.651 -0.0831  0.9475 -0.0806
 9184SOL    HW228131   8.009   9.386   9.604  0.5373 -0.1360 -0.2899
 9185SOL     OW28132   1.854   7.389   0.708  0.2596  0.1164 -0.3539
 9185SOL    HW128133   1.832   7.456   0.772  1.6366  1.6415 -1.3637
 9185SOL    HW228134   1.805   7.413   0.630 -1.1399 -1.5230 -0.0286
 9186SOL     OW28135   3.957   5.771   9.554  0.1342  0.7699  0.2711
 9186SOL    HW128136   4.052   5.783   9.549  0.0394  1.2176 -0.5065
 9186SOL    HW228137   3.946   5.682   9.589  0.8318  1.0798  1.3089
 9187SOL     OW28138   8.769   7.818   6.048  0.2313 -0.4764  0.8115
 9187SOL    HW128139   8.793   7.793   6.138  1.2155 -1.3861  0.3228
 9187SOL    HW228140   8.743   7.735   6.007 -2.1231  0.2012  0.7757
 9188SOL     OW28141   2.634   1.611   8.743 -0.5995 -0.4786 -0.2350
 9188SOL    HW128142   2.643   1.527   8.698 -2.6406 -0.5727 -0.6005
 9188SOL    HW228143   2.539   1.622   8.753 -0.4297  1.9771 -0.5843
 9189SOL     OW28144   9.203   8.516   4.629  0.6554 -0.2104  0.0642
 9189SOL    HW128145   9.255   8.559   4.697 -1.0903 -0.3713  1.5626
 9189SOL    HW228146   9.183   8.586   4.567  0.4895  0.4493  0.8391
 9190SOL     OW28147   5.412   1.412   4.151  0.1248 -0.9082  0.1778
 9190SOL    HW128148   5.341   1.419   4.087  0.1407  1.7937  0.3460
 9190SOL    HW228149   5.488   1.384   4.101 -0.3500 -0.8808 -0.5742
 9191SOL     OW28150   3.662   2.386   7.232  0.2695  0.4052 -0.2395
 9191SOL    HW128151   3.638   2.415   7.320 -1.2353  2.0971 -1.1276
 9191SOL    HW228152   3.755   2.365   7.238 -0.3085 -2.0038  2.3246
 9192SOL     OW28153   2.096   7.638   4.139  0.0378 -0.0334 -0.3089
 9192SOL    HW128154   2.191   7.627   4.141 -0.0504 -0.7816  0.6113
 9192SOL    HW228155   2.067   7.578   4.071  0.0109 -1.9308  1.2863
 9193SOL     OW28156   7.497   1.861   4.991  0.1298  0.2554  0.1752
 9193SOL    HW128157   7.500   1.946   5.035  1.6090 -0.0271  0.7047
 9193SOL    HW228158   7.410   1.827   5.008 -0.3882  1.5438  0.1878
 9194SOL     OW28159   7.227   8.552   2.433  0.1814  0.8216  0.0027
 9194SOL    HW128160   7.197   8.643   2.434 -0.5682  0.5850  0.7765
 9194SOL    HW228161   7.210   8.523   2.343  2.3034  2.0015 -0.8651
 9195SOL     OW28162   3.520   0.072   4.284  0.1952  0.0385 -0.2643
 9195SOL    HW128163   3.550   0.037   4.368  0.1007  1.8136  0.5479
 9195SOL    HW228164   3.598   0.114   4.246  0.4246 -1.3640 -1.4419
 9196SOL     OW28165   2.302   6.786   7.033 -1.0527  0.1490 -0.0504
 9196SOL    HW128166   2.304   6.696   7.002 -0.7931 -0.8512  2.6751
 9196SOL    HW228167   2.225   6.791   7.090 -0.2163  1.2099  1.0399
 9197SOL     OW28168   8.107   1.769   9.343 -0.0044  0.2668  0.2652
 9197SOL    HW128169   8.118   1.674   9.338  1.2068  0.4327 -0.7509
 9197SOL    HW228170   8.165   1.796   9.413 -0.0135  0.3081  0.2566
 9198SOL     OW28171   0.662   9.403   1.951 -0.5708  0.1277 -0.1217
 9198SOL    HW128172   0.735   9.341   1.957 -1.3987 -0.9517 -0.7446
 9198SOL    HW228173   0.606   9.380   2.026 -0.3358  0.8750  0.2876
 9199SOL     OW28174   7.271   7.098   7.438 -0.0974  0.2629  0.0257
 9199SOL    HW128175   7.230   7.153   7.371 -0.0126  0.5430  0.1991
 9199SOL    HW228176   7.364   7.104   7.421  0.1181  2.2209  1.5513
 9200SOL     OW28177   2.605   3.003   1.858 -0.2802 -1.0474  0.2440
 9200SOL    HW128178   2.646   2.927   1.816 -1.1487 -1.3063 -0.1663
 9200SOL    HW228179   2.577   3.058   1.785 -1.4951 -1.3318  0.4808
 9201SOL     OW28180   3.924   7.283   5.641  0.2339 -0.0330 -0.1262
 9201SOL    HW128181   4.013   7.293   5.674  0.6020  0.2822 -1.1645
 9201SOL    HW228182   3.889   7.372   5.637  0.4158  0.0074 -1.1256
 9202SOL     OW28183   3.698   4.635   4.530  0.0884 -0.2609 -0.4872
 9202SOL    HW128184   3.673   4.674   4.614 -0.4135 -1.5046 -0.0272
 9202SOL    HW228185   3.791   4.616   4.539  0.2219  0.3827 -0.5267
 9203SOL     OW28186   5.490   5.545   1.669  0.4031 -0.1342 -0.2088
 9203SOL    HW128187   5.525   5.540   1.580 -0.3340 -0.7379 -0.4752
 9203SOL    HW228188   5.567   5.540   1.726  0.7058 -3.0079 -0.7265
 9204SOL     OW28189   0.218   5.136   0.354  0.5439  0.3975  0.0620
 9204SOL    HW128190   0.143   5.195   0.351  0.1770  0.0235  1.2788
 9204SOL    HW228191   0.233   5.111   0.263 -0.0941  1.3555 -0.3191
 9205SOL     OW28192   0.629   7.094   5.908 -0.0229  0.4431  0.4356
 9205SOL    HW128193   0.648   7.023   5.970  0.9277 -0.4117 -0.7905
 9205SOL    HW228194   0.649   7.057   5.823 -0.8148  1.7732 -0.3577
 9206SOL     OW28195   0.152   6.824   0.073 -0.0533 -0.6312 -0.5213
 9206SOL    HW128196   0.202   6.850   0.151  0.1205 -4.1745  0.7089
 9206SOL    HW228197   0.188   6.879   0.003  1.1762  1.2970  1.4918
 9207SOL     OW28198   1.393   6.817   2.765  0.2181 -0.1341  0.4803
 9207SOL    HW128199   1.338   6.812   2.686  0.3963 -2.4109  0.4145
 9207SOL    HW228200   1.481   6.797   2.733  0.2999 -1.0053  1.2106
 9208SOL     OW28201  -0.001   3.008   7.801 -0.6584 -0.5685 -0.0846
 9208SOL    HW128202   0.045   2.960   7.733 -2.5851 -0.5217 -1.4821
 9208SOL    HW228203   0.036   3.097   7.797  0.1845 -0.9065 -0.1091
 9209SOL     OW28204   1.231   8.536   7.414  0.4297 -0.0169 -0.1037
 9209SOL    HW128205   1.143   8.567   7.392  1.1499  0.5623 -2.4558
 9209SOL    HW228206   1.283   8.616   7.419  0.7092 -0.2724  2.2025
 9210SOL     OW28207   3.190   7.155   0.192  0.0409  0.0191 -0.4672
 9210SOL    HW128208   3.131   7.086   0.223  1.2095  0.0140  1.9638
 9210SOL    HW228209   3.146   7.191   0.115 -2.7237 -0.5281  0.7434
 9211SOL     OW28210   7.665   9.431   1.934 -0.6519  0.1982 -0.0234
 9211SOL    HW128211   7.691   9.501   1.874 -1.6390 -0.2206 -0.9667
 9211SOL    HW228212   7.694   9.462   2.020  0.5228  0.9446 -0.6596
 9212SOL     OW28213   9.178   8.476   4.317 -0.2396 -0.1468  0.4599
 9212SOL    HW128214   9.085   8.465   4.297 -0.2944 -0.4567  0.8641
 9212SOL    HW228215   9.198   8.404   4.377  0.0869  0.3597  0.9628
 9213SOL     OW28216   8.952   2.937   4.179 -0.7514 -0.0250  0.4551
 9213SOL    HW128217   9.004   3.002   4.227  0.0590  0.0603 -0.5094
 9213SOL    HW228218   8.992   2.853   4.202 -1.1575 -0.0980  0.9053
 9214SOL     OW28219   9.623   9.801   5.273  0.6476 -0.1606  0.1881
 9214SOL    HW128220   9.709   9.839   5.255  0.9058 -1.0440 -0.4959
 9214SOL    HW228221   9.561   9.865   5.237  0.8303  1.9657  3.2857
 9215SOL     OW28222   0.157   8.252   0.825 -0.5860  0.6893 -0.2049
 9215SOL    HW128223   0.125   8.221   0.740  0.5762  1.3166 -0.8909
 9215SOL    HW228224   0.247   8.279   0.808 -0.7084  1.8972  0.9767
 9216SOL     OW28225   9.730   3.037   7.711  0.1373 -0.4355 -0.6040
 9216SOL    HW128226   9.738   3.127   7.678 -0.5902  0.3744  1.3018
 9216SOL    HW228227   9.803   3.027   7.771 -0.5520 -0.6482  0.2066
 9217SOL     OW28228   5.857   3.334   6.128 -0.7096 -0.1047 -0.1830
 9217SOL    HW128229   5.946   3.367   6.140  0.4912 -2.3547 -2.0501
 9217SOL    HW228230   5.803   3.392   6.181  1.4787  3.0244 -1.0820
 9218SOL     OW28231   7.283   6.232   9.019 -0.0817  0.0235 -0.4129
 9218SOL    HW128232   7.217   6.172   8.984  0.8256 -1.7553  0.8209
 9218SOL    HW228233   7.232   6.301   9.061 -1.2718 -2.1363  1.9251
 9219SOL     OW28234   1.318   6.168   6.365  0.0877  0.6291  0.2833
 9219SOL    HW128235   1.411   6.167   6.343  0.2511  0.7502  0.9626
 9219SOL    HW228236   1.307   6.094   6.424 -0.7809 -1.0947 -1.8857
 9220SOL     OW28237   4.346   6.615   5.842  0.2170  0.0488 -0.4377
 9220SOL    HW128238   4.339   6.704   5.808  0.9245 -0.5353 -2.3096
 9220SOL    HW228239   4.272   6.605   5.901 -1.2980  1.1313 -2.0358
 9221SOL     OW28240   3.843   4.367   2.174  0.1698 -0.5949 -0.0905
 9221SOL    HW128241   3.829   4.273   2.162 -1.5222 -0.4144  0.1861
 9221SOL    HW228242   3.810   4.407   2.094  3.9338 -0.3551 -1.7334
 9222SOL     OW28243   3.814   7.753   6.203  0.2035  0.4659 -0.2434
 9222SOL    HW128244   3.894   7.719   6.244 -0.0882 -0.1456 -0.1649
 9222SOL    HW228245   3.744   7.699   6.240  0.0482 -1.0205 -2.4897
 9223SOL     OW28246   9.327   9.499   9.295  0.4036 -0.5390  0.2833
 9223SOL    HW128247   9.303   9.564   9.230  2.3425  0.0641  0.0957
 9223SOL    HW228248   9.278   9.523   9.373  0.2481  0.4800 -0.1172
 9224SOL     OW28249   6.351   7.182   2.255  0.0410 -0.0866 -0.2058
 9224SOL    HW128250   6.425   7.139   2.211 -0.3707  0.5141 -1.5471
 9224SOL    HW228251   6.293   7.207   2.183 -1.8016 -1.1340  0.8513
 9225SOL     OW28252   1.425   4.005   7.816  0.3612  0.0211 -0.2148
 9225SOL    HW128253   1.381   4.077   7.772  0.1055 -0.6743 -1.1247
 9225SOL    HW228254   1.397   3.926   7.769 -0.5046 -0.8496  1.6329
 9226SOL     OW28255   0.953   6.263   4.140 -0.5954  0.5288 -0.0837
 9226SOL    HW128256   1.000   6.311   4.208  0.1993  1.2085 -1.0849
 9226SOL    HW228257   0.994   6.290   4.058 -1.0833 -0.7826 -0.7973
 9227SOL     OW28258   6.638   0.593   5.485 -0.6182  0.1601  0.1235
 9227SOL    HW128259   6.685   0.641   5.417  0.6156 -1.0275  0.0992
 9227SOL    HW228260   6.599   0.518   5.439  0.6710 -0.9476  0.7783
 9228SOL     OW28261   4.956   8.717   7.294 -0.4055 -0.4717  0.0177
 9228SOL    HW128262   4.942   8.650   7.361 -3.6705 -0.1304 -0.1696
 9228SOL    HW228263   4.911   8.795   7.328  0.4756  0.6469 -1.2512
 9229SOL     OW28264   3.058   7.491   8.656  0.1246  0.1134 -0.3233
 9229SOL    HW128265   3.063   7.413   8.711  0.0403  1.1212  1.1715
 9229SOL    HW228266   3.142   7.492   8.609  1.1082  0.2957  1.3447
 9230SOL     OW28267   2.650   6.178   9.412  0.4576 -0.3232 -0.3445
 9230SOL    HW128268   2.684   6.247   9.354 -0.1542 -0.0093 -0.3369
 9230SOL    HW228269   2.555   6.180   9.398  0.4380 -1.2415 -0.4273
 9231SOL     OW28270   9.336   3.461   6.339 -0.3449 -0.5531 -0.2439
 9231SOL    HW128271   9.369   3.497   6.257  1.1170 -1.4380 -0.0793
 9231SOL    HW228272   9.378   3.514   6.407 -1.1780 -0.1352 -0.0316
 9232SOL     OW28273   5.083   0.471   3.668  0.1279 -0.0901  0.1488
 9232SOL    HW128274   5.157   0.528   3.650  0.2499 -0.4866 -0.6539
 9232SOL    HW228275   5.113   0.383   3.645 -0.5609 -0.2655 -0.1298
 9233SOL     OW28276   3.350   3.794   4.275 -0.1475  0.2758  0.1423
 9233SOL    HW128277   3.438   3.786   4.237 -0.4124 -1.7645 -0.1634
 9233SOL    HW228278   3.296   3.829   4.203  0.1506  0.3045 -0.0678
 9234SOL     OW28279   0.910   9.133   6.766 -0.5004 -0.1190 -0.3030
 9234SOL    HW128280   1.000   9.111   6.744  0.4648 -0.4278  3.2928
 9234SOL    HW228281   0.876   9.056   6.812 -1.1704  1.3548  1.8661
 9235SOL     OW28282   2.113   5.778   4.378  0.2561 -0.0972 -0.1701
 9235SOL    HW128283   2.031   5.747   4.417  0.8869 -1.3144  0.2507
 9235SOL    HW228284   2.122   5.868   4.410 -1.4858  0.4795 -1.1870
 9236SOL     OW28285   5.748   7.531   8.522 -0.0836  0.0965 -0.2368
 9236SOL    HW128286   5.747   7.502   8.613  0.6111 -1.3865 -0.6614
 9236SOL    HW228287   5.658   7.524   8.493  0.1734 -2.8647 -0.6268
 9237SOL     OW28288   5.151   4.202   8.784  0.8667 -0.6347  0.0097
 9237SOL    HW128289   5.184   4.171   8.700  0.4997 -0.2115 -0.2954
 9237SOL    HW228290   5.195   4.286   8.797 -2.8134  1.9230 -2.2651
 9238SOL     OW28291   9.352   1.928   1.874  0.1640  0.2281  0.2742
 9238SOL    HW128292   9.444   1.911   1.894  0.6470 -0.6876 -2.2954
 9238SOL    HW228293   9.351   2.018   1.843  0.2773  0.1429  0.0138
 9239SOL     OW28294   8.273   4.002   8.855  0.5358 -0.5239  0.2194
 9239SOL    HW128295   8.281   3.937   8.924 -1.6356 -2.6980 -1.4065
 9239SOL    HW228296   8.309   3.960   8.777 -1.5249 -0.1547 -1.0217
 9240SOL     OW28297   0.917   5.140   9.079 -0.3102 -0.1003  0.1250
 9240SOL    HW128298   0.859   5.064   9.075  1.8974 -2.0003  1.6915
 9240SOL    HW228299   1.005   5.103   9.079  0.9216  2.5743 -0.4577
 9241SOL     OW28300   7.981   2.373   2.753  0.2592 -0.5242 -0.1164
 9241SOL    HW128301   7.958   2.461   2.782  0.0471 -0.7005  0.2595
 9241SOL    HW228302   7.907   2.319   2.780 -0.6023 -0.4751 -2.1726
 9242SOL     OW28303   1.976   9.502   9.023  0.2565  0.3693  0.2038
 9242SOL    HW128304   2.030   9.574   9.057 -0.6015  2.2771 -2.1119
 9242SOL    HW228305   1.893   9.544   9.000  0.4505 -0.7730 -3.2419
 9243SOL     OW28306   9.522   3.479   1.343 -0.5967 -0.0427 -0.2477
 9243SOL    HW128307   9.590   3.499   1.407  0.7384 -0.6000 -1.4276
 9243SOL    HW228308   9.570   3.454   1.264 -2.1178  1.6742 -1.8512
 9244SOL     OW28309   1.683   8.786   1.496 -0.2906 -0.2034 -0.8105
 9244SOL    HW128310   1.639   8.726   1.436 -1.6249 -0.9514  0.8612
 9244SOL    HW228311   1.614   8.843   1.529 -0.1008 -1.4285  1.8996
 9245SOL     OW28312   5.207   5.296   5.182 -0.2654  0.4484 -0.0784
 9245SOL    HW128313   5.211   5.278   5.276  2.4206  0.6650 -0.0596
 9245SOL    HW228314   5.263   5.229   5.143 -1.9238 -0.0844 -1.6436
 9246SOL     OW28315   3.860   5.953   6.137  0.4861  0.5204  0.0159
 9246SOL    HW128316   3.913   5.938   6.216  1.3633  0.7677 -0.5090
 9246SOL    HW228317   3.782   5.899   6.150  2.2646 -2.4483 -0.5911
 9247SOL     OW28318   1.322   2.050   4.294 -0.3727 -0.4020  0.0340
 9247SOL    HW128319   1.318   2.026   4.387 -1.9916 -2.7502 -0.5652
 9247SOL    HW228320   1.276   2.134   4.289 -0.6358 -0.4527  1.2812
 9248SOL     OW28321   1.721   7.362   0.249  0.0775 -0.1542  0.5599
 9248SOL    HW128322   1.792   7.311   0.208  0.9164  0.8900  0.6908
 9248SOL    HW228323   1.652   7.298   0.262  0.1226 -0.7504 -1.6298
 9249SOL     OW28324   7.305   8.746   3.807  0.4647 -0.2227  0.2906
 9249SOL    HW128325   7.392   8.766   3.772  0.9287 -1.5291  0.6378
 9249SOL    HW228326   7.321   8.679   3.874 -0.9867 -2.0978 -1.1032
 9250SOL     OW28327   3.192   7.185   5.805 -0.1603  0.3083  0.5539
 9250SOL    HW128328   3.252   7.247   5.846 -1.7000  2.0223  0.3721
 9250SOL    HW228329   3.223   7.177   5.715 -0.4207  1.5145  0.3428
 9251SOL     OW28330   0.981   5.205   7.328 -0.1388 -0.2750 -0.0475
 9251SOL    HW128331   0.901   5.257   7.328 -0.5021 -0.7627  1.4859
 9251SOL    HW228332   1.047   5.261   7.288 -0.8423  0.8158  0.2912
 9252SOL     OW28333   8.078   9.792   5.500 -0.3394  0.3060 -0.2547
 9252SOL    HW128334   8.135   9.718   5.479  0.2337  0.6709 -0.0087
 9252SOL    HW228335   8.128   9.869   5.472  1.5029  1.0673  4.2203
 9253SOL     OW28336   6.860   9.121   0.078 -0.0740  0.1021  0.3798
 9253SOL    HW128337   6.894   9.106   0.166  1.6162 -1.2544 -0.4371
 9253SOL    HW228338   6.887   9.210   0.057  0.6398 -0.0074  0.7902
 9254SOL     OW28339   0.304   0.873   3.962 -0.3574 -0.7473 -0.1056
 9254SOL    HW128340   0.250   0.824   4.024  0.1660  1.1161  1.9261
 9254SOL    HW228341   0.243   0.934   3.921 -0.0474  0.7996  1.6028
 9255SOL     OW28342   8.845   6.709   8.760 -0.1953  0.1320 -0.3134
 9255SOL    HW128343   8.894   6.782   8.721 -0.9246  0.9125  0.1986
 9255SOL    HW228344   8.768   6.701   8.705 -1.6362  1.7605  1.3266
 9256SOL     OW28345   5.377   2.279   1.159 -0.2520 -0.5571  0.3374
 9256SOL    HW128346   5.286   2.255   1.174  0.1698 -1.9905  0.7525
 9256SOL    HW228347   5.401   2.331   1.235 -1.3497  1.8868 -0.8476
 9257SOL     OW28348   4.927   8.451   2.440  0.2218  0.4873  0.6334
 9257SOL    HW128349   4.916   8.545   2.433  0.2809  0.4817  0.4731
 9257SOL    HW228350   4.847   8.421   2.484 -1.1249  0.2796 -1.7659
 9258SOL     OW28351   6.905   9.210   6.676  0.4329  0.6022 -0.1544
 9258SOL    HW128352   6.821   9.217   6.721  0.6703  1.1531  0.2233
 9258SOL    HW228353   6.914   9.117   6.655 -0.6941  0.6809 -1.0558
 9259SOL     OW28354   0.267   4.103   3.952 -0.1568 -0.4043  0.1226
 9259SOL    HW128355   0.297   4.060   3.872 -0.8787 -1.0540  0.1837
 9259SOL    HW228356   0.180   4.137   3.930  0.1236  0.4331  0.2857
 9260SOL     OW28357   1.295   7.942   4.832  0.1015 -0.1912  0.3378
 9260SOL    HW128358   1.234   7.941   4.759  0.7896 -0.5532 -0.2486
 9260SOL    HW228359   1.283   8.027   4.873  1.6005  1.1891 -1.8637
 9261SOL     OW28360   3.621   3.892   6.142 -0.0120 -0.5988  0.4790
 9261SOL    HW128361   3.579   3.808   6.160  0.1163 -0.9748 -0.8685
 9261SOL    HW228362   3.673   3.877   6.063  0.4192  0.6113  0.5072
 9262SOL     OW28363   5.225   1.871   2.830 -0.0679  0.2364  0.4111
 9262SOL    HW128364   5.265   1.868   2.743  2.0440 -0.4527  1.3368
 9262SOL    HW228365   5.290   1.832   2.888 -1.1297  1.2866  2.4336
 9263SOL     OW28366   1.247   6.957   0.130  0.3288 -0.3544 -0.5905
 9263SOL    HW128367   1.316   6.902   0.092  2.2112 -0.1632  2.1695
 9263SOL    HW228368   1.274   7.046   0.111 -0.4292 -0.2999 -1.4506
 9264SOL     OW28369   8.464  -0.007   1.958 -0.0712 -0.1441 -0.0369
 9264SOL    HW128370   8.435   0.058   1.894  0.8679  0.5229  0.1792
 9264SOL    HW228371   8.553  -0.029   1.931 -0.0195 -0.5846  0.4750
 9265SOL     OW28372   4.633   6.742   7.077  0.6557  0.4932  0.1266
 9265SOL    HW128373   4.648   6.648   7.065 -0.3645  0.3780 -0.3779
 9265SOL    HW228374   4.663   6.782   6.995 -1.5292  0.2662 -0.8669
 9266SOL     OW28375   7.619   7.940   4.919 -0.2482  0.4112  0.2030
 9266SOL    HW128376   7.654   7.979   4.840 -4.0693  0.3695 -1.7523
 9266SOL    HW228377   7.620   7.846   4.902 -3.3165  0.4866 -1.0747
 9267SOL     OW28378   5.664   5.109   8.170 -0.1940 -0.3750  0.1669
 9267SOL    HW128379   5.704   5.195   8.185  2.2396 -0.8793 -2.4553
 9267SOL    HW228380   5.659   5.069   8.256  1.6258  1.2226  1.0861
 9268SOL     OW28381   3.047   8.997   8.635  0.1131 -0.2180  0.2806
 9268SOL    HW128382   3.027   8.971   8.725  1.8917 -0.1691  0.7294
 9268SOL    HW228383   3.140   8.975   8.624  0.9281  3.0486 -0.3498
 9269SOL     OW28384   1.006   9.904   9.485 -0.3423  0.1288 -0.0783
 9269SOL    HW128385   1.025   9.849   9.561 -0.9479  0.0565  0.0262
 9269SOL    HW228386   0.915   9.885   9.464 -0.1951  0.1827 -0.8020
 9270SOL     OW28387   1.445   7.544   7.947 -0.3045  0.7187  0.7346
 9270SOL    HW128388   1.457   7.597   7.868  0.5381  2.0807  1.7235
 9270SOL    HW228389   1.484   7.459   7.926 -1.8418  0.3935 -0.9497
 9271SOL     OW28390   1.053   2.949   2.255 -0.3760  0.2166  0.3286
 9271SOL    HW128391   1.085   2.984   2.172  0.2391 -1.5613 -0.2361
 9271SOL    HW228392   1.126   2.959   2.316 -0.4658  0.5680  0.3833
 9272SOL     OW28393   2.972   3.665   9.717 -0.1524 -0.2647  0.1679
 9272SOL    HW128394   2.889   3.624   9.696  0.3396 -0.8680 -0.6482
 9272SOL    HW228395   2.987   3.643   9.809 -1.8609  1.5959  0.9762
 9273SOL     OW28396   6.749   3.275   7.082 -0.4157  0.7489 -0.0369
 9273SOL    HW128397   6.800   3.292   7.002 -1.2534 -0.1065 -0.7756
 9273SOL    HW228398   6.734   3.362   7.119  0.8715  1.0817 -0.2325
 9274SOL     OW28399   6.503   0.793   9.991 -0.3255 -0.2528  0.2806
 9274SOL    HW128400   6.494   0.773   9.897 -0.2009  0.8497  0.0229
 9274SOL    HW228401   6.429   0.748  10.032  0.0276 -1.3614 -0.2427
 9275SOL     OW28402   7.048   7.936   2.473  0.0064 -0.9837 -0.0179
 9275SOL    HW128403   6.993   7.910   2.398 -1.0204 -2.6159  1.2275
 9275SOL    HW228404   6.994   7.999   2.521  0.3042 -0.6135 -0.1647
 9276SOL     OW28405   1.131   0.258   0.947 -0.7038 -0.2425 -0.3647
 9276SOL    HW128406   1.104   0.250   0.855  0.8726  1.1881 -0.9880
 9276SOL    HW228407   1.094   0.342   0.976 -0.6774 -0.3977  0.1332
 9277SOL     OW28408   4.623   6.102   7.179 -0.2469 -0.6042 -0.2633
 9277SOL    HW128409   4.707   6.076   7.214 -0.2902 -0.3801  0.0096
 9277SOL    HW228410   4.616   6.195   7.201 -0.3634 -0.5123 -0.6822
 9278SOL     OW28411   0.278   8.333   8.998  0.7720 -0.3403  0.1643
 9278SOL    HW128412   0.245   8.256   8.951  1.8211 -0.4369 -0.4311
 9278SOL    HW228413   0.245   8.407   8.947  0.9126 -0.4223 -0.0494
 9279SOL     OW28414   7.537   6.866   2.390 -0.1154  0.6294  0.5394
 9279SOL    HW128415   7.474   6.815   2.439  1.4253 -0.1854  1.7729
 9279SOL    HW228416   7.622   6.843   2.428  0.9226  1.8246 -0.9012
 9280SOL     OW28417   3.892   0.743   2.032 -0.1394  0.7511 -0.2768
 9280SOL    HW128418   3.912   0.667   1.977  0.2042 -0.5969  1.6378
 9280SOL    HW228419   3.798   0.740   2.045 -0.1224  0.6524 -0.1820
 9281SOL     OW28420   8.588   9.452   2.707 -0.4441  0.5962 -0.3534
 9281SOL    HW128421   8.548   9.538   2.696 -0.9246  0.3988 -0.1627
 9281SOL    HW228422   8.641   9.440   2.628 -1.4300  0.5013 -1.0160
 9282SOL     OW28423   9.290   5.929   7.337 -0.4867  0.6461  0.2071
 9282SOL    HW128424   9.286   5.920   7.432 -0.2995 -1.2061  0.0632
 9282SOL    HW228425   9.350   6.002   7.322 -0.3066  0.7774  1.4954
 9283SOL     OW28426   6.949   2.158   0.099 -0.2891  0.4181  0.3166
 9283SOL    HW128427   6.906   2.073   0.105  0.1553  0.2283  0.9069
 9283SOL    HW228428   6.878   2.222   0.103 -0.7047  0.0657 -1.0307
 9284SOL     OW28429   2.509   5.325   2.325 -0.2464  0.1465 -0.0764
 9284SOL    HW128430   2.510   5.249   2.266 -0.4695 -0.6644  0.9158
 9284SOL    HW228431   2.477   5.289   2.408  0.2283  1.2111  0.5870
 9285SOL     OW28432   3.571   0.772   3.516 -0.1879 -0.3180 -0.0203
 9285SOL    HW128433   3.557   0.715   3.591 -2.7075  0.9582  0.5957
 9285SOL    HW228434   3.658   0.810   3.530 -0.0367 -1.1420  1.5035
 9286SOL     OW28435   2.420   6.084   5.831 -0.5251  0.4551 -0.0505
 9286SOL    HW128436   2.364   6.137   5.888  1.8566  2.1814  0.8499
 9286SOL    HW228437   2.474   6.032   5.891  0.1438  0.2354 -0.8106
 9287SOL     OW28438   2.428   5.960   2.235  0.0682 -0.3163  0.7542
 9287SOL    HW128439   2.377   5.960   2.154  0.8835  0.5145  0.2226
 9287SOL    HW228440   2.486   5.885   2.228  1.1642  0.5682 -0.1302
 9288SOL     OW28441   3.560   7.159   6.026 -0.3516 -0.2314 -0.9737
 9288SOL    HW128442   3.550   7.074   5.983  0.2692 -0.6117 -0.3804
 9288SOL    HW228443   3.586   7.137   6.116 -1.3302  0.5522 -0.4795
 9289SOL     OW28444   1.139   9.759   6.550  0.3331  0.4369 -0.3456
 9289SOL    HW128445   1.173   9.793   6.468 -1.5484 -0.2157 -1.4766
 9289SOL    HW228446   1.051   9.728   6.528 -0.4564  0.7604  2.0434
 9290SOL     OW28447   6.321   7.651   4.968 -0.1019  0.8296  0.1911
 9290SOL    HW128448   6.347   7.637   5.059 -0.3619  1.3418  0.3491
 9290SOL    HW228449   6.394   7.700   4.930  1.0402 -1.2956 -0.4984
 9291SOL     OW28450   7.751   7.793   5.691 -0.6218 -0.3083  0.2440
 9291SOL    HW128451   7.739   7.863   5.754 -1.1534 -0.1997  0.0294
 9291SOL    HW228452   7.728   7.832   5.607  1.1894 -0.1086 -0.2078
 9292SOL     OW28453   7.321   3.905   1.491  0.0569 -0.2207  0.1100
 9292SOL    HW128454   7.269   3.984   1.507 -0.0759 -0.2286 -0.2697
 9292SOL    HW228455   7.290   3.873   1.407  2.0231  0.8377 -1.0859
 9293SOL     OW28456   3.739   3.756   0.592  0.4731 -0.0031 -0.4889
 9293SOL    HW128457   3.738   3.824   0.524  0.1332 -0.0444 -0.5285
 9293SOL    HW228458   3.816   3.776   0.645 -0.0056  0.8194 -0.0861
 9294SOL     OW28459   8.703   6.380   0.808 -0.4864  0.1965  0.2180
 9294SOL    HW128460   8.660   6.462   0.832 -0.0056  0.4317  0.2852
 9294SOL    HW228461   8.768   6.406   0.742  0.8074  0.1372  1.4184
 9295SOL     OW28462   6.026   4.248   7.592  0.2935 -0.1211 -0.1958
 9295SOL    HW128463   6.121   4.246   7.590  0.2723 -0.6685 -0.7344
 9295SOL    HW228464   6.002   4.311   7.524  0.2616 -0.1886 -0.2463
 9296SOL     OW28465   3.113   6.736   6.650  0.1833 -0.4050  0.6864
 9296SOL    HW128466   3.054   6.691   6.590  0.6050  1.4029 -1.2212
 9296SOL    HW228467   3.200   6.719   6.613  0.3370  1.9833 -0.1868
 9297SOL     OW28468   5.124   7.181   6.683 -0.0899  0.7044 -0.2878
 9297SOL    HW128469   5.183   7.111   6.656 -0.7306 -0.3725  1.0086
 9297SOL    HW228470   5.107   7.165   6.776 -0.0723  2.7208  0.1185
 9298SOL     OW28471   1.042   3.745   0.636  0.1303  0.4356  0.0818
 9298SOL    HW128472   0.953   3.754   0.671  0.1256 -0.6810  0.3917
 9298SOL    HW228473   1.030   3.699   0.553  0.3730  0.8014 -0.1560
 9299SOL     OW28474   8.594   3.185   8.516  0.0630  0.6082 -0.2493
 9299SOL    HW128475   8.680   3.144   8.522  0.9152  2.2742 -0.5193
 9299SOL    HW228476   8.593   3.250   8.587 -1.1025  0.3865 -0.0427
 9300SOL     OW28477   5.788   4.397   3.508 -0.0861  0.3150  0.2629
 9300SOL    HW128478   5.846   4.380   3.433 -1.3114  0.0254 -0.6568
 9300SOL    HW228479   5.797   4.491   3.525 -1.3687  0.8453 -1.6618
 9301SOL     OW28480   7.007   1.320   1.168 -0.5174  0.2967 -0.6427
 9301SOL    HW128481   7.083   1.308   1.225  0.8844 -1.3401 -2.7031
 9301SOL    HW228482   7.017   1.253   1.100 -3.1052  0.9161 -1.7608
 9302SOL     OW28483   5.552   7.329   3.493 -0.4833 -0.2040  0.1846
 9302SOL    HW128484   5.530   7.237   3.512 -0.4910 -0.3067 -0.3104
 9302SOL    HW228485   5.605   7.324   3.413 -0.6568  0.2429  0.0434
 9303SOL     OW28486   3.307   2.793   5.873 -0.5575 -0.5735 -0.2509
 9303SOL    HW128487   3.273   2.880   5.854  1.8524  0.6053  0.4305
 9303SOL    HW228488   3.312   2.790   5.969 -0.4710 -1.4353 -0.2700
 9304SOL     OW28489   1.785   9.987   3.442 -0.0542 -0.5545 -0.1574
 9304SOL    HW128490   1.692   9.967   3.430 -0.1564  0.2610 -0.8006
 9304SOL    HW228491   1.806   9.952   3.529 -0.4938 -2.4015 -0.7386
 9305SOL     OW28492   7.265   8.316   3.902  0.1766 -0.4326 -0.6821
 9305SOL    HW128493   7.323   8.385   3.933  1.3868 -2.5597  2.2174
 9305SOL    HW228494   7.323   8.254   3.857 -0.2054 -1.4801  0.2429
 9306SOL     OW28495   5.432   7.573   0.683 -0.4282  0.5302 -0.2509
 9306SOL    HW128496   5.484   7.609   0.755 -1.3915  1.0969  0.1891
 9306SOL    HW228497   5.475   7.491   0.661 -0.1862  0.2718  1.0803
 9307SOL     OW28498   5.478   8.446   7.580  0.3005  0.2900 -0.2196
 9307SOL    HW128499   5.475   8.470   7.673  1.6352 -0.6217  0.0905
 9307SOL    HW228500   5.521   8.361   7.579 -1.3649 -0.5936 -1.5443
 9308SOL     OW28501   7.999   1.830   1.540 -0.5217  0.1865  0.5964
 9308SOL    HW128502   7.912   1.845   1.577 -1.3070 -2.0868 -0.1909
 9308SOL    HW228503   8.031   1.752   1.585  1.0943  0.9223  0.7797
 9309SOL     OW28504   6.511   0.369   5.392  0.7927 -0.1248  0.5310
 9309SOL    HW128505   6.561   0.291   5.369  0.5028 -0.1043 -0.1974
 9309SOL    HW228506   6.433   0.336   5.436  0.7966 -0.2350  0.4566
 9310SOL     OW28507   4.081   0.962   9.487 -0.3366  0.2254 -0.3021
 9310SOL    HW128508   4.144   0.893   9.505 -0.5981  0.3660  1.3203
 9310SOL    HW228509   4.004   0.916   9.452 -0.3817 -0.2695  0.4404
 9311SOL     OW28510   5.216   0.490   7.802 -0.3479  0.7992 -0.1864
 9311SOL    HW128511   5.274   0.562   7.826 -1.2929  1.3863  0.3926
 9311SOL    HW228512   5.141   0.532   7.760 -0.0562 -0.0032 -1.5627
 9312SOL     OW28513   5.775   1.262   7.900 -0.3869 -0.1580  0.0921
 9312SOL    HW128514   5.782   1.326   7.971  0.0531 -0.2351  0.1265
 9312SOL    HW228515   5.822   1.303   7.827  1.6171 -1.2110  0.6900
 9313SOL     OW28516   7.724   6.811   3.529 -0.5602 -0.2845  0.6193
 9313SOL    HW128517   7.644   6.845   3.569 -1.0260 -0.9434  0.2576
 9313SOL    HW228518   7.760   6.886   3.481 -2.2158 -0.5799 -1.1723
 9314SOL     OW28519   0.063   9.771   6.094 -0.3041 -0.7058  0.0192
 9314SOL    HW128520   0.076   9.781   6.000  0.1295  1.4562  0.2580
 9314SOL    HW228521   0.116   9.694   6.117  0.3186 -0.7265 -1.3482
 9315SOL     OW28522   9.212   2.062   2.604  0.2566 -0.1069  0.7005
 9315SOL    HW128523   9.170   1.990   2.556 -3.5114  0.5137  2.6650
 9315SOL    HW228524   9.291   2.023   2.640 -0.1365 -2.4005 -0.7162
 9316SOL     OW28525   6.948   1.785   5.727 -0.1377 -0.3494 -0.2588
 9316SOL    HW128526   6.893   1.836   5.786  0.6375 -1.0033  1.0510
 9316SOL    HW228527   6.887   1.752   5.661 -1.0842  0.0784  0.3804
 9317SOL     OW28528   8.444   9.222   2.706 -0.3129  0.5071 -0.5035
 9317SOL    HW128529   8.482   9.304   2.738  1.4936 -0.6321  0.4496
 9317SOL    HW228530   8.361   9.247   2.668  0.0562  2.7434  0.0439
 9318SOL     OW28531   0.543   7.078   2.815 -0.6187 -0.2925 -0.1965
 9318SOL    HW128532   0.509   7.069   2.725 -0.7945  0.5326 -0.2195
 9318SOL    HW228533   0.637   7.090   2.804 -0.8325  1.3833 -0.3794
 9319SOL     OW28534   9.704   0.291   8.587  0.4571  0.3367 -0.3356
 9319SOL    HW128535   9.765   0.256   8.522  0.2342  1.9667 -1.4889
 9319SOL    HW228536   9.759   0.341   8.648  0.2567  3.0640 -2.2168
 9320SOL     OW28537   3.974   8.730   2.113  0.3263 -0.0513 -0.1464
 9320SOL    HW128538   3.880   8.710   2.108  0.2551 -0.8065  2.4834
 9320SOL    HW228539   4.015   8.667   2.054 -0.7152 -0.9013 -0.0076
 9321SOL     OW28540   9.575   9.243   1.678 -0.0541  0.3661 -0.4909
 9321SOL    HW128541   9.507   9.288   1.628 -2.2242 -2.1498 -0.0580
 9321SOL    HW228542   9.568   9.280   1.766 -0.0424  0.9580 -0.7349
 9322SOL     OW28543   0.979   8.766   5.383  0.1581 -0.4713 -0.2924
 9322SOL    HW128544   0.994   8.837   5.320 -0.6924  0.0124  0.0295
 9322SOL    HW228545   1.006   8.687   5.336  0.5650 -0.0054 -0.8705
 9323SOL     OW28546   4.572   6.887   3.730 -0.2051 -0.1151 -0.3364
 9323SOL    HW128547   4.488   6.877   3.685 -0.2968  0.5555 -0.3250
 9323SOL    HW228548   4.637   6.863   3.663 -0.3458  0.7941 -0.8214
 9324SOL     OW28549   1.811   6.814   7.601 -0.4395 -0.2048 -0.1746
 9324SOL    HW128550   1.839   6.903   7.623 -2.0035  0.0589  0.9429
 9324SOL    HW228551   1.809   6.813   7.506  0.6181  0.6039 -0.2321
 9325SOL     OW28552   1.224   9.608   6.791  0.0963  0.7277  0.9857
 9325SOL    HW128553   1.214   9.694   6.834 -1.2933  0.8884  0.3894
 9325SOL    HW228554   1.227   9.629   6.698 -2.9582  0.0078  0.6242
 9326SOL     OW28555   1.958   7.780   3.018  0.4889 -0.2072 -0.0762
 9326SOL    HW128556   1.988   7.693   3.046  1.3102  0.6464  1.8776
 9326SOL    HW228557   1.892   7.805   3.084 -0.3555  0.3328 -1.0902
 9327SOL     OW28558   2.309   8.127   3.521  0.5660 -0.1116  0.1827
 9327SOL    HW128559   2.247   8.056   3.541  1.1617 -1.0658 -1.2088
 9327SOL    HW228560   2.293   8.192   3.590 -2.6565  0.1275 -0.6166
 9328SOL     OW28561   6.318   3.939   3.490 -0.5362  1.1068 -0.2894
 9328SOL    HW128562   6.336   3.883   3.565  0.8767  1.0037 -0.6744
 9328SOL    HW228563   6.287   3.879   3.422  0.0542  0.9191 -0.3978
 9329SOL     OW28564   1.427   9.410   9.674 -0.1552 -0.1717 -0.9928
 9329SOL    HW128565   1.346   9.360   9.665 -0.8308  0.8441 -0.7526
 9329SOL    HW228566   1.451   9.402   9.766  0.3691 -0.9827 -1.1911
 9330SOL     OW28567   4.795   8.265   7.208  0.3202 -0.3317 -0.1658
 9330SOL    HW128568   4.829   8.290   7.121 -0.5330 -0.4555 -0.5441
 9330SOL    HW228569   4.865   8.290   7.268 -0.3458  2.8068 -0.5188
 9331SOL     OW28570   4.325   3.911   6.336 -0.0393  1.0014 -0.3895
 9331SOL    HW128571   4.249   3.868   6.376 -0.4389  3.5985  2.0142
 9331SOL    HW228572   4.292   3.997   6.311  2.2716  2.6924  1.8772
 9332SOL     OW28573   4.164   9.693   8.523 -0.2167 -0.2184  0.2356
 9332SOL    HW128574   4.098   9.636   8.484  0.5125 -1.3337  0.5842
 9332SOL    HW228575   4.114   9.753   8.578 -1.0785  0.1079 -0.8708
 9333SOL     OW28576   7.226   1.424   7.207  0.0866 -0.7309 -0.0635
 9333SOL    HW128577   7.262   1.356   7.263  0.3553 -0.9581 -0.5021
 9333SOL    HW228578   7.132   1.407   7.205  0.0872 -0.7692  0.2507
 9334SOL     OW28579   5.448   9.467   7.266  0.0593  0.0407 -0.4323
 9334SOL    HW128580   5.466   9.402   7.198  1.7453 -2.4220  2.1713
 9334SOL    HW228581   5.356   9.453   7.288  0.4960 -1.8174  0.3537
 9335SOL     OW28582   9.402   5.471   4.887  0.5950  0.2693  0.2626
 9335SOL    HW128583   9.443   5.408   4.946 -1.6665 -0.6212  0.9836
 9335SOL    HW228584   9.417   5.435   4.799  1.4445  0.0476  0.4879
 9336SOL     OW28585   1.816   9.713   7.957 -0.7044  0.4039  0.0472
 9336SOL    HW128586   1.847   9.647   7.895  0.0621  0.3794  0.4481
 9336SOL    HW228587   1.771   9.778   7.902  0.2823  0.5692 -0.5770
 9337SOL     OW28588   9.563   8.273   1.449 -0.2803 -0.0543  0.3083
 9337SOL    HW128589   9.512   8.307   1.522  0.6449 -0.2265  1.0617
 9337SOL    HW228590   9.535   8.182   1.440 -0.5772  0.0399  0.2874
 9338SOL     OW28591   3.012   6.799   9.587 -0.2045 -0.2442 -0.6605
 9338SOL    HW128592   2.937   6.763   9.539 -0.4806 -0.0435 -0.3863
 9338SOL    HW228593   2.974   6.832   9.669 -0.0259  0.9731 -1.0435
 9339SOL     OW28594   8.310   1.069   2.108  0.1087 -0.3344  0.6977
 9339SOL    HW128595   8.350   1.007   2.169 -1.4752 -1.0263  1.1076
 9339SOL    HW228596   8.275   1.139   2.164 -2.4392 -1.5755  0.8371
 9340SOL     OW28597   2.241   5.237   4.440  0.0471 -0.6028  0.5871
 9340SOL    HW128598   2.185   5.311   4.464  0.3351 -0.5258  1.0571
 9340SOL    HW228599   2.329   5.264   4.468  0.1509 -1.1309  0.7864
 9341SOL     OW28600   4.414   9.220   9.484 -0.8157 -0.5184  0.3869
 9341SOL    HW128601   4.384   9.138   9.445 -1.2290 -0.0290 -0.3541
 9341SOL    HW228602   4.350   9.240   9.552 -0.2495 -1.2290  1.1538
 9342SOL     OW28603   2.018   5.554   5.478  0.2970  0.0147  0.2601
 9342SOL    HW128604   2.063   5.631   5.513 -0.3914  0.3738  0.3589
 9342SOL    HW228605   1.966   5.520   5.550 -0.6028  0.3654 -0.2090
 9343SOL     OW28606   6.363   3.313   5.104  0.2763  0.2981 -0.2102
 9343SOL    HW128607   6.301   3.376   5.069  0.8356 -0.6740 -3.1832
 9343SOL    HW228608   6.446   3.333   5.061  0.8600 -1.3998  0.0201
 9344SOL     OW28609   3.972   8.634   4.340  0.2526 -0.8121 -0.2512
 9344SOL    HW128610   3.882   8.627   4.373  0.1610  0.5683 -0.1289
 9344SOL    HW228611   4.019   8.681   4.409  0.9314 -1.0011 -0.5783
 9345SOL     OW28612   2.171   0.275   8.250  0.0618  0.1227 -0.2173
 9345SOL    HW128613   2.170   0.353   8.305 -1.0062  0.3598 -0.5465
 9345SOL    HW228614   2.087   0.232   8.268 -1.1093  1.0960 -2.8457
 9346SOL     OW28615   5.846   4.197   4.528 -0.1829 -0.8224 -0.4191
 9346SOL    HW128616   5.859   4.155   4.443 -0.4817  1.1854 -1.5170
 9346SOL    HW228617   5.761   4.240   4.521 -0.0025 -0.2282  0.7342
 9347SOL     OW28618   3.734   4.241   4.884  0.0301  0.5129  0.0146
 9347SOL    HW128619   3.654   4.280   4.849  0.0470 -0.3644 -1.0521
 9347SOL    HW228620   3.789   4.227   4.807  0.6556 -0.1629  0.5699
 9348SOL     OW28621   1.627   0.969   1.079  0.3290 -0.1331 -0.1197
 9348SOL    HW128622   1.690   1.029   1.038  2.1556 -2.7533 -1.4605
 9348SOL    HW228623   1.644   0.976   1.173 -2.8236  4.8138  0.4216
 9349SOL     OW28624   0.813   3.224   6.528  0.4882 -0.3072 -0.1091
 9349SOL    HW128625   0.788   3.310   6.562 -1.8221 -1.1403  0.4673
 9349SOL    HW228626   0.854   3.180   6.603  0.1732 -0.2849  0.0786
 9350SOL     OW28627   8.852   1.698   0.393 -0.3277  0.2002  0.6550
 9350SOL    HW128628   8.929   1.723   0.443 -0.0785  2.7848 -0.8570
 9350SOL    HW228629   8.885   1.637   0.327  0.5215  1.3647 -0.0503
 9351SOL     OW28630   5.919   8.431   9.243 -0.1522  0.0029 -0.1797
 9351SOL    HW128631   5.942   8.489   9.316  1.6177 -2.0476  0.9818
 9351SOL    HW228632   5.904   8.346   9.283  1.4845 -1.3479 -2.2312
 9352SOL     OW28633   8.490   7.608   7.480  0.2607 -0.1741 -0.1769
 9352SOL    HW128634   8.577   7.639   7.503  0.0287  0.4686 -0.1676
 9352SOL    HW228635   8.451   7.582   7.564  0.1793  0.2069 -0.0983
 9353SOL     OW28636   6.508   1.525   3.115  0.1160  0.0677  0.2696
 9353SOL    HW128637   6.589   1.577   3.116  0.4907 -0.5133  0.8589
 9353SOL    HW228638   6.441   1.585   3.147  0.1667  0.7660 -0.8587
 9354SOL     OW28639   5.738   5.944   1.849 -0.3848 -0.3227 -0.5436
 9354SOL    HW128640   5.784   5.865   1.819 -0.3655 -0.6399  0.2967
 9354SOL    HW228641   5.646   5.928   1.827 -0.3192 -0.3886 -0.7709
 9355SOL     OW28642   3.629   2.653   4.555  0.3339 -0.4187 -0.4117
 9355SOL    HW128643   3.543   2.689   4.579  0.7999 -1.0703  2.6480
 9355SOL    HW228644   3.677   2.727   4.519 -0.6007  0.6313  0.4232
 9356SOL     OW28645   9.364   2.519   6.513 -0.1571 -0.2186  0.1422
 9356SOL    HW128646   9.322   2.465   6.447 -1.9664  2.0821 -0.7208
 9356SOL    HW228647   9.325   2.491   6.596 -2.5606  0.9571 -0.4993
 9357SOL     OW28648   8.144   4.984   9.055 -0.0465  0.6791  0.0681
 9357SOL    HW128649   8.104   4.930   9.123  0.5492 -0.0761 -0.1637
 9357SOL    HW228650   8.070   5.022   9.008 -0.4698  1.1646  1.0886
 9358SOL     OW28651   1.701   5.385   4.560 -0.5060  0.3178  0.1118
 9358SOL    HW128652   1.688   5.449   4.629  1.4382  0.6725  0.1941
 9358SOL    HW228653   1.795   5.368   4.560 -0.8449 -1.8528 -0.5295
 9359SOL     OW28654   4.983   0.137   1.504 -0.2072 -0.1509 -0.7617
 9359SOL    HW128655   4.978   0.168   1.413 -0.2909 -1.2122 -1.1368
 9359SOL    HW228656   5.073   0.106   1.513 -0.7731 -2.0826 -1.2050
 9360SOL     OW28657   9.507   5.831   4.810 -0.6925  0.0831 -0.5252
 9360SOL    HW128658   9.495   5.926   4.809 -1.6588 -0.0243 -0.3306
 9360SOL    HW228659   9.462   5.801   4.889  2.6942 -0.2088  1.5093
 9361SOL     OW28660   4.682   2.724   6.471 -0.3453 -0.0016 -0.3032
 9361SOL    HW128661   4.737   2.730   6.549 -0.6291  0.2292 -0.1212
 9361SOL    HW228662   4.677   2.630   6.452 -1.8685 -0.2497  1.1001
 9362SOL     OW28663   9.917   4.807   0.197  0.2801  1.5146  0.7650
 9362SOL    HW128664   9.963   4.729   0.230 -0.9173  1.2139  1.7642
 9362SOL    HW228665   9.908   4.790   0.103  0.7682  0.8265  0.8315
 9363SOL     OW28666   5.849   1.381   4.093  0.6808  0.2843  0.0702
 9363SOL    HW128667   5.818   1.399   4.005 -0.6515 -0.7879  0.2978
 9363SOL    HW228668   5.933   1.336   4.080  0.9910  1.0255 -0.6018
 9364SOL     OW28669   8.047   4.423   8.227  0.0836  0.8116 -0.2383
 9364SOL    HW128670   8.021   4.331   8.224 -0.8836  1.1060 -1.3711
 9364SOL    HW228671   8.062   4.440   8.320  0.7177 -0.6009 -0.0565
 9365SOL     OW28672   0.064   5.902   3.397 -0.5912  0.4111  0.1521
 9365SOL    HW128673   0.138   5.962   3.410  0.0671 -0.3278 -0.0760
 9365SOL    HW228674   0.105   5.821   3.366 -1.3731 -0.4185  1.2182
 9366SOL     OW28675   6.035   0.583   8.132 -0.2244 -0.2106 -0.0224
 9366SOL    HW128676   5.983   0.572   8.052 -2.3969  1.2375  1.0862
 9366SOL    HW228677   6.039   0.678   8.145  1.1370 -0.3714  0.9686
 9367SOL     OW28678   3.623   8.711   6.167  0.2096 -0.2968 -0.6919
 9367SOL    HW128679   3.688   8.773   6.132  2.0371 -1.8896 -0.2632
 9367SOL    HW228680   3.641   8.708   6.261  0.4696 -1.8083 -0.7765
 9368SOL     OW28681   3.518   3.724   8.570  0.5475  0.5343  0.2438
 9368SOL    HW128682   3.469   3.696   8.647  1.7214 -3.1317 -0.1411
 9368SOL    HW228683   3.453   3.765   8.514 -1.1344 -0.1469  1.5934
 9369SOL     OW28684   9.864   3.334   2.115 -0.1151  0.3900  0.2243
 9369SOL    HW128685   9.773   3.345   2.085 -0.4892  0.7099  1.4222
 9369SOL    HW228686   9.905   3.419   2.097  0.2224 -0.0464 -1.1706
 9370SOL     OW28687   9.820   6.917   2.297 -0.3774  0.1156  0.4838
 9370SOL    HW128688   9.726   6.899   2.302 -0.6193  1.4687  1.0010
 9370SOL    HW228689   9.837   6.934   2.205 -0.4388 -1.1014  0.2328
 9371SOL     OW28690   5.639   9.871   4.560 -0.2815  0.4035  0.0907
 9371SOL    HW128691   5.656   9.920   4.640  1.4016  1.2007 -0.7027
 9371SOL    HW228692   5.680   9.923   4.490  2.1555 -2.3317 -0.7256
 9372SOL     OW28693   4.993   9.058   8.302  0.3973  0.3037 -0.6811
 9372SOL    HW128694   4.995   9.028   8.211  0.3105  1.6245 -1.1291
 9372SOL    HW228695   4.970   8.979   8.352 -1.5934 -0.0346 -1.9870
 9373SOL     OW28696   1.323   3.599   7.629  0.2017  0.1118  0.0879
 9373SOL    HW128697   1.315   3.571   7.720  0.2625  0.8157  0.3158
 9373SOL    HW228698   1.337   3.694   7.634  0.2100  0.1564 -0.6526
 9374SOL     OW28699   0.624   8.329   5.066 -0.2326 -0.1133  0.7962
 9374SOL    HW128700   0.680   8.320   5.143  0.8471 -0.1233  0.0340
 9374SOL    HW228701   0.621   8.423   5.050 -0.1796 -0.1347  0.6598
 9375SOL     OW28702   2.263   9.633   2.613  0.0874  0.0589  0.0322
 9375SOL    HW128703   2.313   9.631   2.531 -0.0917  3.0625 -0.2735
 9375SOL    HW228704   2.329   9.621   2.681  0.4822 -0.8141 -0.4887
 9376SOL     OW28705   4.430   7.991   8.737 -0.0970 -0.4756 -0.5611
 9376SOL    HW128706   4.453   8.050   8.809 -1.6091 -0.9478  0.3585
 9376SOL    HW228707   4.335   7.995   8.732 -0.0224 -0.4970 -2.5348
 9377SOL     OW28708   6.835   0.231   9.591  0.3007  0.1944 -0.2881
 9377SOL    HW128709   6.744   0.253   9.612  0.4878  0.7033  0.0138
 9377SOL    HW228710   6.873   0.313   9.559  1.1593  0.5104  1.3764
 9378SOL     OW28711   0.829   8.582   6.417  0.3972  0.9259  0.0916
 9378SOL    HW128712   0.837   8.564   6.323  1.3121  0.4329  0.2528
 9378SOL    HW228713   0.735   8.591   6.432  0.0791 -0.8805 -0.5400
 9379SOL     OW28714   0.748   1.486   2.394 -0.1469 -0.3682  0.1962
 9379SOL    HW128715   0.720   1.493   2.485 -1.8268  0.5943 -0.3495
 9379SOL    HW228716   0.735   1.574   2.358 -2.2799 -1.3722 -1.6882
 9380SOL     OW28717   5.435   2.592   4.650 -0.0590 -0.2333 -0.3313
 9380SOL    HW128718   5.513   2.646   4.665 -0.3307 -0.3892  2.0240
 9380SOL    HW228719   5.373   2.651   4.606  0.3151  0.8350  0.5185
 9381SOL     OW28720   4.332   0.811   6.369 -0.0780  0.0935  0.2091
 9381SOL    HW128721   4.305   0.893   6.411 -0.3177 -0.3279  0.8857
 9381SOL    HW228722   4.279   0.744   6.410  2.4905 -0.8881  2.1885
 9382SOL     OW28723   4.276   4.829   4.402 -0.2227 -0.5499 -0.4727
 9382SOL    HW128724   4.339   4.900   4.384 -0.8137 -0.2060 -1.2473
 9382SOL    HW228725   4.312   4.785   4.479 -0.1020  0.9034  0.3469
 9383SOL     OW28726   8.076   2.180   3.511  0.1572 -0.6941 -0.3835
 9383SOL    HW128727   8.152   2.223   3.470  0.6096 -0.1933  0.9478
 9383SOL    HW228728   8.006   2.191   3.447  1.6580 -2.9758 -2.6305
 9384SOL     OW28729   8.205   9.797   2.860  0.5189  0.9981 -0.1279
 9384SOL    HW128730   8.164   9.883   2.873  3.5835  2.3199  1.5828
 9384SOL    HW228731   8.172   9.743   2.931  1.8437  2.1390  1.4131
 9385SOL     OW28732   8.498   1.973   5.366 -0.0833  0.0502 -0.1393
 9385SOL    HW128733   8.579   2.022   5.358 -1.5474  2.4768 -1.1172
 9385SOL    HW228734   8.499   1.939   5.456  2.2048 -0.4612 -0.3044
 9386SOL     OW28735   5.828   4.274   7.846  0.0526 -0.0415 -0.8728
 9386SOL    HW128736   5.806   4.192   7.891  0.1402 -1.3904 -3.1582
 9386SOL    HW228737   5.774   4.274   7.768 -1.2273  2.9965 -0.1167
 9387SOL     OW28738   6.736   5.928   3.923  0.1705  0.2202  0.1082
 9387SOL    HW128739   6.671   5.888   3.981  1.0308 -1.0310  0.2674
 9387SOL    HW228740   6.779   5.994   3.976  0.8180 -0.7844  0.8694
 9388SOL     OW28741   0.408   2.492   8.819 -0.6545  0.0309  0.4549
 9388SOL    HW128742   0.370   2.493   8.731  0.3359 -1.9752 -0.0608
 9388SOL    HW228743   0.496   2.527   8.808 -0.3561 -0.6758  0.5378
 9389SOL     OW28744   8.334   2.755  -0.001 -0.2610 -0.3836 -0.4831
 9389SOL    HW128745   8.271   2.687  -0.023 -2.2003  1.5039 -1.1890
 9389SOL    HW228746   8.328   2.763   0.094  0.3657 -1.5139 -0.3360
 9390SOL     OW28747   6.515   0.434   8.307 -0.2391  0.0491 -0.0654
 9390SOL    HW128748   6.525   0.519   8.265  2.0891  0.0749  0.4384
 9390SOL    HW228749   6.489   0.454   8.397 -0.4478  0.1909 -0.1569
 9391SOL     OW28750   9.849   2.416   8.021  0.6833  0.4688 -0.1319
 9391SOL    HW128751   9.787   2.419   8.094  2.1053 -1.7302  1.3207
 9391SOL    HW228752   9.929   2.381   8.061  1.3677 -1.3433 -2.8718
 9392SOL     OW28753   2.356   1.815   9.562  0.3107  0.4218 -0.6830
 9392SOL    HW128754   2.289   1.872   9.525 -0.0461 -0.3056 -1.1736
 9392SOL    HW228755   2.313   1.730   9.573  1.1788 -0.0931 -1.1315
 9393SOL     OW28756   9.003   7.430   3.972 -0.3480  0.3606  0.4897
 9393SOL    HW128757   8.973   7.340   3.957  0.8209 -0.1029  0.8005
 9393SOL    HW228758   9.032   7.431   4.063 -0.4452  1.0895  0.5219
 9394SOL     OW28759   2.147   8.494   5.122  0.1577  0.6599 -0.0672
 9394SOL    HW128760   2.120   8.426   5.184  1.4892  0.8902  0.8215
 9394SOL    HW228761   2.111   8.575   5.158  0.9509  0.7971  0.4658
 9395SOL     OW28762   9.296   9.756   1.686 -0.4334  0.1927 -0.2303
 9395SOL    HW128763   9.213   9.784   1.724  1.2203  2.2791  2.1894
 9395SOL    HW228764   9.327   9.832   1.637  0.7012  0.0109  0.1673
 9396SOL     OW28765   7.926   6.011   6.688 -0.3006  0.1527 -0.9289
 9396SOL    HW128766   7.921   6.100   6.654 -1.3752 -0.6181 -2.9992
 9396SOL    HW228767   7.861   5.962   6.637 -0.2702 -1.6604  0.6578
 9397SOL     OW28768   5.335   0.019   4.391  0.0452 -0.3097  0.3863
 9397SOL    HW128769   5.337   0.059   4.478  1.7842 -0.8135  0.6214
 9397SOL    HW228770   5.299   0.087   4.334  2.0082  1.2987  0.9469
 9398SOL     OW28771   8.177   4.805   8.018  0.0553  0.1295  0.0463
 9398SOL    HW128772   8.229   4.881   8.046 -2.0503  1.0890  1.6805
 9398SOL    HW228773   8.143   4.830   7.933 -0.3335  0.8915  0.4141
 9399SOL     OW28774   0.459   7.566   0.938  0.0814  0.1228  0.1605
 9399SOL    HW128775   0.365   7.551   0.934  0.2530 -1.6911  1.6875
 9399SOL    HW228776   0.474   7.610   1.021  0.7461 -1.4221  0.9015
 9400SOL     OW28777   6.860   8.859   4.085 -0.2530  0.2099  0.4130
 9400SOL    HW128778   6.830   8.856   4.175  0.1879 -0.7480  0.5433
 9400SOL    HW228779   6.933   8.921   4.086  0.7793 -0.9457  1.0702
 9401SOL     OW28780   3.647   5.994   8.876 -0.5255  0.2521 -0.0917
 9401SOL    HW128781   3.584   6.057   8.911 -0.9523  0.1358 -0.6342
 9401SOL    HW228782   3.672   5.941   8.952  0.5537  1.6446  0.5730
 9402SOL     OW28783   0.144   5.512   1.214 -0.0174 -0.1808  0.2435
 9402SOL    HW128784   0.177   5.564   1.287 -0.3128  0.0451  0.2160
 9402SOL    HW228785   0.139   5.423   1.248  3.0808 -0.7654 -0.4932
 9403SOL     OW28786   2.760   4.592   5.902  0.2911  0.5604 -0.3835
 9403SOL    HW128787   2.828   4.554   5.846  0.6266  1.0480 -0.3151
 9403SOL    HW228788   2.678   4.573   5.857  0.2893 -1.5750  0.3874
 9404SOL     OW28789   6.166   1.448   6.312 -0.6116 -0.2080 -0.2403
 9404SOL    HW128790   6.129   1.510   6.249 -0.1875  0.1643 -0.1248
 9404SOL    HW228791   6.238   1.406   6.265 -0.9839 -0.7213 -0.3658
 9405SOL     OW28792   1.150   5.516   6.397 -0.5638  0.3996 -0.3009
 9405SOL    HW128793   1.122   5.607   6.394 -0.0066  0.5732 -0.2490
 9405SOL    HW228794   1.110   5.481   6.476 -1.7305  0.2771 -0.9169
 9406SOL     OW28795   6.627   9.266   8.514  0.7135 -0.0123  0.0895
 9406SOL    HW128796   6.574   9.204   8.463 -0.0144  1.2672 -0.7708
 9406SOL    HW228797   6.718   9.239   8.498  0.5167  0.3278 -1.9304
 9407SOL     OW28798   2.176   8.582   8.715 -0.1358  0.3652  0.1544
 9407SOL    HW128799   2.222   8.637   8.778 -0.0164  1.8984 -1.2042
 9407SOL    HW228800   2.083   8.600   8.730 -0.2312 -0.8544  1.2359
 9408SOL     OW28801   5.916   6.573   3.365 -0.9648  0.4206  0.1536
 9408SOL    HW128802   5.874   6.501   3.318 -0.3322  0.5919 -0.6895
 9408SOL    HW228803   5.898   6.554   3.457 -1.1901 -0.5697 -0.0771
 9409SOL     OW28804   7.690   8.764   9.671 -0.1509 -0.3601 -0.4336
 9409SOL    HW128805   7.654   8.683   9.634 -1.3553 -0.8245  1.5912
 9409SOL    HW228806   7.769   8.735   9.718 -0.4934 -0.3577  0.1555
 9410SOL     OW28807   9.726   5.825   5.203  0.5294  0.3525 -0.3712
 9410SOL    HW128808   9.802   5.768   5.195 -0.3170 -0.5386 -2.9889
 9410SOL    HW228809   9.676   5.788   5.277  1.6785 -0.1733  0.1596
 9411SOL     OW28810   1.661   6.178   0.005  0.0359  0.0064  0.4117
 9411SOL    HW128811   1.637   6.091   0.037 -0.0927  0.0336  0.3926
 9411SOL    HW228812   1.577   6.223  -0.004  0.0972  0.1078  0.3506
 9412SOL     OW28813   5.943   6.016   2.612  0.1839 -0.0167  0.0863
 9412SOL    HW128814   6.002   5.960   2.663  1.4460  1.7285  0.6268
 9412SOL    HW228815   5.956   6.104   2.648 -1.2405  0.7579 -1.1790
 9413SOL     OW28816   5.232   5.464   5.744  0.1015 -0.3506 -0.1260
 9413SOL    HW128817   5.201   5.374   5.730 -0.6317 -0.3814  1.4285
 9413SOL    HW228818   5.323   5.454   5.772 -0.0428 -0.6382  0.2551
 9414SOL     OW28819   1.594   8.500   6.841  0.4964 -0.3207 -0.1380
 9414SOL    HW128820   1.557   8.554   6.772 -1.5655 -0.0274  1.1159
 9414SOL    HW228821   1.601   8.558   6.917 -0.7524 -1.4808  0.9252
 9415SOL     OW28822   7.424   8.658   1.377  0.1170  0.4141 -0.2777
 9415SOL    HW128823   7.425   8.584   1.316  1.0339 -0.9242  1.2974
 9415SOL    HW228824   7.514   8.690   1.378 -0.1543  1.2131 -0.5221
 9416SOL     OW28825   6.901   9.204   4.176 -0.0878 -0.0331  0.3927
 9416SOL    HW128826   6.919   9.213   4.082  1.0749 -0.9407  0.4942
 9416SOL    HW228827   6.889   9.293   4.207  0.4052  0.3509 -0.4667
 9417SOL     OW28828   0.646   7.416   4.571 -0.0556  0.1458  0.4496
 9417SOL    HW128829   0.590   7.476   4.621 -0.2989 -0.3753  0.8042
 9417SOL    HW228830   0.654   7.458   4.486 -1.8662 -0.2805  0.0265
 9418SOL     OW28831   9.129   0.983   2.460 -0.6906  0.0338  0.0362
 9418SOL    HW128832   9.194   0.952   2.522 -0.2830 -0.0660 -0.4347
 9418SOL    HW228833   9.045   0.954   2.496 -0.2979 -2.0899 -0.6296
 9419SOL     OW28834   3.542   4.646   9.636  0.0372  0.0300  0.2833
 9419SOL    HW128835   3.635   4.624   9.649  0.1481  1.2078  1.7589
 9419SOL    HW228836   3.496   4.596   9.703 -0.3661 -0.1940 -0.1502
 9420SOL     OW28837   7.566   2.509   6.917 -0.1832 -0.5917  0.2106
 9420SOL    HW128838   7.508   2.436   6.940 -1.4828 -0.1408 -1.4254
 9420SOL    HW228839   7.620   2.522   6.995 -1.5167 -1.7646  1.4007
 9421SOL     OW28840   8.615   8.511   9.044 -0.1425 -0.2536 -0.5712
 9421SOL    HW128841   8.620   8.488   8.951  2.0413 -1.2783 -0.2548
 9421SOL    HW228842   8.618   8.607   9.045  0.9038 -0.2541 -1.5416
 9422SOL     OW28843   8.878   3.122   7.879  0.0462  0.1522  0.1594
 9422SOL    HW128844   8.795   3.102   7.836  0.5973 -0.4309 -0.6559
 9422SOL    HW228845   8.944   3.081   7.823  1.1003  2.7097 -0.6194
 9423SOL     OW28846   8.020   3.804   1.074 -0.0739  0.1867  0.2404
 9423SOL    HW128847   8.022   3.737   1.143  1.4376 -1.5243 -1.3339
 9423SOL    HW228848   8.109   3.839   1.073 -0.0858  0.2041 -0.7903
 9424SOL     OW28849   6.730   4.887   7.458 -0.6218  0.0542  0.3743
 9424SOL    HW128850   6.644   4.845   7.461 -0.6212 -0.0095 -0.2676
 9424SOL    HW228851   6.724   4.960   7.519 -0.7903 -0.5789  1.1249
 9425SOL     OW28852   1.962   7.649   9.317 -0.7382 -0.1001  0.2001
 9425SOL    HW128853   2.029   7.600   9.269 -0.7416  0.6002 -0.5612
 9425SOL    HW228854   1.896   7.670   9.251 -0.7593  0.8696  0.5072
 9426SOL     OW28855   8.963   8.731   9.067 -0.1998 -0.1684 -0.4453
 9426SOL    HW128856   8.914   8.751   8.988 -1.9717 -1.5478  0.2424
 9426SOL    HW228857   8.939   8.800   9.128 -1.9317 -1.2146  0.1195
 9427SOL     OW28858   9.728   2.267   0.316  0.5449 -0.1813  1.3859
 9427SOL    HW128859   9.727   2.337   0.381 -0.2797  0.8423  0.3127
 9427SOL    HW228860   9.646   2.219   0.331  0.4163 -0.0245  1.1846
 9428SOL     OW28861   8.810   8.402   1.295 -0.0783 -0.0518  0.1150
 9428SOL    HW128862   8.800   8.497   1.303 -0.1141  0.0593 -1.1138
 9428SOL    HW228863   8.777   8.382   1.208 -3.4930 -1.6766  1.5949
 9429SOL     OW28864   0.711   1.155   0.560 -0.2866  0.0228 -0.6751
 9429SOL    HW128865   0.710   1.069   0.518 -2.5497 -0.2244 -0.2285
 9429SOL    HW228866   0.781   1.149   0.625  0.5490 -0.9594 -1.6279
 9430SOL     OW28867   0.245   8.616   8.443  0.5024  0.4309  0.0621
 9430SOL    HW128868   0.208   8.622   8.531 -0.2582 -0.2793 -0.1986
 9430SOL    HW228869   0.248   8.707   8.412 -0.8384  0.5233  0.1707
 9431SOL     OW28870   4.404   0.295   1.711  1.0218 -0.0592 -0.6230
 9431SOL    HW128871   4.335   0.347   1.669  1.3015  0.5976 -0.2852
 9431SOL    HW228872   4.362   0.255   1.787  0.6007 -0.9784 -1.3195
 9432SOL     OW28873   7.417   3.805   1.735  0.0551  0.2676 -0.2411
 9432SOL    HW128874   7.374   3.851   1.663 -0.8927 -1.2267 -0.6850
 9432SOL    HW228875   7.457   3.729   1.694  1.7938  0.7660  0.4327
 9433SOL     OW28876   8.414   4.896   7.527 -0.2064 -0.1657 -1.0501
 9433SOL    HW128877   8.404   4.991   7.533  1.9032  0.0719 -0.4539
 9433SOL    HW228878   8.324   4.863   7.526 -1.0293  1.6841  1.3166
 9434SOL     OW28879   0.268   2.664   3.217  0.1450  0.4972  0.3180
 9434SOL    HW128880   0.351   2.629   3.186  0.1307  0.0032  0.8153
 9434SOL    HW228881   0.279   2.674   3.311 -0.3821  0.3529  0.4013
 9435SOL     OW28882   6.042   0.344   8.792 -0.0502  0.2694  0.2272
 9435SOL    HW128883   6.116   0.317   8.846  0.1064 -1.2386 -0.6957
 9435SOL    HW228884   6.075   0.417   8.740  0.5719  0.0641  0.3325
 9436SOL     OW28885   6.300   6.503   6.474 -0.1072 -0.2976  0.1187
 9436SOL    HW128886   6.274   6.413   6.492 -0.6333 -0.2317 -0.2968
 9436SOL    HW228887   6.311   6.507   6.379  0.0321  0.0455  0.1450
 9437SOL     OW28888   7.501   8.381   3.261  0.6394 -0.7346  0.4258
 9437SOL    HW128889   7.475   8.289   3.262  0.5688 -0.7365 -0.7511
 9437SOL    HW228890   7.596   8.379   3.265  0.6461 -0.8571  0.1581
 9438SOL     OW28891   7.533   2.888   2.210  0.1969 -0.0454  0.2188
 9438SOL    HW128892   7.569   2.972   2.181  0.7348 -0.9904 -2.0437
 9438SOL    HW228893   7.486   2.854   2.134 -0.2964 -1.6617  1.1956
 9439SOL     OW28894   4.540   4.718   3.483 -0.4551  0.0532  0.2089
 9439SOL    HW128895   4.533   4.689   3.574 -0.6165 -0.6174 -0.0117
 9439SOL    HW228896   4.513   4.642   3.431 -0.3161  0.4123 -0.4031
 9440SOL     OW28897   3.449   2.379   9.843 -0.7245 -0.3038  0.2537
 9440SOL    HW128898   3.423   2.437   9.772 -0.6753  1.7597  1.8297
 9440SOL    HW228899   3.366   2.346   9.879 -0.8586  0.4331  0.6356
 9441SOL     OW28900   5.942   7.125   2.023 -0.1661 -0.4174 -0.1100
 9441SOL    HW128901   5.888   7.098   1.948 -1.6668  1.2670  0.3105
 9441SOL    HW228902   5.879   7.149   2.090  1.1147  1.2894  0.5365
 9442SOL     OW28903   5.309   9.257   6.025 -0.2659 -0.5829  0.1462
 9442SOL    HW128904   5.261   9.182   6.058  0.5210 -1.0330  0.3000
 9442SOL    HW228905   5.357   9.290   6.101  0.0811 -0.4749 -0.1163
 9443SOL     OW28906   1.287   6.750   0.391  0.3612 -0.5463 -0.4385
 9443SOL    HW128907   1.316   6.737   0.301  1.0210 -0.5395 -0.2316
 9443SOL    HW228908   1.337   6.686   0.441  0.4156 -0.1687 -0.0050
 9444SOL     OW28909   3.300   8.171   1.350 -0.3823 -0.1960  0.6392
 9444SOL    HW128910   3.303   8.249   1.296 -0.0780 -0.2879  0.5216
 9444SOL    HW228911   3.371   8.116   1.317 -0.1719 -0.2379  1.1519
 9445SOL     OW28912   4.161   0.076   2.088  0.2896 -0.4951 -0.6093
 9445SOL    HW128913   4.136   0.136   2.157  0.2649 -1.5235  0.2928
 9445SOL    HW228914   4.085   0.020   2.074  0.6198 -0.9041 -0.8120
 9446SOL     OW28915   8.043   7.061   5.894  0.0287  0.1643  0.2295
 9446SOL    HW128916   8.093   6.982   5.916  1.4002  1.1817  0.8995
 9446SOL    HW228917   7.951   7.037   5.910  0.2349 -1.8205 -1.2362
 9447SOL     OW28918   0.486   2.267   0.901 -0.1870 -0.8428 -0.6778
 9447SOL    HW128919   0.396   2.284   0.929  0.7142 -1.1193  3.0084
 9447SOL    HW228920   0.484   2.178   0.866 -1.3360 -0.8846 -0.5493
 9448SOL     OW28921   1.150   4.708   9.249  0.2653 -0.4549  0.3093
 9448SOL    HW128922   1.218   4.681   9.187  0.1969 -1.8073  0.7764
 9448SOL    HW228923   1.141   4.802   9.236  1.3892 -0.4507 -0.5915
 9449SOL     OW28924   3.066   8.252   7.247  0.1630 -0.8429  0.3390
 9449SOL    HW128925   2.992   8.193   7.263 -0.7760  0.9134  3.3189
 9449SOL    HW228926   3.143   8.199   7.265 -0.6424 -1.3846  2.5249
 9450SOL     OW28927   7.948   6.582   9.289 -0.0930  0.8503 -0.3532
 9450SOL    HW128928   7.866   6.555   9.331  0.5167 -0.8707 -0.1685
 9450SOL    HW228929   7.954   6.528   9.210  1.3085  0.2367  0.1326
 9451SOL     OW28930   6.006   8.213   9.398 -0.0478  0.3111 -0.1758
 9451SOL    HW128931   6.080   8.158   9.371  0.5429  0.6336  0.7415
 9451SOL    HW228932   5.937   8.150   9.419  0.6261 -0.1231  0.8663
 9452SOL     OW28933   7.743   2.695   2.265  0.1918  0.5179  0.2432
 9452SOL    HW128934   7.654   2.729   2.253  1.2206  3.1818 -0.5507
 9452SOL    HW228935   7.778   2.747   2.338  1.1176 -0.5172  0.5559
 9453SOL     OW28936   9.232   2.977   6.538 -0.1460 -0.1920 -0.5318
 9453SOL    HW128937   9.258   3.043   6.474  0.1565 -1.5751 -1.9106
 9453SOL    HW228938   9.228   2.896   6.487  0.1813 -1.3604  1.2377
 9454SOL     OW28939   1.690   6.101   1.717  0.9720 -0.4369 -0.0524
 9454SOL    HW128940   1.774   6.089   1.762  0.4736  0.1013  1.0574
 9454SOL    HW228941   1.688   6.031   1.652  1.8087 -1.1184  0.6249
 9455SOL     OW28942   5.457   2.053   6.657 -0.8618 -0.4805 -0.0241
 9455SOL    HW128943   5.492   2.035   6.570 -0.3717 -3.8339  0.7426
 9455SOL    HW228944   5.371   2.011   6.657 -2.1959  2.0077  0.2774
 9456SOL     OW28945   6.259   2.401   1.142  0.9772  0.2740  0.2619
 9456SOL    HW128946   6.183   2.397   1.200  0.6678 -2.3255 -0.1761
 9456SOL    HW228947   6.223   2.390   1.054  1.6272  2.1079 -0.2695
 9457SOL     OW28948   0.449   2.371   7.337  0.2386  0.4669 -0.1267
 9457SOL    HW128949   0.501   2.444   7.304  2.1048 -0.6898  0.1081
 9457SOL    HW228950   0.493   2.293   7.304 -0.2699 -0.6168  1.5956
 9458SOL     OW28951   3.744   2.031   1.976  0.8583 -0.0943 -1.1692
 9458SOL    HW128952   3.777   2.074   2.054  0.3677  0.7980 -1.4388
 9458SOL    HW228953   3.812   1.968   1.952  2.1770  1.3943 -1.4717
 9459SOL     OW28954   0.635   5.713   8.480 -0.0621  0.3285  0.4435
 9459SOL    HW128955   0.558   5.710   8.423  0.6120  2.8783 -0.7425
 9459SOL    HW228956   0.599   5.732   8.567 -0.9042 -0.9013  0.3944
 9460SOL     OW28957   2.130   1.578   4.717  0.3585  0.6524 -0.0545
 9460SOL    HW128958   2.216   1.618   4.734  1.3406  0.0010 -2.9400
 9460SOL    HW228959   2.119   1.584   4.622 -2.0593 -0.8228  0.0475
 9461SOL     OW28960   5.357   6.124   9.270 -0.4272  0.4467  0.0118
 9461SOL    HW128961   5.351   6.145   9.177 -0.4590  2.0036  0.3288
 9461SOL    HW228962   5.266   6.123   9.300 -0.3675  1.1111  0.2401
 9462SOL     OW28963   8.921   9.423   7.686 -0.3468 -0.5197  0.5365
 9462SOL    HW128964   8.881   9.508   7.704 -1.4899  0.1065 -3.8738
 9462SOL    HW228965   9.014   9.436   7.705 -0.3996  1.9392 -0.4903
 9463SOL     OW28966   4.329   5.387   2.511 -0.4076 -0.6209  0.0677
 9463SOL    HW128967   4.259   5.321   2.512 -1.6026  0.6011  0.9618
 9463SOL    HW228968   4.298   5.455   2.571  0.3634  1.1990 -1.4927
 9464SOL     OW28969   4.089   4.829   9.225 -0.1779 -0.1260  0.5169
 9464SOL    HW128970   4.156   4.897   9.221  1.0070 -1.2789 -0.3791
 9464SOL    HW228971   4.006   4.876   9.235  0.4490  1.5115 -1.5128
 9465SOL     OW28972   0.963   5.117   9.772 -0.0180 -0.0279  0.1887
 9465SOL    HW128973   0.927   5.112   9.861 -1.7330  1.0456 -0.3891
 9465SOL    HW228974   1.028   5.187   9.777 -0.3570  0.2749  0.5409
 9466SOL     OW28975   1.759   1.470   5.949  0.0947 -0.1595 -0.1503
 9466SOL    HW128976   1.848   1.499   5.969 -0.2509  0.5813  0.3409
 9466SOL    HW228977   1.770   1.404   5.880  0.9879  0.2321 -0.3900
 9467SOL     OW28978   5.880   6.309   3.221 -0.3003 -0.2726 -0.0630
 9467SOL    HW128979   5.853   6.225   3.184 -1.2796 -0.6430  1.3928
 9467SOL    HW228980   5.912   6.288   3.309 -0.6174  0.8695  0.3491
 9468SOL     OW28981   4.490   1.783   1.036  0.4777 -0.0982  0.2085
 9468SOL    HW128982   4.407   1.830   1.032  0.5370 -0.0575 -0.7913
 9468SOL    HW228983   4.534   1.804   0.954  0.5428 -1.8048 -0.2336
 9469SOL     OW28984   6.190   9.331   2.400  0.0248  0.1648  0.0332
 9469SOL    HW128985   6.268   9.367   2.358 -0.8460 -0.0035 -1.8516
 9469SOL    HW228986   6.221   9.252   2.443  1.1407  0.8423  0.5445
 9470SOL     OW28987   6.709   2.778   3.066  0.1515  0.2571  0.3211
 9470SOL    HW128988   6.795   2.748   3.096  0.9706  1.5856 -0.5936
 9470SOL    HW228989   6.729   2.841   2.996 -1.5678  0.6404  0.1431
 9471SOL     OW28990   7.991   6.624   5.699  0.2462  0.4802  0.5512
 9471SOL    HW128991   8.059   6.568   5.660  1.9846  3.2412 -0.7056
 9471SOL    HW228992   7.919   6.622   5.635  0.5379  0.1218  0.2310
 9472SOL     OW28993   4.853   1.300   7.500  0.8500  0.0745 -0.3706
 9472SOL    HW128994   4.854   1.205   7.502 -0.7809  0.0191 -0.8759
 9472SOL    HW228995   4.799   1.326   7.575 -0.3110  0.5023 -1.3213
 9473SOL     OW28996   5.362   6.556   4.009 -0.1301  0.4869 -0.5810
 9473SOL    HW128997   5.370   6.478   4.064  0.6767  1.2433  0.3959
 9473SOL    HW228998   5.302   6.613   4.056 -0.7670  0.4444 -1.3259
 9474SOL     OW28999   3.214   3.236   0.231 -0.3438 -0.0727 -0.3120
 9474SOL    HW129000   3.264   3.154   0.224 -1.3234 -0.6557 -0.5338
 9474SOL    HW229001   3.151   3.220   0.301 -1.2974  0.0812 -1.1095
 9475SOL     OW29002   0.409   8.670   7.491  0.3057 -0.5930  0.8098
 9475SOL    HW129003   0.441   8.751   7.451  0.2047  0.4547  2.7122
 9475SOL    HW229004   0.487   8.614   7.496  0.6011 -0.2327  0.3874
 9476SOL     OW29005   0.089   7.436   1.485 -0.2833  0.1431  0.4363
 9476SOL    HW129006   0.118   7.406   1.399 -0.9510 -2.2590  0.9767
 9476SOL    HW229007   0.113   7.528   1.487  0.3929  0.0984 -2.0363
 9477SOL     OW29008   2.679   6.068   8.309 -0.1143  0.0640  0.3225
 9477SOL    HW129009   2.769   6.042   8.327  0.2233 -0.9706 -2.4625
 9477SOL    HW229010   2.683   6.163   8.296  0.4151  0.1336  0.9465
 9478SOL     OW29011   9.666   3.545   3.620 -0.2631  1.0738 -0.3598
 9478SOL    HW129012   9.656   3.565   3.527 -1.4019  0.3771 -0.3949
 9478SOL    HW229013   9.588   3.495   3.643  0.0325  1.1917  0.9654
 9479SOL     OW29014   2.064   5.636   1.280  0.3380  0.3476  0.1131
 9479SOL    HW129015   1.988   5.581   1.261 -0.0827  1.1472 -0.6061
 9479SOL    HW229016   2.085   5.617   1.372  0.6894 -1.5490 -0.3183
 9480SOL     OW29017   4.110   4.333   4.644 -0.0646 -0.2943 -0.7309
 9480SOL    HW129018   4.020   4.300   4.642 -0.3392  0.4339 -2.4321
 9480SOL    HW229019   4.131   4.348   4.552  1.8395 -0.5298 -0.3638
 9481SOL     OW29020   2.844   7.598   7.320  0.0119  0.2693 -0.0191
 9481SOL    HW129021   2.751   7.579   7.304 -0.0541 -0.0339  0.6816
 9481SOL    HW229022   2.881   7.612   7.233 -1.0791  2.2452 -0.2202
 9482SOL     OW29023   9.592   5.715   6.747  0.2560 -0.4766  0.1335
 9482SOL    HW129024   9.668   5.656   6.746  0.9268  0.3386  1.2122
 9482SOL    HW229025   9.546   5.694   6.828  1.9775  2.2210  1.9634
 9483SOL     OW29026   0.625   6.468   4.395  0.5168  0.1424  0.0325
 9483SOL    HW129027   0.672   6.416   4.460  0.1017 -0.9445 -0.5116
 9483SOL    HW229028   0.690   6.490   4.329  0.0531 -2.7031 -1.5492
 9484SOL     OW29029   4.529   8.075   9.195 -0.2892  0.1236  1.2817
 9484SOL    HW129030   4.442   8.041   9.216  0.4286 -1.6635  1.6122
 9484SOL    HW229031   4.572   8.084   9.280  0.2786 -0.3092  1.0464
 9485SOL     OW29032   7.424   3.984   5.863  0.4726 -0.1059  0.3861
 9485SOL    HW129033   7.392   4.007   5.950 -0.9084  0.2581 -0.1883
 9485SOL    HW229034   7.408   3.889   5.855 -0.6795  0.0989  0.0461
 9486SOL     OW29035   1.624   3.067   0.941  0.6818 -0.3774  0.8948
 9486SOL    HW129036   1.592   3.080   1.031  0.6383  0.9923  0.7059
 9486SOL    HW229037   1.708   3.112   0.939  0.6838 -0.4021  0.2397
 9487SOL     OW29038   2.954   5.040   8.504  0.0562 -0.4170 -0.0432
 9487SOL    HW129039   2.974   5.089   8.584 -0.6440  0.2653 -0.2742
 9487SOL    HW229040   2.862   5.059   8.486  0.0241 -1.0973 -0.6513
 9488SOL     OW29041   0.756   4.428   5.535  0.1023 -0.0792 -0.4014
 9488SOL    HW129042   0.829   4.373   5.564  0.3141 -0.1997 -1.1274
 9488SOL    HW229043   0.742   4.403   5.443  0.6380  1.5165 -0.9650
 9489SOL     OW29044   4.393   7.660   7.453  0.3653  0.9062  0.0306
 9489SOL    HW129045   4.457   7.630   7.517  0.1585  0.6256  0.1092
 9489SOL    HW229046   4.404   7.603   7.378 -0.4608  0.1958  0.4230
 9490SOL     OW29047   8.631   2.450   0.067 -0.9533  0.1459 -0.2358
 9490SOL    HW129048   8.632   2.544   0.051 -1.3537  0.1451 -0.2777
 9490SOL    HW229049   8.723   2.426   0.075 -0.8485  0.5360 -0.2497
 9491SOL     OW29050   4.233   7.206   2.255  0.0449 -0.8257  0.4387
 9491SOL    HW129051   4.159   7.216   2.315 -1.1931 -1.6913 -0.8764
 9491SOL    HW229052   4.204   7.247   2.174  0.7245 -1.7801 -0.3161
 9492SOL     OW29053   6.404   7.509   6.815  0.1061 -0.0515 -0.1681
 9492SOL    HW129054   6.318   7.535   6.784 -0.2062  0.8024  1.3236
 9492SOL    HW229055   6.411   7.548   6.903  0.8602 -2.4729  0.9401
 9493SOL     OW29056   3.637   8.392   4.055 -0.1895 -0.4626 -0.8095
 9493SOL    HW129057   3.658   8.324   3.990 -0.9359 -1.5598  0.0580
 9493SOL    HW229058   3.679   8.361   4.135 -1.3933 -0.4424 -0.1520
 9494SOL     OW29059   3.313   0.673   6.861  0.0723  0.3572  0.2318
 9494SOL    HW129060   3.263   0.605   6.816 -0.0645  0.5229  0.1297
 9494SOL    HW229061   3.248   0.741   6.880  0.2688  0.5924  0.0630
 9495SOL     OW29062   5.856   8.099   6.761 -0.1841  0.4022 -0.0659
 9495SOL    HW129063   5.813   8.019   6.791 -0.8943  0.9092  0.2922
 9495SOL    HW229064   5.950   8.081   6.771 -0.1788 -1.2636 -2.2388
 9496SOL     OW29065   0.997   8.804   5.666 -0.1484 -0.2237  0.2638
 9496SOL    HW129066   1.084   8.775   5.640  0.5723 -0.9008  3.0659
 9496SOL    HW229067   0.937   8.746   5.618  1.1409 -3.1227  1.8705
 9497SOL     OW29068   8.966   8.880   4.024 -0.2121 -0.0983  0.1146
 9497SOL    HW129069   9.017   8.840   3.953  0.7705  2.7883 -0.9404
 9497SOL    HW229070   8.877   8.885   3.989 -0.3588 -1.2941  0.2739
 9498SOL     OW29071   4.774   1.901   6.020  0.3148 -0.5505  0.3983
 9498SOL    HW129072   4.833   1.894   5.944  1.7924 -0.6117  1.5144
 9498SOL    HW229073   4.807   1.837   6.083 -0.1786  0.2892  1.5491
 9499SOL     OW29074   2.782   3.511   7.955 -0.3087  0.1920  0.2026
 9499SOL    HW129075   2.850   3.554   7.901 -0.3908  0.4913  0.3341
 9499SOL    HW229076   2.796   3.418   7.941  0.5174  0.2357  0.6938
 9500SOL     OW29077   6.868   2.847   4.396  0.8057 -0.3219  0.0520
 9500SOL    HW129078   6.844   2.780   4.460 -0.9850  0.1960  0.0029
 9500SOL    HW229079   6.906   2.798   4.323 -0.4254 -1.3128  0.0366
 9501SOL     OW29080   7.030   1.285   2.164 -0.1974  0.3322  0.0805
 9501SOL    HW129081   6.992   1.361   2.121 -0.6763  0.3641  0.5428
 9501SOL    HW229082   7.039   1.219   2.095 -0.3512  0.5993 -0.1946
 9502SOL     OW29083   4.703   2.346   2.218  0.4955  0.0394 -0.3014
 9502SOL    HW129084   4.671   2.412   2.157  0.3173  0.5278  0.3079
 9502SOL    HW229085   4.650   2.359   2.297  0.9443 -0.3657  0.0697
 9503SOL     OW29086   9.728   3.262   1.245 -0.1993  0.5635  0.1065
 9503SOL    HW129087   9.692   3.201   1.309 -0.5410  0.9449  0.2884
 9503SOL    HW229088   9.822   3.258   1.258 -0.1665 -0.4860 -0.4101
 9504SOL     OW29089   7.011   2.592   5.399  0.2642  0.0966 -0.3998
 9504SOL    HW129090   7.007   2.598   5.494  1.5659 -0.6674 -0.2865
 9504SOL    HW229091   6.970   2.673   5.368  2.8839  2.0406  0.8624
 9505SOL     OW29092   4.667   5.614   1.567  0.0736  0.0543 -0.4125
 9505SOL    HW129093   4.614   5.548   1.611  2.9444 -2.7079 -0.7526
 9505SOL    HW229094   4.667   5.587   1.475  1.3453  0.4665 -0.5486
 9506SOL     OW29095   9.861   2.072   3.093 -0.1512 -0.6507  0.0663
 9506SOL    HW129096   9.768   2.056   3.108 -0.2602  0.1877  0.2959
 9506SOL    HW229097   9.886   2.135   3.160  0.6539 -1.0869  0.1905
 9507SOL     OW29098   4.587   6.364   8.531  0.0030 -0.0634  0.1853
 9507SOL    HW129099   4.624   6.395   8.448  0.7831  0.4683  0.7107
 9507SOL    HW229100   4.531   6.436   8.561  1.7951  0.9159  1.3937
 9508SOL     OW29101   4.518   4.942   9.250  0.3354  0.2028  0.2209
 9508SOL    HW129102   4.610   4.970   9.253 -0.0361  1.3827  1.0225
 9508SOL    HW229103   4.486   4.952   9.339 -0.5284 -0.4341  0.0030
 9509SOL     OW29104   4.279   0.565   7.114 -0.0667  0.6645  0.3186
 9509SOL    HW129105   4.370   0.543   7.093 -0.0765  1.6292 -0.8409
 9509SOL    HW229106   4.245   0.604   7.034 -2.8666 -3.6061 -0.8785
 9510SOL     OW29107   8.465   4.354   0.676  0.5738  0.0541  0.1608
 9510SOL    HW129108   8.408   4.419   0.716  1.0536  0.5181  0.0859
 9510SOL    HW229109   8.552   4.371   0.713  0.8002 -0.2158 -0.2396
 9511SOL     OW29110   2.800   3.394   4.300  0.7788 -0.2576 -0.1162
 9511SOL    HW129111   2.797   3.449   4.378  2.9252 -0.9132  0.4844
 9511SOL    HW229112   2.708   3.373   4.282  0.1980  0.3964  1.8620
 9512SOL     OW29113   8.368   6.239   0.991 -0.0839 -0.4265 -0.2928
 9512SOL    HW129114   8.418   6.177   0.937 -1.1381  1.0752 -3.1886
 9512SOL    HW229115   8.435   6.291   1.035  0.9314 -0.3063 -1.8800
 9513SOL     OW29116   1.825   5.723   5.160  0.3529 -0.5199  0.0963
 9513SOL    HW129117   1.909   5.716   5.204  0.6651 -0.2915 -0.4413
 9513SOL    HW229118   1.762   5.683   5.220  0.9087 -1.0751  0.3170
 9514SOL     OW29119   8.233   4.353   0.314  0.3496  0.4778 -0.4216
 9514SOL    HW129120   8.214   4.383   0.403  3.0644 -0.3429  0.5295
 9514SOL    HW229121   8.321   4.385   0.296  1.3007 -2.4088 -1.3675
 9515SOL     OW29122   4.598   6.561   1.445 -0.2841  0.0762  0.4472
 9515SOL    HW129123   4.528   6.602   1.394  0.6293  0.9329 -0.1803
 9515SOL    HW229124   4.553   6.511   1.513 -1.5124 -0.1182 -0.4727
 9516SOL     OW29125   5.612   0.384   5.760 -0.0146 -0.4241  0.4882
 9516SOL    HW129126   5.591   0.298   5.723  1.7161 -1.4064  1.6572
 9516SOL    HW229127   5.574   0.384   5.847 -2.1672  1.0377 -0.3486
 9517SOL     OW29128   8.627   9.871   9.560  0.7749  0.4270  0.4713
 9517SOL    HW129129   8.687   9.931   9.605  0.8139  0.8940 -0.1819
 9517SOL    HW229130   8.545   9.879   9.608  0.7405  1.1234  0.3128
 9518SOL     OW29131   0.417   0.213   8.388 -0.3369 -0.0788  0.4648
 9518SOL    HW129132   0.332   0.251   8.368 -0.4890 -1.0470 -0.9237
 9518SOL    HW229133   0.480   0.276   8.354 -0.4124  1.2404  2.6018
 9519SOL     OW29134   7.857   7.198   6.400 -0.4016  0.0260 -0.5065
 9519SOL    HW129135   7.885   7.106   6.396  1.2561  0.5061 -0.6963
 9519SOL    HW229136   7.764   7.195   6.377 -0.4018 -1.6048 -0.4603
 9520SOL     OW29137   4.575   5.602   8.967 -0.1317  0.3185 -0.0103
 9520SOL    HW129138   4.642   5.671   8.970  0.9445 -0.7174  0.4843
 9520SOL    HW229139   4.558   5.590   8.874 -0.2493  1.1695 -0.1066
 9521SOL     OW29140   0.152   4.815   1.385 -0.0000 -0.6304  0.0250
 9521SOL    HW129141   0.140   4.905   1.356 -0.4445 -0.6114  0.2606
 9521SOL    HW229142   0.127   4.762   1.309 -0.1276 -0.5600  0.0173
 9522SOL     OW29143   4.166   2.292   0.768  0.1223  0.0304 -0.0917
 9522SOL    HW129144   4.202   2.279   0.856 -2.1013  0.4736  0.9672
 9522SOL    HW229145   4.109   2.217   0.754  2.6992 -1.6509 -2.5058
 9523SOL     OW29146   1.773   1.547   1.731  0.0836 -0.0226  0.1059
 9523SOL    HW129147   1.706   1.530   1.665 -1.7656  2.1102  1.2887
 9523SOL    HW229148   1.837   1.603   1.688 -1.6612  2.2632  0.2727
 9524SOL     OW29149   3.877   6.158   0.824 -0.2114 -0.6905 -0.0729
 9524SOL    HW129150   3.904   6.239   0.867 -1.0823 -0.8161  0.7462
 9524SOL    HW229151   3.912   6.088   0.879  0.8758 -0.9000 -0.9879
 9525SOL     OW29152   0.491   5.633   0.896 -0.1112 -0.1485 -0.1125
 9525SOL    HW129153   0.444   5.717   0.893  0.3735  0.1611  0.6506
 9525SOL    HW229154   0.439   5.575   0.841 -1.5766  0.0971  0.9407
 9526SOL     OW29155   3.158   6.364   0.079 -0.5308  0.2166  0.0967
 9526SOL    HW129156   3.177   6.278   0.041  2.9223  0.8397  0.0549
 9526SOL    HW229157   3.226   6.376   0.146  0.6365  3.7737 -1.4566
 9527SOL     OW29158   0.609   2.062   1.507  0.3749  0.3212  0.5524
 9527SOL    HW129159   0.623   2.156   1.489  4.0477 -0.4760 -2.0127
 9527SOL    HW229160   0.548   2.034   1.438 -1.0026  0.7987  1.5298
 9528SOL     OW29161   8.274   2.249   9.266 -0.6419  0.0338 -0.1702
 9528SOL    HW129162   8.205   2.293   9.316 -1.0863  1.0557 -1.6123
 9528SOL    HW229163   8.321   2.320   9.222 -0.5020 -0.8389 -1.4705
 9529SOL     OW29164   6.622   0.961   0.215  0.1352 -0.8321  0.0597
 9529SOL    HW129165   6.565   0.928   0.145  0.9414 -0.8404 -0.6130
 9529SOL    HW229166   6.592   1.051   0.230 -3.0744 -2.1589  2.9485
 9530SOL     OW29167   4.386   8.114   3.026  0.1557 -0.3842  0.3572
 9530SOL    HW129168   4.341   8.168   2.962 -1.4174  0.8826  2.4060
 9530SOL    HW229169   4.454   8.171   3.062  1.1814 -1.1576 -0.3064
 9531SOL     OW29170   1.627   3.733   3.119  0.5029 -0.0950  0.8241
 9531SOL    HW129171   1.665   3.814   3.087  0.1932  0.1795  1.1352
 9531SOL    HW229172   1.620   3.677   3.042  1.8284 -0.2801  0.8140
 9532SOL     OW29173   0.007   1.259   8.725  0.1746 -0.2494  0.3504
 9532SOL    HW129174   0.058   1.248   8.645 -0.4837 -0.0496 -0.1041
 9532SOL    HW229175   0.072   1.275   8.793  0.7434 -0.4840 -0.1344
 9533SOL     OW29176   7.560   8.081   0.755  0.5703 -0.0122 -0.0435
 9533SOL    HW129177   7.594   8.059   0.842  0.9664  0.8855  0.0378
 9533SOL    HW229178   7.596   8.167   0.736  0.1414 -0.0149 -0.9252
 9534SOL     OW29179   4.937   6.690   1.192  0.2072  0.2106 -0.0949
 9534SOL    HW129180   5.006   6.710   1.129  1.0169 -0.1719  0.6494
 9534SOL    HW229181   4.856   6.713   1.147  0.8302  0.8871 -0.9044
 9535SOL     OW29182   9.514   8.846   4.546 -0.1566  0.3458 -0.6219
 9535SOL    HW129183   9.575   8.831   4.618 -1.8639 -0.1192  0.7915
 9535SOL    HW229184   9.493   8.939   4.550  0.2005  0.4431 -0.9208
 9536SOL     OW29185   0.813   0.446   1.231 -0.1135 -0.4772 -0.4850
 9536SOL    HW129186   0.742   0.444   1.167 -0.9222 -0.9132  0.4202
 9536SOL    HW229187   0.830   0.540   1.244 -1.2644 -0.3325  0.0960
 9537SOL     OW29188   2.607   6.185   7.462  0.2969  0.4641 -0.2913
 9537SOL    HW129189   2.700   6.206   7.452  0.3773 -0.1207 -0.8849
 9537SOL    HW229190   2.602   6.091   7.443 -0.4757  0.5890 -0.7501
 9538SOL     OW29191   3.110   1.541   1.907  0.5114  0.2690  0.4775
 9538SOL    HW129192   3.035   1.519   1.851 -1.4610  0.3295  2.9263
 9538SOL    HW229193   3.136   1.628   1.878  1.4921 -0.8117 -2.2134
 9539SOL     OW29194   6.763   4.458   6.730  0.4853  0.3389  0.0721
 9539SOL    HW129195   6.797   4.486   6.646 -0.1167  1.2784  0.1250
 9539SOL    HW229196   6.750   4.539   6.779 -1.8884  0.0772  0.0090
 9540SOL     OW29197   8.025   9.603   8.695  0.2781  0.1782 -0.1928
 9540SOL    HW129198   8.116   9.593   8.725  0.5396  1.5610 -0.4429
 9540SOL    HW229199   7.974   9.603   8.776  0.6593  0.7876  0.0593
 9541SOL     OW29200   0.866   8.243   1.050 -0.0129 -0.0785  0.1962
 9541SOL    HW129201   0.776   8.245   1.017 -0.1096 -0.7252  0.4051
 9541SOL    HW229202   0.910   8.178   0.995 -0.3806 -1.7898  1.8110
 9542SOL     OW29203   6.508   5.151   9.119 -0.5234  0.4839  0.9957
 9542SOL    HW129204   6.563   5.105   9.055 -0.1083 -2.1948  3.1110
 9542SOL    HW229205   6.465   5.220   9.068  1.1963 -0.3018 -1.7352
 9543SOL     OW29206   9.465   9.337   1.201  0.4033 -0.3713  1.3523
 9543SOL    HW129207   9.423   9.277   1.139 -0.5062 -1.0748  2.6048
 9543SOL    HW229208   9.392   9.384   1.241  1.0019  0.2968  1.6649
 9544SOL     OW29209   2.112   1.065   2.008  0.7939  0.2570  0.0692
 9544SOL    HW129210   2.190   1.075   2.063  0.1360 -0.0808  1.0880
 9544SOL    HW229211   2.125   1.128   1.937  1.5095  0.9549  0.7945
 9545SOL     OW29212   6.665   3.433   7.611  0.0694 -0.0045 -0.3377
 9545SOL    HW129213   6.692   3.345   7.584  1.0019  0.2066 -0.1237
 9545SOL    HW229214   6.576   3.421   7.646 -0.0852 -0.7361 -0.9505
 9546SOL     OW29215   9.773   3.395   9.785 -0.3845  0.2200 -0.5236
 9546SOL    HW129216   9.830   3.472   9.783 -0.3799  0.2381  0.0312
 9546SOL    HW229217   9.713   3.412   9.857  1.0111 -1.2574  1.0913
 9547SOL     OW29218   8.483   4.023   3.878  0.8199  0.2229  0.3259
 9547SOL    HW129219   8.391   4.011   3.854  0.3745  1.2473  1.4446
 9547SOL    HW229220   8.514   3.934   3.895  0.2533 -0.2092 -0.7869
 9548SOL     OW29221   4.970   5.033   9.414  0.0021  0.4428  0.1425
 9548SOL    HW129222   5.042   5.030   9.350 -1.2662  1.2286 -1.3906
 9548SOL    HW229223   4.946   5.125   9.419 -1.6589  0.0661 -0.2966
 9549SOL     OW29224   4.372   3.173   4.554  0.0833  0.1321  0.1921
 9549SOL    HW129225   4.439   3.235   4.526  0.2380 -0.7318 -1.4084
 9549SOL    HW229226   4.390   3.093   4.505 -0.2052 -1.1709  2.0963
 9550SOL     OW29227   8.953   1.345   8.891 -0.0360  0.0799 -0.2035
 9550SOL    HW129228   8.984   1.320   8.804 -2.0956  1.7273 -1.5010
 9550SOL    HW229229   9.016   1.306   8.951  1.1123 -1.6429 -2.3849
 9551SOL     OW29230   8.774   4.704   6.161  0.3891  0.2520  0.4528
 9551SOL    HW129231   8.684   4.671   6.168  0.3674  0.1569 -0.2053
 9551SOL    HW229232   8.828   4.625   6.158  0.6614  0.3066  2.6665
 9552SOL     OW29233   9.827   4.201   6.458  0.0182 -0.0699 -0.2214
 9552SOL    HW129234   9.879   4.251   6.395 -1.3737 -1.3226 -2.5397
 9552SOL    HW229235   9.881   4.125   6.479  0.6665  0.5696  0.4482
 9553SOL     OW29236   3.246   2.028   1.507 -0.1035  0.2715  0.0591
 9553SOL    HW129237   3.167   2.045   1.456  0.7165  1.1932 -0.9613
 9553SOL    HW229238   3.289   1.956   1.463  0.6030  1.0634 -0.5784
 9554SOL     OW29239   1.695   7.404   4.754 -0.3541 -0.2465 -0.1826
 9554SOL    HW129240   1.615   7.452   4.775 -1.9367 -2.1289 -1.4878
 9554SOL    HW229241   1.729   7.447   4.676 -0.7506 -0.1023 -0.2819
 9555SOL     OW29242   3.210   5.713   5.120  0.3307 -0.7333  0.1820
 9555SOL    HW129243   3.199   5.634   5.173  0.0494 -0.1330  1.0309
 9555SOL    HW229244   3.160   5.780   5.165  0.8400  0.0204 -0.3465
 9556SOL     OW29245   2.520   0.414   6.385 -0.2471  0.4981  0.2449
 9556SOL    HW129246   2.438   0.391   6.341 -1.4471  1.1140  2.0194
 9556SOL    HW229247   2.528   0.509   6.373 -0.6335  0.6869  1.3665
 9557SOL     OW29248   6.824   7.701   5.551  0.4671  0.3230 -0.2738
 9557SOL    HW129249   6.748   7.758   5.545 -0.2300 -0.5689 -0.0484
 9557SOL    HW229250   6.832   7.663   5.463 -0.2101 -0.6733  0.0939
 9558SOL     OW29251   1.350   9.245   9.008 -0.0399 -0.8948  0.0671
 9558SOL    HW129252   1.340   9.247   8.913  0.2571  0.5125  0.0506
 9558SOL    HW229253   1.318   9.158   9.033 -0.2385 -1.2404 -1.2961
 9559SOL     OW29254   9.241   5.561   1.868 -0.4212 -0.1339  0.1596
 9559SOL    HW129255   9.197   5.528   1.947 -0.9225  0.1147 -0.0076
 9559SOL    HW229256   9.332   5.572   1.894  0.0109 -2.6512 -0.0815
 9560SOL     OW29257   3.662   1.181   2.056  0.1412  0.2164 -0.0464
 9560SOL    HW129258   3.692   1.168   2.146  0.5448  3.3091  0.3726
 9560SOL    HW229259   3.572   1.212   2.064  0.6209  1.8658 -0.5414
 9561SOL     OW29260   6.665   3.757   4.374 -0.2190 -0.1702 -0.0047
 9561SOL    HW129261   6.752   3.751   4.335 -0.0435  0.1767  0.3282
 9561SOL    HW229262   6.624   3.831   4.329 -1.4655 -2.1460 -2.3261
 9562SOL     OW29263   7.925   0.292   0.715  0.2522 -0.3764  0.0339
 9562SOL    HW129264   7.959   0.238   0.644 -0.1081 -0.3855 -0.1311
 9562SOL    HW229265   7.922   0.234   0.790  0.3082 -0.4604 -0.0287
 9563SOL     OW29266   3.928   3.597   9.129  0.1521 -0.0140 -0.0464
 9563SOL    HW129267   3.923   3.604   9.224  3.4676 -1.1165  0.3512
 9563SOL    HW229268   3.941   3.503   9.112 -2.3939 -0.1673 -1.8349
 9564SOL     OW29269   6.447   6.293   3.265 -0.5473  0.4176  0.0335
 9564SOL    HW129270   6.521   6.353   3.259 -0.9221  1.0318  1.3967
 9564SOL    HW229271   6.410   6.307   3.352 -1.2101 -1.1346  0.0433
 9565SOL     OW29272   4.199   6.633   7.882 -0.2656 -0.2502  0.1471
 9565SOL    HW129273   4.181   6.725   7.864 -0.3772 -0.2787  0.1080
 9565SOL    HW229274   4.161   6.618   7.969  1.7745  0.3169  1.1892
 9566SOL     OW29275   1.386   5.177   2.203 -0.1891 -0.6656 -0.3165
 9566SOL    HW129276   1.472   5.217   2.217 -0.2771 -0.6784  0.3219
 9566SOL    HW229277   1.391   5.093   2.249  0.0866 -1.5374 -1.8821
 9567SOL     OW29278   6.307   6.760   4.905  0.1563 -0.4489  0.2321
 9567SOL    HW129279   6.391   6.738   4.945  0.1523  0.5246  0.8175
 9567SOL    HW229280   6.275   6.834   4.956 -1.1536 -0.9205  0.1419
 9568SOL     OW29281   4.096   5.016   8.902  0.8374 -0.4233  0.0692
 9568SOL    HW129282   4.090   5.110   8.918 -1.1049 -0.6041  0.6973
 9568SOL    HW229283   4.139   5.008   8.817  0.2348  1.0661 -0.3949
 9569SOL     OW29284   4.306   5.649   7.164 -0.1571 -0.2214 -0.3897
 9569SOL    HW129285   4.308   5.728   7.110 -1.4935  0.5465  0.5930
 9569SOL    HW229286   4.372   5.665   7.232  0.9449 -0.8281 -1.2933
 9570SOL     OW29287   4.791   3.992   0.704  0.1497 -0.4588  0.0785
 9570SOL    HW129288   4.874   3.957   0.737  0.6921 -0.0954 -0.8770
 9570SOL    HW229289   4.790   3.969   0.611 -0.9452 -0.6838  0.1359
 9571SOL     OW29290   5.586   4.346   3.117  0.0724 -0.5545  0.1125
 9571SOL    HW129291   5.647   4.280   3.150  1.4971  0.5324 -0.2579
 9571SOL    HW229292   5.639   4.401   3.060 -1.7895 -0.9495 -2.1336
 9572SOL     OW29293   5.081   9.457   3.401 -0.0368 -0.4458 -0.3881
 9572SOL    HW129294   5.090   9.383   3.461  1.1585  0.4507  0.5689
 9572SOL    HW229295   5.166   9.501   3.403 -1.0196  1.5490 -0.1773
 9573SOL     OW29296   3.951   7.917   5.697 -0.0087 -0.7769  0.6350
 9573SOL    HW129297   3.945   7.853   5.768 -1.4721  0.9910  2.1949
 9573SOL    HW229298   3.876   7.899   5.641  0.1616 -1.0563  0.4934
 9574SOL     OW29299   0.628   1.210   5.368 -0.1411 -0.0929  0.1286
 9574SOL    HW129300   0.578   1.158   5.430  1.0616  0.1326  1.3312
 9574SOL    HW229301   0.674   1.145   5.314 -1.0411 -0.2855 -0.4241
 9575SOL     OW29302   6.550   5.396   1.337 -0.5731  0.4847 -0.1914
 9575SOL    HW129303   6.624   5.337   1.352 -0.2852  0.8468 -0.1828
 9575SOL    HW229304   6.510   5.407   1.423 -0.0512  1.0600 -0.0136
 9576SOL     OW29305   1.922   5.958   2.109 -0.4125  0.4731  0.0978
 9576SOL    HW129306   1.956   5.984   2.023  2.0633  0.1216  0.8815
 9576SOL    HW229307   1.946   6.031   2.166 -2.2330  0.8066  0.5045
 9577SOL     OW29308   6.901   3.540   8.604  0.2790  0.0887  0.7367
 9577SOL    HW129309   6.983   3.526   8.650  0.9608  0.6265 -0.2594
 9577SOL    HW229310   6.894   3.466   8.544  0.1839  0.1924  0.6193
 9578SOL     OW29311   3.502   2.590   8.121  0.1205  0.0602 -0.1836
 9578SOL    HW129312   3.506   2.575   8.026 -1.9041 -0.4103 -0.2604
 9578SOL    HW229313   3.468   2.679   8.130 -2.7343 -0.9295 -0.0406
 9579SOL     OW29314   6.934   2.738  -0.019  0.4136 -0.0127 -0.6590
 9579SOL    HW129315   7.029   2.747  -0.026  0.4472 -0.8101 -1.4650
 9579SOL    HW229316   6.919   2.711   0.071  1.0012 -0.3868 -0.6672
 9580SOL     OW29317   7.966   4.940   7.337  0.0274 -0.1377 -0.3295
 9580SOL    HW129318   7.929   4.989   7.264  2.2041  0.7954 -0.8578
 9580SOL    HW229319   7.985   5.007   7.403  1.0189 -0.5534 -0.1851
 9581SOL     OW29320   5.868   4.294   5.950 -0.7792 -0.0316 -0.0465
 9581SOL    HW129321   5.964   4.285   5.947 -0.7638  0.3603 -1.2366
 9581SOL    HW229322   5.854   4.387   5.968 -0.9578 -0.4376  2.1902
 9582SOL     OW29323   5.073   3.509   2.378 -0.1057 -0.5285  0.2007
 9582SOL    HW129324   5.024   3.433   2.345  1.1404 -2.1705  1.8913
 9582SOL    HW229325   5.012   3.553   2.437 -1.1763  0.4364 -1.5397
 9583SOL     OW29326   0.940   7.255   2.188 -0.0932  0.1966 -0.0207
 9583SOL    HW129327   0.864   7.198   2.178 -0.9570  0.8959  2.0141
 9583SOL    HW229328   0.987   7.247   2.105 -2.7774  0.3533 -1.6552
 9584SOL     OW29329   5.637   2.682   7.612 -0.2682  0.4509  0.1128
 9584SOL    HW129330   5.607   2.614   7.551  2.2298 -0.0081 -0.7254
 9584SOL    HW229331   5.697   2.636   7.671 -0.5301  1.4528  1.1922
 9585SOL     OW29332   5.705   6.773   7.376 -0.3960 -0.5066 -0.3409
 9585SOL    HW129333   5.658   6.851   7.349  0.4021  0.0490 -0.1695
 9585SOL    HW229334   5.667   6.750   7.461 -3.0458 -2.3707 -1.8691
 9586SOL     OW29335   9.930   2.002   5.185  0.1288 -0.2393  0.3112
 9586SOL    HW129336   9.945   1.938   5.255  0.1732  0.0495  0.5649
 9586SOL    HW229337   9.867   1.959   5.127  0.5227 -0.7083  0.2246
 9587SOL     OW29338   5.280   3.880   7.047 -0.2988  0.2325 -0.3327
 9587SOL    HW129339   5.208   3.818   7.037  0.0887 -0.0476 -1.5166
 9587SOL    HW229340   5.356   3.825   7.066 -0.2364  0.4699  0.1307
 9588SOL     OW29341   4.130   5.300   7.410 -0.2824 -0.0190 -0.1881
 9588SOL    HW129342   4.129   5.335   7.499 -0.2314 -1.3173  0.3557
 9588SOL    HW229343   4.048   5.251   7.403 -0.6577  0.7165 -1.1465
 9589SOL     OW29344   2.358   1.018   0.601 -0.1983 -0.0199  0.5912
 9589SOL    HW129345   2.301   1.087   0.634  0.6771  0.5322  0.9823
 9589SOL    HW229346   2.422   1.004   0.671 -0.6308 -1.5615  0.7230
 9590SOL     OW29347   4.884   8.027   5.932  0.4712 -0.1389  0.5551
 9590SOL    HW129348   4.924   7.952   5.889  0.0554  0.4947 -1.0210
 9590SOL    HW229349   4.793   8.001   5.945  0.4515 -0.1104  0.4771
 9591SOL     OW29350   1.508   9.893   5.934  0.7850  0.2290 -0.1732
 9591SOL    HW129351   1.453   9.968   5.913 -0.1484 -0.8421 -1.8503
 9591SOL    HW229352   1.597   9.921   5.916  0.8812  1.9461  2.4211
 9592SOL     OW29353   6.505   6.268   4.994  0.1496 -0.1703  0.0290
 9592SOL    HW129354   6.461   6.352   4.999 -0.3145 -0.4573  1.0383
 9592SOL    HW229355   6.597   6.288   5.009 -0.2249 -0.0588  2.5547
 9593SOL     OW29356   0.327   0.696   5.656 -0.2481 -0.1730 -0.2695
 9593SOL    HW129357   0.396   0.760   5.676 -0.1556 -0.3444 -0.0315
 9593SOL    HW229358   0.344   0.623   5.717 -2.6072  1.1584  2.2273
 9594SOL     OW29359   9.876   2.406   4.925  0.2526  0.3366  0.4072
 9594SOL    HW129360   9.921   2.341   4.871  1.1309 -0.0273  1.5424
 9594SOL    HW229361   9.936   2.481   4.926 -0.2294  0.7324  0.0559
 9595SOL     OW29362   6.061   9.429   4.587 -0.1140 -0.0995 -0.7728
 9595SOL    HW129363   6.097   9.491   4.651  1.4231 -0.2249 -1.4681
 9595SOL    HW229364   6.048   9.481   4.508  0.3279 -0.4661 -1.0892
 9596SOL     OW29365   8.273   3.662   6.158 -0.7316 -0.0391  0.0145
 9596SOL    HW129366   8.186   3.700   6.174 -0.8267 -0.1144 -0.3222
 9596SOL    HW229367   8.320   3.675   6.240 -0.5509  1.3713 -0.2876
 9597SOL     OW29368   6.677   6.557   3.567  0.2472  0.5366 -0.2846
 9597SOL    HW129369   6.677   6.510   3.483  0.3536  0.5797 -0.3090
 9597SOL    HW229370   6.598   6.526   3.612  0.4562  0.1321 -0.1885
 9598SOL     OW29371   1.949   9.876   5.051 -0.2113 -0.1209  0.0713
 9598SOL    HW129372   1.859   9.905   5.068 -0.5932 -0.5046 -1.2232
 9598SOL    HW229373   1.996   9.957   5.030 -0.8660 -0.1898 -1.7963
 9599SOL     OW29374   8.222   6.410   0.563 -0.0990 -0.0789 -0.0584
 9599SOL    HW129375   8.197   6.452   0.645  1.0394 -2.8677  1.9100
 9599SOL    HW229376   8.317   6.416   0.561 -0.1942  1.9028 -2.4170
 9600SOL     OW29377   1.100   6.063   7.455  0.5312  0.5689  0.1681
 9600SOL    HW129378   1.133   6.152   7.444 -0.9688  1.3691  1.6509
 9600SOL    HW229379   1.091   6.052   7.549 -0.1913 -0.8081 -0.0338
 9601SOL     OW29380   4.260   4.328   8.465  0.0914  0.6379  0.2637
 9601SOL    HW129381   4.335   4.387   8.472  0.7921 -0.2402  0.3645
 9601SOL    HW229382   4.189   4.383   8.433  1.0680  1.2639 -0.9162
 9602SOL     OW29383   9.791   4.354   9.277 -0.0867  0.2248 -0.0281
 9602SOL    HW129384   9.716   4.338   9.219 -0.0561 -0.1639  0.0393
 9602SOL    HW229385   9.849   4.411   9.226 -0.2929  0.2903 -0.1910
 9603SOL     OW29386   7.374   4.648   3.570  0.3938  0.7678 -0.1155
 9603SOL    HW129387   7.423   4.570   3.546  1.3920  1.8033 -1.6443
 9603SOL    HW229388   7.284   4.629   3.543  1.0059  0.8769 -2.4611
 9604SOL     OW29389   2.656   4.345   5.604 -0.6144  0.1855  0.0153
 9604SOL    HW129390   2.738   4.296   5.603  0.3836  1.7782  0.1013
 9604SOL    HW229391   2.601   4.302   5.540 -0.8777 -2.7763  2.0190
 9605SOL     OW29392   8.134   3.575   1.510  0.0674 -0.5949 -0.4212
 9605SOL    HW129393   8.117   3.595   1.418  0.1434  0.6109 -0.1762
 9605SOL    HW229394   8.226   3.596   1.523  0.2043 -1.2942 -0.1936
 9606SOL     OW29395   2.009   7.653   9.724  0.0347  0.0443  0.2225
 9606SOL    HW129396   2.006   7.712   9.799  1.7064  0.4632 -0.0018
 9606SOL    HW229397   1.922   7.614   9.720  0.0008 -0.2278  2.5593
 9607SOL     OW29398   7.041   9.807   2.316  0.3351 -0.4092 -0.2018
 9607SOL    HW129399   7.057   9.793   2.223  0.8364 -0.0829 -0.1696
 9607SOL    HW229400   7.124   9.841   2.350 -0.0721  0.1952  0.2135
 9608SOL     OW29401   0.203   4.004   8.112 -0.3551 -0.3680  0.1685
 9608SOL    HW129402   0.210   3.979   8.019 -1.3207 -0.1619  0.0270
 9608SOL    HW229403   0.287   4.044   8.132  0.3955 -1.6913 -0.2269
 9609SOL     OW29404   1.064   8.397   6.494 -0.2331  0.1003 -0.2259
 9609SOL    HW129405   1.126   8.432   6.430 -0.8000 -1.1849 -1.5317
 9609SOL    HW229406   0.986   8.453   6.485 -0.1418  0.2112 -0.3276
 9610SOL     OW29407   3.502   6.927   4.855  0.6743 -0.2464  0.4297
 9610SOL    HW129408   3.407   6.915   4.855  0.4880  1.0882  0.3535
 9610SOL    HW229409   3.525   6.937   4.762  0.4327  2.3954  0.5671
 9611SOL     OW29410   4.950   5.461   5.893 -0.4215  0.1902 -0.1837
 9611SOL    HW129411   4.950   5.535   5.832  0.4981  0.9052  0.6445
 9611SOL    HW229412   4.885   5.400   5.858 -0.7982  1.1455 -1.1814
 9612SOL     OW29413   7.438   9.369   2.311 -0.4969 -0.1116  0.8248
 9612SOL    HW129414   7.360   9.408   2.272  1.1557  1.8342 -0.7551
 9612SOL    HW229415   7.453   9.418   2.391 -0.5909 -0.1299  0.8537
 9613SOL     OW29416   2.737   2.154   8.780  0.4931 -0.0189 -0.4062
 9613SOL    HW129417   2.829   2.170   8.759  0.2535 -0.3592 -1.8188
 9613SOL    HW229418   2.716   2.073   8.734 -0.7334  0.4940 -0.7806
 9614SOL     OW29419   1.374   2.150   8.787 -0.1476 -0.4112  0.0387
 9614SOL    HW129420   1.285   2.169   8.758 -0.3124  0.1673  0.8904
 9614SOL    HW229421   1.364   2.085   8.856  0.2709 -2.0999 -1.4117
 9615SOL     OW29422   8.811   4.235   2.656  0.1096 -0.2060  0.0930
 9615SOL    HW129423   8.861   4.160   2.623 -1.5337 -1.0961 -0.5526
 9615SOL    HW229424   8.769   4.202   2.736  0.0964  0.3408  0.3166
 9616SOL     OW29425   8.071   9.456   7.862  0.0955 -0.0597 -0.3405
 9616SOL    HW129426   8.021   9.467   7.942 -0.9640  1.4991 -1.1754
 9616SOL    HW229427   8.089   9.362   7.858 -0.9704 -0.3497  1.0448
 9617SOL     OW29428   2.351   3.249   6.957  0.0283  0.2357  0.1921
 9617SOL    HW129429   2.446   3.252   6.945 -0.0011 -0.0166 -0.1008
 9617SOL    HW229430   2.322   3.173   6.906 -0.6645  1.8132 -1.9234
 9618SOL     OW29431   2.585   0.445   8.822  0.2351  0.1058 -0.0749
 9618SOL    HW129432   2.579   0.359   8.864  2.6813 -0.3063 -0.4157
 9618SOL    HW229433   2.618   0.426   8.734  0.6928  1.3691 -0.1985
 9619SOL     OW29434   4.736   6.451   8.308  0.2606 -0.1990  0.0811
 9619SOL    HW129435   4.807   6.488   8.360  0.5213 -0.3276 -0.1754
 9619SOL    HW229436   4.710   6.522   8.249  0.8122 -0.4287 -0.4629
 9620SOL     OW29437   7.231   4.058   5.120 -0.6343  0.5796 -0.3961
 9620SOL    HW129438   7.232   4.036   5.213  2.3762  1.0344 -0.2304
 9620SOL    HW229439   7.210   3.975   5.076 -0.4448 -0.0215  0.6090
 9621SOL     OW29440   0.256   0.355   6.041  0.0408  0.0452  0.0131
 9621SOL    HW129441   0.282   0.378   6.131  1.1648  1.0121 -0.5399
 9621SOL    HW229442   0.196   0.425   6.015 -0.8388 -0.5998  0.2211
 9622SOL     OW29443   4.999   7.734   0.184 -0.0706  0.1588  0.3583
 9622SOL    HW129444   4.983   7.654   0.134  1.1005  0.3986 -0.4140
 9622SOL    HW229445   5.056   7.707   0.255  1.7589  0.5934 -0.8872
 9623SOL     OW29446   3.254   7.035   6.631 -0.4017 -0.7115 -0.0423
 9623SOL    HW129447   3.185   6.970   6.645 -2.2177  0.3952 -2.9446
 9623SOL    HW229448   3.230   7.107   6.690 -2.0858 -0.1598 -1.3229
 9624SOL     OW29449   4.982   0.975   1.265  0.0461  0.2804 -0.2696
 9624SOL    HW129450   5.054   0.939   1.318 -0.0101  0.0583 -0.3432
 9624SOL    HW229451   4.905   0.963   1.320 -0.2772 -1.4227 -1.0298
 9625SOL     OW29452   6.051   3.069   2.530 -0.1498 -0.0209 -1.0623
 9625SOL    HW129453   6.038   3.092   2.438  0.4649  0.4931 -1.0337
 9625SOL    HW229454   6.139   3.030   2.532 -0.6040 -1.0485 -0.8655
 9626SOL     OW29455   8.168   3.774   2.235 -0.0397  0.2946 -0.1403
 9626SOL    HW129456   8.223   3.702   2.264  0.2401  0.4598 -0.2640
 9626SOL    HW229457   8.116   3.796   2.313  2.0757  2.0188  0.9122
 9627SOL     OW29458   5.576   7.808   8.595  0.0396 -0.1888  0.2823
 9627SOL    HW129459   5.506   7.831   8.657 -0.8193 -1.2453 -0.2519
 9627SOL    HW229460   5.540   7.734   8.546  1.2740 -0.2907 -0.4957
 9628SOL     OW29461   8.213   0.130   0.729  0.2633  0.4782  0.1783
 9628SOL    HW129462   8.166   0.055   0.766  0.8130 -0.0291 -0.1327
 9628SOL    HW229463   8.196   0.125   0.635  0.3073  0.7430  0.1557
 9629SOL     OW29464   8.861   8.891   7.598 -0.5300  0.2743  0.0107
 9629SOL    HW129465   8.844   8.835   7.674 -0.5349 -0.3576 -0.4518
 9629SOL    HW229466   8.870   8.979   7.635  2.2615 -0.3712  1.1375
 9630SOL     OW29467   9.081   6.304   9.843 -0.0386  0.3863  0.3114
 9630SOL    HW129468   9.033   6.374   9.801 -0.2170 -0.1011 -0.3095
 9630SOL    HW229469   9.134   6.266   9.773 -1.4930 -1.4405  0.1234
 9631SOL     OW29470   7.155   2.322   8.954  0.1500 -0.1269 -0.4625
 9631SOL    HW129471   7.212   2.342   8.880 -0.6412  0.6191 -0.8859
 9631SOL    HW229472   7.151   2.227   8.956  0.6183 -0.1672 -1.0354
 9632SOL     OW29473   2.753   7.845   8.922  0.0384  0.0916  0.1346
 9632SOL    HW129474   2.790   7.892   8.997  0.5674 -0.5526  0.2813
 9632SOL    HW229475   2.823   7.843   8.857 -0.8293  1.8242 -0.9479
 9633SOL     OW29476   8.876   7.011   2.568  0.9107 -0.2821  0.2145
 9633SOL    HW129477   8.931   7.088   2.583  0.1983  0.6026 -1.3970
 9633SOL    HW229478   8.880   6.998   2.473 -0.3856 -1.1550  0.2600
 9634SOL     OW29479   1.396   7.104   8.682  0.0583  0.3276 -0.8338
 9634SOL    HW129480   1.484   7.126   8.715 -1.0920  2.0508  1.4238
 9634SOL    HW229481   1.391   7.148   8.598  1.4217 -0.0055 -1.1243
 9635SOL     OW29482   8.297   3.587   2.357 -0.1513  0.1834  0.0775
 9635SOL    HW129483   8.382   3.566   2.318  1.6728  2.9375  2.1605
 9635SOL    HW229484   8.294   3.533   2.437  0.5822  1.4547  0.9924
 9636SOL     OW29485   8.125   2.511   6.347 -0.3933 -0.4775  0.5962
 9636SOL    HW129486   8.099   2.602   6.332  1.1537 -0.3206 -1.7288
 9636SOL    HW229487   8.185   2.515   6.421 -1.2672  0.2100  1.2856
 9637SOL     OW29488   9.696   7.563   1.705  0.6654 -0.3150 -0.3632
 9637SOL    HW129489   9.740   7.517   1.633 -1.1144  0.6700 -2.1820
 9637SOL    HW229490   9.733   7.651   1.703  2.3756 -0.9053  1.6069
 9638SOL     OW29491   4.070   3.407   7.205 -0.1077 -0.8509 -0.5486
 9638SOL    HW129492   4.110   3.356   7.275  1.1794  0.8278  0.0203
 9638SOL    HW229493   4.134   3.404   7.134  0.0015 -0.0530 -0.4996
 9639SOL     OW29494   8.765   5.362   6.180  0.2483 -0.8037 -0.2432
 9639SOL    HW129495   8.683   5.398   6.145  2.0161  1.4215 -2.5610
 9639SOL    HW229496   8.779   5.282   6.130  0.5793  0.0656 -1.6100
 9640SOL     OW29497   8.902   6.267   2.355  0.4231 -0.0175  0.2573
 9640SOL    HW129498   8.837   6.244   2.422  1.0108  1.1865  1.2787
 9640SOL    HW229499   8.927   6.183   2.317 -0.4001 -0.6781  1.1129
 9641SOL     OW29500   7.668   2.450   8.574 -0.1365  0.1866 -0.2253
 9641SOL    HW129501   7.715   2.389   8.631 -0.6626 -0.5481 -0.5506
 9641SOL    HW229502   7.579   2.416   8.571  0.0119 -0.1755 -1.9720
 9642SOL     OW29503   2.593   7.353   1.676  0.0549 -0.2254  0.4893
 9642SOL    HW129504   2.615   7.446   1.678  0.2943 -0.1585 -2.0940
 9642SOL    HW229505   2.498   7.352   1.665  0.0910 -0.2981  0.2016
 9643SOL     OW29506   3.946   6.918   7.252  0.6389 -0.8140 -0.2725
 9643SOL    HW129507   3.871   6.974   7.267  1.2955 -0.0327  0.1623
 9643SOL    HW229508   3.909   6.830   7.243 -0.1374 -0.9957  3.1081
 9644SOL     OW29509   7.005   3.559   1.978 -0.0495  0.3783 -0.1633
 9644SOL    HW129510   6.960   3.629   2.026 -0.5661 -0.8007  1.1374
 9644SOL    HW229511   6.941   3.531   1.912 -0.9991 -0.7768  1.1840
 9645SOL     OW29512   4.260   5.685   5.858 -0.1885 -0.2885  0.3514
 9645SOL    HW129513   4.215   5.640   5.787 -0.1261  0.3817 -0.1281
 9645SOL    HW229514   4.353   5.680   5.834 -0.0926 -0.7865  0.8176
 9646SOL     OW29515   3.811   8.287   0.965 -0.2448 -0.2021 -0.4857
 9646SOL    HW129516   3.889   8.234   0.984  0.1479  0.2811 -0.7406
 9646SOL    HW229517   3.822   8.365   1.020 -0.4444 -0.0338 -0.6860
 9647SOL     OW29518   8.437   9.950   0.945  0.1031 -0.5242  0.2814
 9647SOL    HW129519   8.464   9.900   0.868  0.2896  0.9649 -0.6637
 9647SOL    HW229520   8.369   9.897   0.986 -1.0205 -0.7267 -1.7147
 9648SOL     OW29521   5.254   0.864   3.951  0.3198 -0.2811  0.1784
 9648SOL    HW129522   5.302   0.898   4.027  0.6575 -1.4091  0.4912
 9648SOL    HW229523   5.317   0.868   3.879  0.3595 -0.2510  0.2145
 9649SOL     OW29524   1.498   3.950   1.162 -0.3461  0.0145  0.0937
 9649SOL    HW129525   1.477   3.972   1.253  0.2692 -0.1515  0.2748
 9649SOL    HW229526   1.542   3.866   1.166  0.1198  0.2294 -0.3144
 9650SOL     OW29527   3.818   7.849   3.511 -0.0616 -0.2194  0.3017
 9650SOL    HW129528   3.747   7.900   3.471 -0.1383 -0.7115 -0.2030
 9650SOL    HW229529   3.878   7.832   3.438 -0.0071 -0.7943  0.4759
 9651SOL     OW29530   4.195   8.231   9.652  0.7425  0.0109 -1.1190
 9651SOL    HW129531   4.181   8.245   9.558  0.8027 -0.7786 -1.2524
 9651SOL    HW229532   4.114   8.189   9.682 -0.0779  1.9770 -0.4071
 9652SOL     OW29533   0.786   3.347   3.656  0.0574  0.3366  0.0387
 9652SOL    HW129534   0.789   3.259   3.619 -2.1136 -0.3389  1.3276
 9652SOL    HW229535   0.861   3.350   3.716  1.4793  0.2160 -1.6468
 9653SOL     OW29536   3.795   1.351   9.764  0.5121 -0.3060 -0.1845
 9653SOL    HW129537   3.776   1.298   9.686 -1.1863  0.9035 -0.6601
 9653SOL    HW229538   3.887   1.375   9.755  0.6998 -1.2871 -1.1230
 9654SOL     OW29539   5.792  10.000   0.309 -0.3687 -0.0292 -0.5013
 9654SOL    HW129540   5.764   9.947   0.234 -0.5111 -2.3769  1.1001
 9654SOL    HW229541   5.879   9.967   0.331 -0.3037  0.6522  0.3283
 9655SOL     OW29542   4.738   7.876   7.961  0.0699 -0.1557  0.4984
 9655SOL    HW129543   4.755   7.908   8.050 -1.2299 -0.2614  0.8105
 9655SOL    HW229544   4.765   7.949   7.904 -0.1883  0.3817  1.0499
 9656SOL     OW29545   9.894   2.390   8.499 -0.0397 -0.0215 -0.2229
 9656SOL    HW129546   9.848   2.468   8.468 -1.3671 -0.4789  0.5203
 9656SOL    HW229547   9.936   2.354   8.421 -0.8369  0.4868 -0.8919
 9657SOL     OW29548   2.141   0.126   9.480 -0.4730  0.5699  0.1404
 9657SOL    HW129549   2.103   0.195   9.426 -0.7708  0.3086  0.0099
 9657SOL    HW229550   2.065   0.083   9.521 -0.2016  1.4707  1.6512
 9658SOL     OW29551   2.333   3.451   5.778 -1.2509 -0.0980  0.0202
 9658SOL    HW129552   2.344   3.504   5.857  0.4092 -1.4957  0.8081
 9658SOL    HW229553   2.317   3.362   5.810 -2.3200 -0.3879 -1.2395
 9659SOL     OW29554   8.472   1.912   5.980 -0.3877 -0.1648 -0.2164
 9659SOL    HW129555   8.530   1.972   6.027  0.2094  0.1533 -1.3103
 9659SOL    HW229556   8.434   1.856   6.048  1.7128 -0.8163  0.4942
 9660SOL     OW29557   6.922   7.805   2.273 -0.0491  0.1583 -0.5841
 9660SOL    HW129558   6.893   7.804   2.181 -0.5966 -1.2021 -0.4213
 9660SOL    HW229559   6.904   7.717   2.305  2.7132 -0.2695  0.0624
 9661SOL     OW29560   5.517   9.718   3.573 -0.4158  0.3738 -0.1785
 9661SOL    HW129561   5.557   9.722   3.660 -1.0000 -0.7745  0.1525
 9661SOL    HW229562   5.499   9.810   3.551 -1.3588  0.5998  1.4131
 9662SOL     OW29563   3.930   0.540   7.803  0.4647  0.6967 -0.2374
 9662SOL    HW129564   3.905   0.458   7.760 -1.3817  1.2782 -0.3475
 9662SOL    HW229565   3.939   0.603   7.731  1.1482  0.7818 -0.0844
 9663SOL     OW29566   9.917   3.662   3.659  0.3703  0.5355  0.1035
 9663SOL    HW129567   9.948   3.643   3.747  0.5758 -0.5584 -0.1804
 9663SOL    HW229568   9.840   3.605   3.648  1.3330 -0.6216 -0.9866
 9664SOL     OW29569   8.529   3.193   5.408  0.4995  0.1265  0.2516
 9664SOL    HW129570   8.592   3.262   5.430  1.1825  0.0395 -1.3197
 9664SOL    HW229571   8.540   3.180   5.314 -1.5285 -0.2372  0.0223
 9665SOL     OW29572   1.241   5.977   8.653 -0.2432 -0.2109  0.2362
 9665SOL    HW129573   1.336   5.990   8.651 -0.2781 -0.0053 -0.1562
 9665SOL    HW229574   1.205   6.064   8.645 -0.4729 -0.4588 -1.9197
 9666SOL     OW29575   1.929   3.527   4.054  0.3281 -0.7348 -0.4815
 9666SOL    HW129576   1.956   3.536   3.963  1.1499 -0.0620 -0.1741
 9666SOL    HW229577   1.977   3.595   4.101 -1.0339 -0.2485  0.2640
 9667SOL     OW29578   4.685   9.670   3.345  0.1168 -0.1927  0.2030
 9667SOL    HW129579   4.745   9.733   3.385  1.7309 -1.3399 -0.3538
 9667SOL    HW229580   4.638   9.632   3.420  0.0947  0.6703  0.6446
 9668SOL     OW29581   7.817   1.472   1.065  0.0319 -0.4453 -0.2835
 9668SOL    HW129582   7.845   1.469   0.973  1.4919 -1.0532  0.1431
 9668SOL    HW229583   7.884   1.526   1.107  1.0650 -2.5461  0.9283
 9669SOL     OW29584   0.227   1.749   3.371 -0.3923 -0.2251 -0.3123
 9669SOL    HW129585   0.137   1.774   3.393 -0.6452 -2.4162  1.4464
 9669SOL    HW229586   0.274   1.758   3.454  0.2370 -2.1689 -0.4198
 9670SOL     OW29587   7.922   7.574  10.015 -0.5511 -0.1716  0.0734
 9670SOL    HW129588   7.946   7.657   9.973  0.4367 -0.5918 -0.2240
 9670SOL    HW229589   7.922   7.510   9.944 -3.5855 -0.0576 -0.1438
 9671SOL     OW29590   3.563   6.513   7.287 -0.0615  0.1285  0.3533
 9671SOL    HW129591   3.522   6.513   7.201  1.0663  0.2599 -0.2032
 9671SOL    HW229592   3.616   6.433   7.288  0.9782  0.7974  0.3951
 9672SOL     OW29593   3.222   3.443   6.577 -0.1352  0.0277 -0.4988
 9672SOL    HW129594   3.187   3.490   6.654 -2.1785 -0.0696 -1.3048
 9672SOL    HW229595   3.157   3.458   6.509  0.6794 -1.5018 -1.6662
 9673SOL     OW29596   6.846   5.586   0.665 -0.6023  0.0889  0.2494
 9673SOL    HW129597   6.935   5.619   0.653 -0.9837  0.2967 -2.5139
 9673SOL    HW229598   6.837   5.577   0.760  1.5138  2.3327  0.7547
 9674SOL     OW29599   5.927   5.703   5.575 -0.5454 -0.0717  0.0865
 9674SOL    HW129600   5.882   5.625   5.541 -1.0176 -1.0093  2.6439
 9674SOL    HW229601   5.988   5.728   5.505  0.3914 -3.3594 -0.4190
 9675SOL     OW29602   2.845   9.478   3.909 -0.1328  0.3256  0.1314
 9675SOL    HW129603   2.793   9.534   3.968 -2.2603 -1.5032  0.1511
 9675SOL    HW229604   2.886   9.539   3.848 -1.7823  1.9757  0.5581
 9676SOL     OW29605   7.234   8.735   4.782  0.6884 -0.1892 -0.2845
 9676SOL    HW129606   7.208   8.754   4.691 -1.3817 -3.1323 -0.4657
 9676SOL    HW229607   7.161   8.767   4.835  0.1064 -1.7834 -0.0692
 9677SOL     OW29608   3.994   2.719   8.732 -0.1999 -0.1553  0.1873
 9677SOL    HW129609   3.930   2.733   8.662 -0.8700  0.9471  0.9792
 9677SOL    HW229610   4.056   2.791   8.722 -0.8693  0.6098  1.3094
 9678SOL     OW29611   4.706   1.067   2.208 -0.1699  0.5826 -0.0454
 9678SOL    HW129612   4.627   1.121   2.197 -0.9717 -0.3777  0.7422
 9678SOL    HW229613   4.761   1.117   2.268 -0.9610  0.4985  0.7760
 9679SOL     OW29614   3.752   1.144   5.595  0.2234  0.0915  0.0328
 9679SOL    HW129615   3.678   1.147   5.657 -0.9515  1.0739 -1.3427
 9679SOL    HW229616   3.790   1.232   5.600  2.3521 -0.8345  1.8529
 9680SOL     OW29617   0.721   2.437   6.256 -0.2910  0.4368 -0.0734
 9680SOL    HW129618   0.707   2.532   6.257 -1.2789  0.3231 -0.8873
 9680SOL    HW229619   0.797   2.423   6.312 -1.7779  1.4369  2.3491
 9681SOL     OW29620   4.303   0.115   4.583 -0.3858  0.4675 -0.7842
 9681SOL    HW129621   4.219   0.093   4.624  1.2477 -3.0905  1.0752
 9681SOL    HW229622   4.297   0.079   4.495 -0.4862 -0.7767 -0.2922
 9682SOL     OW29623   3.572   3.037   8.162  0.5841 -0.0380 -0.1609
 9682SOL    HW129624   3.502   2.976   8.186  0.2290  0.6064  0.5188
 9682SOL    HW229625   3.525   3.113   8.126  0.8690  0.6835  0.9310
 9683SOL     OW29626   8.415   7.162   5.808 -0.1499 -0.4538 -0.0904
 9683SOL    HW129627   8.350   7.225   5.838  1.6736  0.8999  1.2374
 9683SOL    HW229628   8.405   7.087   5.866 -1.6782 -1.0273 -1.0511
 9684SOL     OW29629   1.014   4.615   7.587 -0.1252  1.1609  0.1128
 9684SOL    HW129630   1.062   4.666   7.522  0.5459  0.9543  0.4409
 9684SOL    HW229631   0.924   4.613   7.554  0.2902  0.7082 -1.0215
 9685SOL     OW29632   0.726   0.258   5.318  0.1202  0.3561 -0.0471
 9685SOL    HW129633   0.694   0.173   5.348  0.7813  0.0185 -0.2912
 9685SOL    HW229634   0.731   0.250   5.223  1.7278  0.1142  0.0374
 9686SOL     OW29635   9.078   4.706   3.095 -0.7547  0.1399  0.6676
 9686SOL    HW129636   9.019   4.699   3.170 -1.7169 -0.1910 -0.1066
 9686SOL    HW229637   9.032   4.664   3.023 -0.3414  1.4384 -0.4091
 9687SOL     OW29638   6.099   0.637   7.511  0.1220  0.0341 -0.3160
 9687SOL    HW129639   6.019   0.674   7.475  1.0385  0.9319 -1.5131
 9687SOL    HW229640   6.099   0.665   7.602 -0.4260  0.8876 -0.5656
 9688SOL     OW29641   2.876   8.488   1.806 -0.3236 -0.1719 -0.0507
 9688SOL    HW129642   2.819   8.565   1.808  0.0042  0.0713 -0.0516
 9688SOL    HW229643   2.815   8.414   1.810 -0.6852  0.0686 -0.7747
 9689SOL     OW29644   0.952   6.848   5.392  0.1889  0.6876 -0.1606
 9689SOL    HW129645   0.882   6.793   5.429  0.4874  0.9710  0.8369
 9689SOL    HW229646   1.024   6.841   5.454  0.0073  2.7268  0.3461
 9690SOL     OW29647   4.363   3.565   9.966 -0.5856  0.5450  0.4408
 9690SOL    HW129648   4.404   3.644   9.932 -0.4863 -0.0594 -0.8732
 9690SOL    HW229649   4.269   3.580   9.954 -0.5476  0.2977 -0.2111
 9691SOL     OW29650   1.139   8.675   1.628  0.6349 -0.1138 -0.1549
 9691SOL    HW129651   1.202   8.694   1.697  0.9351  0.6865 -0.6306
 9691SOL    HW229652   1.113   8.761   1.595  2.8546 -0.4247 -3.1493
 9692SOL     OW29653   8.687   9.747   8.976  0.3328  0.0353 -0.3420
 9692SOL    HW129654   8.700   9.662   8.935  1.6135  0.1003 -0.1063
 9692SOL    HW229655   8.669   9.728   9.068  0.2618  0.0039 -0.3622
 9693SOL     OW29656   0.721   3.559   6.468 -0.5654  0.4197  0.5777
 9693SOL    HW129657   0.679   3.644   6.482  2.7243  2.4392 -0.6891
 9693SOL    HW229658   0.702   3.537   6.377 -0.4114  0.3555  0.5615
 9694SOL     OW29659   4.822   6.862   2.706  0.5391 -0.0960  0.3349
 9694SOL    HW129660   4.795   6.781   2.663  1.5125 -0.2245 -0.0454
 9694SOL    HW229661   4.849   6.834   2.794 -1.9972  0.2399  1.3173
 9695SOL     OW29662   1.857   0.321   3.478  0.6873 -0.1815  0.1845
 9695SOL    HW129663   1.833   0.255   3.413  1.8853  0.5856 -1.0959
 9695SOL    HW229664   1.945   0.295   3.506  1.3801  1.0969 -0.6935
 9696SOL     OW29665   2.795   2.763   5.021 -0.1988  0.6289  0.2906
 9696SOL    HW129666   2.864   2.697   5.028  0.7551  1.3490 -1.6715
 9696SOL    HW229667   2.828   2.837   5.071  1.1751  1.4966 -1.8026
 9697SOL     OW29668   6.793   4.366   4.107  0.4998 -0.0762  0.0717
 9697SOL    HW129669   6.809   4.458   4.130  0.1435  0.1533 -0.5503
 9697SOL    HW229670   6.773   4.323   4.190 -1.4165  0.8597  0.1569
 9698SOL     OW29671   2.506   8.788   4.158  0.2376  0.1281  0.5469
 9698SOL    HW129672   2.498   8.796   4.063  0.8094 -1.8577  0.2788
 9698SOL    HW229673   2.416   8.783   4.189 -0.0259  2.4015  0.3423
 9699SOL     OW29674   8.754   6.477   2.699 -0.2055 -0.7425  0.1554
 9699SOL    HW129675   8.811   6.431   2.760  0.5695  0.4566  0.3633
 9699SOL    HW229676   8.810   6.495   2.623  0.1236  1.5309  0.8533
 9700SOL     OW29677   4.599   1.735   4.364 -0.1862 -0.0957  0.1427
 9700SOL    HW129678   4.624   1.814   4.410  0.7925  0.8257 -1.8413
 9700SOL    HW229679   4.566   1.676   4.432  2.8607  0.4492  2.3058
 9701SOL     OW29680   8.726   3.206   0.071  0.0296  0.5916 -0.3542
 9701SOL    HW129681   8.650   3.231   0.123 -0.8587  1.2902 -1.9256
 9701SOL    HW229682   8.793   3.270   0.095  0.0571  0.1574  0.8151
 9702SOL     OW29683   9.740   9.908   2.459 -0.1859  0.2974 -0.1592
 9702SOL    HW129684   9.813   9.964   2.434  0.9753  0.1194  2.4515
 9702SOL    HW229685   9.768   9.868   2.541 -1.8906 -2.3848 -0.7573
 9703SOL     OW29686   6.703   4.076   1.220 -0.3076  0.3592 -0.0454
 9703SOL    HW129687   6.734   3.985   1.221 -1.8025 -0.2111 -0.6356
 9703SOL    HW229688   6.761   4.121   1.159  0.1379 -0.3424 -0.1470
 9704SOL     OW29689   8.697   3.884   0.918 -0.2137 -0.1442 -0.1537
 9704SOL    HW129690   8.606   3.872   0.945  0.4316 -1.1765  1.7483
 9704SOL    HW229691   8.718   3.974   0.945 -0.4362 -0.1760  0.1322
 9705SOL     OW29692   5.657   3.874   1.672  0.7019 -0.1447 -0.2036
 9705SOL    HW129693   5.718   3.814   1.715 -0.1246 -1.3653 -0.6896
 9705SOL    HW229694   5.685   3.874   1.581  1.1671  0.8238 -0.0711
 9706SOL     OW29695   7.334   5.745   0.721  0.3715 -0.1032 -0.0875
 9706SOL    HW129696   7.387   5.756   0.643 -0.0805 -1.0499 -0.5436
 9706SOL    HW229697   7.395   5.757   0.794  0.6200  1.7160 -0.5460
 9707SOL     OW29698   1.371   6.334   4.996  0.1308  0.5932  0.4866
 9707SOL    HW129699   1.338   6.419   5.027 -1.6332  0.3010 -0.4493
 9707SOL    HW229700   1.462   6.352   4.971 -0.2614  2.2746  0.1238
 9708SOL     OW29701   8.739   1.054   0.805  0.3807 -0.6516 -0.3484
 9708SOL    HW129702   8.678   0.989   0.839 -1.5656 -0.3079 -2.8496
 9708SOL    HW229703   8.689   1.136   0.806  1.5852  0.1088 -0.4217
 9709SOL     OW29704   9.511   5.635   4.585  0.1855  0.7005  0.4125
 9709SOL    HW129705   9.425   5.655   4.547 -0.7202 -1.1933  1.3616
 9709SOL    HW229706   9.509   5.676   4.672  0.1535  0.4533  0.5276
 9710SOL     OW29707   2.539   9.596   0.133  0.0463 -1.4335  0.2824
 9710SOL    HW129708   2.465   9.612   0.075  1.3476 -0.8906 -1.3243
 9710SOL    HW229709   2.565   9.505   0.116  0.7062 -1.1364 -0.3512
 9711SOL     OW29710   2.387   9.427   6.784 -0.3587 -0.0534 -0.2809
 9711SOL    HW129711   2.329   9.486   6.736  0.8627  1.5924  0.1830
 9711SOL    HW229712   2.466   9.422   6.730 -0.6042 -1.6464 -0.5262
 9712SOL     OW29713   6.333   3.382   8.382 -0.3618 -0.3335 -0.4739
 9712SOL    HW129714   6.351   3.310   8.442  1.6027  0.9474  0.5865
 9712SOL    HW229715   6.241   3.373   8.360  0.0050 -3.7170 -1.1672
 9713SOL     OW29716   5.793   5.487   1.737 -0.6978  0.0827 -0.2614
 9713SOL    HW129717   5.845   5.437   1.674  1.2977  0.2324  1.1509
 9713SOL    HW229718   5.765   5.423   1.802 -0.9701  0.2453 -0.2178
 9714SOL     OW29719   8.688   7.389   6.898 -0.3090 -0.0280 -0.4146
 9714SOL    HW129720   8.782   7.376   6.906 -0.3658 -0.7339 -0.7828
 9714SOL    HW229721   8.652   7.359   6.981 -0.4540 -2.6212 -1.3035
 9715SOL     OW29722   0.449   8.026   9.361 -0.0112  0.1903  0.2798
 9715SOL    HW129723   0.378   8.052   9.419  1.0249  1.9732  0.8070
 9715SOL    HW229724   0.407   7.971   9.295 -1.9547  1.5085  0.3393
 9716SOL     OW29725   9.611   9.826   0.983  0.1622  0.2900 -0.0893
 9716SOL    HW129726   9.607   9.905   1.036 -1.6631 -0.3998  0.8820
 9716SOL    HW229727   9.670   9.767   1.031  0.4472  0.5563 -0.1100
 9717SOL     OW29728   6.094   4.173   4.052 -0.0285  0.6143  0.2622
 9717SOL    HW129729   6.168   4.191   3.995 -1.3450 -3.7937 -3.3935
 9717SOL    HW229730   6.131   4.125   4.126  1.0232  1.2496  0.1621
 9718SOL     OW29731   0.182   8.785   6.673 -0.0025  0.0434  0.6296
 9718SOL    HW129732   0.269   8.799   6.710 -0.0548  0.6876  0.5279
 9718SOL    HW229733   0.140   8.724   6.734 -0.1087  1.1303  1.6821
 9719SOL     OW29734   8.988   3.842   2.968  0.0882 -0.0094  0.4913
 9719SOL    HW129735   9.076   3.804   2.965  0.4444  0.7671  0.7914
 9719SOL    HW229736   8.930   3.767   2.980  0.7070 -0.5316  0.2777
 9720SOL     OW29737   1.904   9.619   3.874  0.1254 -0.0906  0.2900
 9720SOL    HW129738   1.993   9.604   3.844  0.6114  0.8864  1.2142
 9720SOL    HW229739   1.913   9.676   3.950 -1.3132  0.3418  0.1643
 9721SOL     OW29740   1.674   6.590   6.552 -0.0982 -0.8101 -0.0959
 9721SOL    HW129741   1.715   6.576   6.637  1.4006  2.4807 -0.1227
 9721SOL    HW229742   1.581   6.603   6.572 -0.0942 -1.8899  0.7503
 9722SOL     OW29743   8.498   2.209   0.953  0.0661 -0.3561 -0.0782
 9722SOL    HW129744   8.446   2.154   0.895 -0.4358  0.4074 -0.3554
 9722SOL    HW229745   8.434   2.262   1.000  0.5483 -0.0203  0.2068
 9723SOL     OW29746   2.235   0.705   0.913  0.4725  0.0750  0.4100
 9723SOL    HW129747   2.205   0.791   0.886 -0.3184 -0.1820  0.4236
 9723SOL    HW229748   2.314   0.721   0.964  0.9420  0.6984 -0.4954
 9724SOL     OW29749   5.703   8.028   7.548 -0.4408  0.4186 -0.5580
 9724SOL    HW129750   5.649   8.005   7.472  0.1445 -1.4089 -0.4819
 9724SOL    HW229751   5.766   7.956   7.555  1.8341  2.2890 -0.4410
 9725SOL     OW29752   0.879   3.572   3.522 -0.9156  0.3447  0.1232
 9725SOL    HW129753   0.847   3.495   3.569 -0.4120  0.2688  0.3550
 9725SOL    HW229754   0.855   3.557   3.431 -1.0918  0.0617  0.2161
 9726SOL     OW29755   9.060   6.978   1.932 -0.2084 -0.5717 -0.0961
 9726SOL    HW129756   9.081   6.995   1.840 -0.2996  0.0567 -0.0067
 9726SOL    HW229757   9.079   7.061   1.976 -1.0196 -0.5967  0.3040
 9727SOL     OW29758   6.467   1.264   8.046 -0.4566  0.0092  0.3823
 9727SOL    HW129759   6.489   1.351   8.078 -1.6742  0.4007  0.2017
 9727SOL    HW229760   6.373   1.268   8.028 -0.2110 -0.8294 -1.2397
 9728SOL     OW29761   7.751   0.440   0.066 -0.0030  0.2631  0.0063
 9728SOL    HW129762   7.675   0.467   0.117 -0.0795  1.8198 -0.8665
 9728SOL    HW229763   7.759   0.506  -0.003  0.6833 -1.2009 -1.4145
 9729SOL     OW29764   7.269   2.808   9.949  0.2679 -0.2621 -0.3142
 9729SOL    HW129765   7.265   2.854   9.865  0.8499 -0.2776 -0.3515
 9729SOL    HW229766   7.310   2.724   9.928 -0.0088 -0.4524 -0.0965
 9730SOL     OW29767   9.900   9.700   2.584 -1.1049 -0.0721  0.1950
 9730SOL    HW129768   9.970   9.714   2.520 -2.4300  1.2062 -1.0490
 9730SOL    HW229769   9.945   9.693   2.668  0.4909  1.1422 -0.5112
 9731SOL     OW29770   0.764   0.235   4.245  0.2823 -0.3818 -0.6980
 9731SOL    HW129771   0.797   0.187   4.170  0.0392 -1.3403 -0.2115
 9731SOL    HW229772   0.681   0.273   4.216 -0.0529 -1.1583 -0.7761
 9732SOL     OW29773   3.530   0.351   8.217  0.0016  0.1919  0.0002
 9732SOL    HW129774   3.588   0.279   8.241 -0.5255 -0.8734 -1.7955
 9732SOL    HW229775   3.585   0.411   8.167 -0.2838 -0.5497 -1.2320
 9733SOL     OW29776   2.531   8.336   9.337  0.1546 -0.1515  0.5961
 9733SOL    HW129777   2.463   8.372   9.395 -0.2368  1.2310 -0.6632
 9733SOL    HW229778   2.612   8.343   9.387 -0.3414 -0.0620  1.4073
 9734SOL     OW29779   9.856   7.947   2.159 -0.3855 -0.6952  0.5573
 9734SOL    HW129780   9.837   7.936   2.252  0.0627 -0.6694  0.6536
 9734SOL    HW229781   9.909   8.026   2.155 -0.3461 -0.7360  0.2851
 9735SOL     OW29782   0.959   2.849   9.168 -0.2575  0.1345  0.2147
 9735SOL    HW129783   0.985   2.842   9.260  2.0214 -1.2505 -0.4569
 9735SOL    HW229784   0.901   2.775   9.154 -1.6608  1.0711  0.7875
 9736SOL     OW29785   7.970   6.588   1.703  0.3566 -0.1763 -0.3028
 9736SOL    HW129786   8.021   6.652   1.653 -0.2679 -0.5757 -1.4902
 9736SOL    HW229787   7.927   6.639   1.771 -0.0217  0.6427 -1.1446
 9737SOL     OW29788   8.611   5.937   9.543 -0.2242  0.3114 -0.3617
 9737SOL    HW129789   8.588   5.865   9.484  0.4889  1.0473 -1.5740
 9737SOL    HW229790   8.706   5.946   9.535  0.2161 -0.7273  2.3005
 9738SOL     OW29791   1.241   6.713   9.313 -0.4364  0.0996  0.2739
 9738SOL    HW129792   1.298   6.714   9.236 -2.0476  0.7089 -0.9607
 9738SOL    HW229793   1.238   6.804   9.341 -0.1201 -0.0706  0.8754
 9739SOL     OW29794   9.426   4.833   0.553 -0.1165 -0.3558 -0.1334
 9739SOL    HW129795   9.486   4.830   0.478 -1.4615  1.2525 -1.3338
 9739SOL    HW229796   9.406   4.741   0.572 -1.7707 -0.8080 -3.4585
 9740SOL     OW29797   7.854   0.280   8.356  0.0784 -0.2442 -0.3237
 9740SOL    HW129798   7.761   0.304   8.363  0.4349  0.7048  2.7561
 9740SOL    HW229799   7.853   0.194   8.314 -2.1641 -0.0999 -0.7187
 9741SOL     OW29800   7.379   1.419   2.090 -0.1853 -0.6385 -0.4182
 9741SOL    HW129801   7.353   1.347   2.147 -0.1990  0.0049  0.4090
 9741SOL    HW229802   7.354   1.390   2.002 -2.2161 -0.7357  0.1329
 9742SOL     OW29803   0.936   9.051   3.176 -0.4484  0.0861 -0.1263
 9742SOL    HW129804   1.015   9.010   3.141 -0.4021 -0.4827  0.6469
 9742SOL    HW229805   0.884   8.979   3.212 -0.9297  0.5588  0.1437
 9743SOL     OW29806   6.171   9.184   4.746  0.3937  0.2109  0.1684
 9743SOL    HW129807   6.254   9.149   4.777  0.0998  0.2132  0.9853
 9743SOL    HW229808   6.169   9.274   4.779  0.5315  0.5540 -0.7435
 9744SOL     OW29809   4.368   9.549   3.286  0.7942  0.3850 -0.0350
 9744SOL    HW129810   4.336   9.594   3.364 -1.3395 -1.0544  0.0144
 9744SOL    HW229811   4.460   9.529   3.305  0.2149 -0.3446  2.3472
 9745SOL     OW29812   2.644   8.276   3.152 -0.0378  0.0944 -0.2299
 9745SOL    HW129813   2.642   8.250   3.244  1.3483  0.6945  0.0069
 9745SOL    HW229814   2.722   8.331   3.145  0.2944 -0.5332 -1.9151
 9746SOL     OW29815   9.603   7.252   4.691 -0.3993  0.6688 -0.1203
 9746SOL    HW129816   9.573   7.334   4.731 -0.4115  0.1912  0.8750
 9746SOL    HW229817   9.695   7.244   4.718 -0.1947  0.7072 -0.8001
 9747SOL     OW29818   6.692   1.869   1.342  0.0171  0.3191 -0.5090
 9747SOL    HW129819   6.607   1.897   1.374 -0.3623 -1.9413  0.6770
 9747SOL    HW229820   6.672   1.802   1.276  0.8764  0.4700 -0.9409
 9748SOL     OW29821   5.771   6.728   0.283 -0.3075 -0.1185 -0.5029
 9748SOL    HW129822   5.756   6.694   0.195  0.3781  0.4182 -0.8336
 9748SOL    HW229823   5.862   6.759   0.282  0.3068 -1.7136  0.9179
 9749SOL     OW29824   8.872   0.670   3.837  0.1274 -0.5633  0.2672
 9749SOL    HW129825   8.924   0.601   3.879  1.1306 -0.4063 -0.6605
 9749SOL    HW229826   8.874   0.647   3.744 -1.6727 -0.6682  0.2268
 9750SOL     OW29827   8.862   5.732   4.959  0.2519  0.7055  0.3634
 9750SOL    HW129828   8.837   5.712   4.869  1.5380 -0.0229  0.1450
 9750SOL    HW229829   8.958   5.736   4.957  0.3737 -0.5077  1.9302
 9751SOL     OW29830   9.525   0.424   2.419 -0.6480 -0.2038  0.0388
 9751SOL    HW129831   9.462   0.400   2.486  2.3551 -0.8263  2.9394
 9751SOL    HW229832   9.508   0.517   2.401 -2.0533 -0.2428  1.0525
 9752SOL     OW29833   2.060   5.621   4.809  0.9322 -0.5088  0.4962
 9752SOL    HW129834   1.988   5.678   4.783  1.3847  0.0148  0.3665
 9752SOL    HW229835   2.108   5.603   4.728  0.7094 -1.2081  0.5095
 9753SOL     OW29836   0.837   6.342   5.745 -0.4755 -0.1966 -0.1326
 9753SOL    HW129837   0.768   6.299   5.695  1.4025 -3.4602 -0.2321
 9753SOL    HW229838   0.892   6.384   5.679 -0.9926  0.2308 -0.2914
 9754SOL     OW29839   3.851   3.405   9.803 -0.5382 -0.9919  0.0987
 9754SOL    HW129840   3.829   3.406   9.710 -0.1849 -1.7788 -0.0072
 9754SOL    HW229841   3.801   3.332   9.839 -3.4925  1.4144  1.3041
 9755SOL     OW29842   1.334   7.761   5.263 -0.3085  0.2134 -0.1109
 9755SOL    HW129843   1.273   7.739   5.333 -0.3516  1.1240  0.1558
 9755SOL    HW229844   1.341   7.857   5.267  1.3501  0.1168  0.0602
 9756SOL     OW29845   4.670   9.013   1.740  0.2698  0.2217 -0.1218
 9756SOL    HW129846   4.654   9.078   1.671  3.7305 -1.2423 -2.5971
 9756SOL    HW229847   4.757   9.034   1.773  0.4878 -1.7665  0.6900
 9757SOL     OW29848   0.488   2.656   4.508 -0.0327  0.2387  0.8651
 9757SOL    HW129849   0.507   2.645   4.415  0.1945 -1.2217  1.0558
 9757SOL    HW229850   0.420   2.723   4.511 -0.2611  0.0969 -0.3708
 9758SOL     OW29851   0.830   0.855   1.138 -0.1325  0.0671  0.3813
 9758SOL    HW129852   0.807   0.944   1.111  3.4997  1.2452  0.6588
 9758SOL    HW229853   0.831   0.858   1.234 -0.0494 -0.3092  0.3948
 9759SOL     OW29854   7.380   4.333   7.878  0.0263  0.3998  0.3291
 9759SOL    HW129855   7.332   4.347   7.960  0.8232 -0.9053  1.0584
 9759SOL    HW229856   7.471   4.357   7.899 -0.0849  1.9383 -0.7606
 9760SOL     OW29857   4.214   6.810   5.010  0.2988  0.2816  0.2625
 9760SOL    HW129858   4.248   6.744   5.071 -1.1961 -0.5048  0.2977
 9760SOL    HW229859   4.219   6.892   5.059 -1.3618 -0.4055  1.7066
 9761SOL     OW29860   8.159   3.830   8.615  0.1416  0.0362 -0.0965
 9761SOL    HW129861   8.158   3.747   8.568 -0.2631  0.7728 -1.4295
 9761SOL    HW229862   8.176   3.896   8.548  0.9519  0.9989  1.0111
 9762SOL     OW29863   0.207   5.523   9.030  0.0511  0.2258 -0.6034
 9762SOL    HW129864   0.271   5.526   9.101  0.7050  1.2124 -1.1992
 9762SOL    HW229865   0.218   5.436   8.991 -0.5389 -0.4384  0.6759
 9763SOL     OW29866   3.089   8.314   7.910 -0.3044 -0.2142 -0.5488
 9763SOL    HW129867   3.123   8.317   7.821 -1.2994 -1.6006 -1.0019
 9763SOL    HW229868   3.012   8.257   7.905 -0.3799 -0.3201  1.1923
 9764SOL     OW29869   8.465   3.714   2.991 -0.1150 -0.4723 -0.4843
 9764SOL    HW129870   8.443   3.750   3.077 -0.6528  0.1503 -0.8685
 9764SOL    HW229871   8.434   3.781   2.929 -0.2918 -1.1865 -1.1792
 9765SOL     OW29872   1.513   4.325   6.496 -0.5616  0.1423  0.7879
 9765SOL    HW129873   1.492   4.391   6.430 -0.3893  0.9898  1.5606
 9765SOL    HW229874   1.474   4.245   6.462  1.3632  0.0340 -1.3880
 9766SOL     OW29875   7.020   5.038   4.593  0.3242 -0.3231 -0.2603
 9766SOL    HW129876   7.038   5.078   4.508  0.3274  0.6260  0.1797
 9766SOL    HW229877   7.050   4.947   4.584  1.4563  0.0946 -0.8807
 9767SOL     OW29878   5.121   0.336   5.522 -0.4190 -0.2415 -0.2087
 9767SOL    HW129879   5.096   0.405   5.461 -0.2001 -1.9065 -2.2881
 9767SOL    HW229880   5.047   0.331   5.583 -0.8249  1.2122 -0.5380
 9768SOL     OW29881   6.632   0.861   7.425 -0.0550  0.2510 -0.1414
 9768SOL    HW129882   6.714   0.866   7.376 -0.1194 -0.5170 -0.3421
 9768SOL    HW229883   6.573   0.919   7.379 -0.3074 -0.9446 -1.3810
 9769SOL     OW29884   1.670   9.469   8.129 -0.2403 -0.6808 -0.7471
 9769SOL    HW129885   1.578   9.478   8.102 -1.3440  0.2819  2.8082
 9769SOL    HW229886   1.708   9.555   8.112 -0.9760 -0.0181  0.8054
 9770SOL     OW29887   1.055   9.384   0.926  0.4980 -0.7300 -0.0454
 9770SOL    HW129888   1.082   9.344   1.009 -0.5947  0.5060  0.9567
 9770SOL    HW229889   1.120   9.354   0.863  2.1316 -0.6661  1.5210
 9771SOL     OW29890   2.256   5.591   5.819  0.3891 -0.0673 -0.2149
 9771SOL    HW129891   2.208   5.625   5.895 -0.9487 -0.0726 -1.0335
 9771SOL    HW229892   2.217   5.505   5.803  0.5456  0.0088 -1.0046
 9772SOL     OW29893   8.880   8.986   0.376  0.2900  0.4788  0.1576
 9772SOL    HW129894   8.919   9.069   0.347  0.7540  1.2062  2.5770
 9772SOL    HW229895   8.787   9.006   0.388  0.4152  0.7002  0.8132
 9773SOL     OW29896   0.819   8.672   8.424  0.0775  0.4529  0.2402
 9773SOL    HW129897   0.792   8.725   8.349  1.4008  0.3087 -0.3537
 9773SOL    HW229898   0.837   8.586   8.387 -0.8356 -0.0914  1.0046
 9774SOL     OW29899   3.850   3.537   4.227  0.3742  0.6958 -0.5587
 9774SOL    HW129900   3.762   3.548   4.193 -0.4600 -1.2287  0.7730
 9774SOL    HW229901   3.894   3.621   4.209 -1.3322  1.2982 -2.2542
 9775SOL     OW29902   3.294   4.859   9.673  0.0999 -0.0122 -0.4127
 9775SOL    HW129903   3.330   4.791   9.616  0.6303  1.9157 -2.5574
 9775SOL    HW229904   3.201   4.839   9.678  0.0957 -0.4328 -1.7383
 9776SOL     OW29905   2.727   9.138   5.111 -0.1457 -0.2633 -0.0177
 9776SOL    HW129906   2.635   9.131   5.135  0.0901  0.4590  1.2019
 9776SOL    HW229907   2.735   9.087   5.030 -1.5819 -0.4182 -0.0878
 9777SOL     OW29908   6.830   8.755   2.395 -0.0120 -0.1964 -0.0156
 9777SOL    HW129909   6.785   8.766   2.311  1.4631 -1.1977 -1.0038
 9777SOL    HW229910   6.830   8.660   2.409  1.1454 -0.1715  0.2840
 9778SOL     OW29911   2.822   6.808   1.658  0.1384  0.6424 -0.0464
 9778SOL    HW129912   2.810   6.801   1.563  1.5995  0.5436 -0.2427
 9778SOL    HW229913   2.834   6.902   1.673  0.6442  0.5765 -0.0515
 9779SOL     OW29914   7.661   4.865   1.187 -0.0355  0.2351  0.4646
 9779SOL    HW129915   7.659   4.916   1.106 -0.3645  1.3933  1.1726
 9779SOL    HW229916   7.569   4.850   1.208  0.0256  0.7336  1.0991
 9780SOL     OW29917   8.892   8.979   9.206 -0.3027 -0.0975  0.0442
 9780SOL    HW129918   8.802   9.003   9.229  0.2474  1.7925  0.3578
 9780SOL    HW229919   8.946   9.028   9.267  0.9549 -1.7119  0.2833
 9781SOL     OW29920   2.966   7.769   9.488 -0.0094 -0.0510 -0.0395
 9781SOL    HW129921   3.025   7.697   9.509 -0.7522 -0.3836  0.9887
 9781SOL    HW229922   2.928   7.793   9.572 -0.8117  0.6247 -0.5877
 9782SOL     OW29923   3.534   9.202   5.432  0.2144  0.0144  0.2704
 9782SOL    HW129924   3.520   9.207   5.337 -0.5901  0.6006  0.4108
 9782SOL    HW229925   3.478   9.270   5.468  0.0766 -0.5808  1.2197
 9783SOL     OW29926   9.308   3.214   7.208  0.0371 -0.5014 -0.5273
 9783SOL    HW129927   9.324   3.308   7.199  0.9647 -0.8071 -2.9754
 9783SOL    HW229928   9.252   3.206   7.285  0.1177  2.0285 -0.1275
 9784SOL     OW29929   0.263   1.820   9.616  0.0595  0.0971 -0.3389
 9784SOL    HW129930   0.321   1.761   9.568  1.7686  1.0192  0.4888
 9784SOL    HW229931   0.273   1.792   9.708 -1.0420  0.1014 -0.2080
 9785SOL     OW29932   8.300   4.568   0.758  0.1370  0.5163  0.1164
 9785SOL    HW129933   8.220   4.551   0.807  0.6548  0.5012  0.9814
 9785SOL    HW229934   8.333   4.650   0.793  0.9098  0.1239  0.3348
 9786SOL     OW29935   5.175   3.280   0.969  0.2196 -1.0648 -0.1583
 9786SOL    HW129936   5.085   3.249   0.958 -0.7121  1.2973  0.0881
 9786SOL    HW229937   5.222   3.246   0.894 -1.0848 -1.7149 -0.7086
 9787SOL     OW29938   5.771   6.868   1.371 -0.7508  0.4153  0.3240
 9787SOL    HW129939   5.678   6.875   1.395 -0.3371  2.4892  1.6024
 9787SOL    HW229940   5.790   6.950   1.326  0.6216  0.3214  0.6997
 9788SOL     OW29941   4.560   9.587   8.713  0.8338  0.5031 -0.2928
 9788SOL    HW129942   4.532   9.642   8.640  0.9881  1.7200  0.5536
 9788SOL    HW229943   4.510   9.506   8.701 -0.6039  1.4011 -0.6629
 9789SOL     OW29944   4.104   2.991   9.014 -0.0344 -0.0292  0.2340
 9789SOL    HW129945   4.175   2.928   9.030 -0.0504 -0.0924  0.0537
 9789SOL    HW229946   4.149   3.072   8.990 -0.0406 -0.5810 -1.8051
 9790SOL     OW29947   9.570   9.093   2.049  0.2527  0.2315  0.0296
 9790SOL    HW129948   9.503   9.118   1.985  0.3949  1.1141  0.2120
 9790SOL    HW229949   9.631   9.039   1.999 -1.3247 -1.8479  0.1852
 9791SOL     OW29950   0.474   5.373   2.294  0.2421 -0.0022  0.1397
 9791SOL    HW129951   0.479   5.311   2.221  0.8900 -0.1657  0.3142
 9791SOL    HW229952   0.558   5.419   2.292  0.5079 -0.4126  1.1245
 9792SOL     OW29953   9.588   0.960   9.127  0.3411  0.3178 -0.8641
 9792SOL    HW129954   9.504   0.958   9.172  0.4314 -0.6873 -0.7338
 9792SOL    HW229955   9.647   0.909   9.182  0.4422 -0.9736 -2.1219
 9793SOL     OW29956   4.868   3.809   9.100  0.6762 -0.3454 -0.6010
 9793SOL    HW129957   4.799   3.775   9.043 -1.1274  0.6425  0.8912
 9793SOL    HW229958   4.889   3.895   9.064  1.0676 -0.5909 -0.9761
 9794SOL     OW29959   6.572   0.641   2.472  0.1507 -0.4390  0.3884
 9794SOL    HW129960   6.509   0.576   2.439  0.1990  0.1000 -0.8358
 9794SOL    HW229961   6.640   0.645   2.404  1.0871 -0.4154  1.3056
 9795SOL     OW29962   9.986   1.744   5.701 -0.4193 -0.1052  0.8556
 9795SOL    HW129963   9.915   1.756   5.764 -1.5272 -1.2400 -0.1237
 9795SOL    HW229964   9.984   1.651   5.680  0.1908  0.1664 -0.5455
 9796SOL     OW29965   1.862   6.310   1.115 -0.1068  0.3247 -0.3673
 9796SOL    HW129966   1.902   6.367   1.050 -0.5923  0.6848 -0.3561
 9796SOL    HW229967   1.931   6.292   1.178  0.3123  0.1367 -0.8711
 9797SOL     OW29968   2.613   4.878   4.083 -0.6950  0.1114  0.1358
 9797SOL    HW129969   2.643   4.954   4.034  0.1346 -0.2016  0.1382
 9797SOL    HW229970   2.540   4.910   4.135  0.0835  1.0921  0.6648
 9798SOL     OW29971   3.903   1.881   6.563 -0.0150 -0.0611 -0.2582
 9798SOL    HW129972   3.921   1.969   6.595  0.5344 -0.5561  0.8517
 9798SOL    HW229973   3.811   1.882   6.537 -0.2501  0.5930  0.5877
 9799SOL     OW29974   2.102   3.237   0.240 -0.2477  0.4430  0.0098
 9799SOL    HW129975   2.029   3.199   0.288  0.6901 -2.8309 -0.8995
 9799SOL    HW229976   2.073   3.239   0.149  0.4889 -0.1597 -0.2488
 9800SOL     OW29977   2.987   3.730   8.127  0.7764 -0.1797  0.3236
 9800SOL    HW129978   2.981   3.636   8.112 -0.5777  0.0227 -0.5540
 9800SOL    HW229979   2.908   3.766   8.087  1.7642  1.4426 -0.2638
 9801SOL     OW29980   8.191   5.332   8.720 -0.0997 -0.0334  0.5259
 9801SOL    HW129981   8.257   5.286   8.772  1.6796  1.1111 -0.6277
 9801SOL    HW229982   8.195   5.423   8.751 -0.8434  0.1390  0.1467
 9802SOL     OW29983   8.011   3.169   5.174 -0.6866  0.3818  0.2163
 9802SOL    HW129984   8.048   3.241   5.226 -1.3333  1.7095 -1.0976
 9802SOL    HW229985   7.926   3.153   5.214 -0.2155 -0.2376  1.0129
 9803SOL     OW29986   1.120   1.685   6.578 -0.0121  0.3355 -0.3692
 9803SOL    HW129987   1.025   1.684   6.567  0.1030  2.0308 -1.9892
 9803SOL    HW229988   1.133   1.723   6.665 -0.8092 -0.5428  0.1500
 9804SOL     OW29989   6.345   4.074   0.909 -0.5431 -0.3419  0.2457
 9804SOL    HW129990   6.327   4.160   0.869 -0.4311 -0.1744  0.5517
 9804SOL    HW229991   6.258   4.038   0.926 -0.6612  0.7625  2.3491
 9805SOL     OW29992   4.159   0.238   3.390 -0.0892  0.1654  0.3754
 9805SOL    HW129993   4.124   0.298   3.324  0.0006 -0.6454 -0.4328
 9805SOL    HW229994   4.136   0.278   3.474 -0.8894  0.8209 -0.1421
 9806SOL     OW29995   3.769   4.283   7.503 -0.1013  0.2838  0.0780
 9806SOL    HW129996   3.709   4.250   7.436  0.8234  2.9152 -2.2774
 9806SOL    HW229997   3.712   4.311   7.575 -1.0160 -4.2019  1.4160
 9807SOL     OW29998   1.512   0.704   5.071 -0.1470 -0.2869  0.0085
 9807SOL    HW129999   1.488   0.775   5.011 -1.4652 -0.0902  0.7245
 9807SOL    HW230000   1.433   0.689   5.123  0.8721 -0.6124  1.5315
 9808SOL     OW30001   3.932   7.994   2.287 -0.6339  0.6072  0.0420
 9808SOL    HW130002   3.886   8.050   2.225 -0.5414  0.9937  0.3224
 9808SOL    HW230003   4.003   8.048   2.320 -3.0545  1.9379  3.6382
 9809SOL     OW30004   3.232   9.329   7.518 -1.3029  0.0007 -0.0832
 9809SOL    HW130005   3.307   9.278   7.546 -1.2563  0.2860  0.3172
 9809SOL    HW230006   3.249   9.347   7.425 -1.1014 -0.3194 -0.1088
 9810SOL     OW30007   6.655   9.194   1.603  0.1945 -0.1277 -0.4599
 9810SOL    HW130008   6.662   9.286   1.630 -0.9633 -0.2443  0.3119
 9810SOL    HW230009   6.626   9.148   1.682 -0.7033 -0.9151 -1.2203
 9811SOL     OW30010   5.281   0.724   0.352 -0.2124  0.1073 -0.4822
 9811SOL    HW130011   5.209   0.786   0.346  0.0795  0.6899  1.2850
 9811SOL    HW230012   5.355   0.776   0.384  0.7621 -0.6476 -1.4610
 9812SOL     OW30013   1.954   6.568   9.441 -0.0833  0.4706  0.8245
 9812SOL    HW130014   1.937   6.609   9.526  1.2585  0.6163  1.0365
 9812SOL    HW230015   2.045   6.590   9.422  0.9036 -2.8604  1.1949
 9813SOL     OW30016   4.179   3.183   4.037  0.5746 -0.2627 -0.8165
 9813SOL    HW130017   4.215   3.194   4.125 -0.6804  0.3578 -0.3652
 9813SOL    HW230018   4.085   3.198   4.047  0.4861  0.3359 -2.3563
 9814SOL     OW30019   5.151   5.875   9.081  0.1179  0.3061  0.3016
 9814SOL    HW130020   5.205   5.954   9.073  1.5382 -0.6909 -0.3689
 9814SOL    HW230021   5.136   5.866   9.175  0.6311  0.9488  0.4502
 9815SOL     OW30022   7.121   8.913   3.606  0.5493 -0.3710  0.2063
 9815SOL    HW130023   7.142   8.889   3.696 -1.1556 -2.1726  0.1893
 9815SOL    HW230024   7.196   8.882   3.555  0.7756 -0.8398  0.8118
 9816SOL     OW30025   4.833   4.661   2.385  0.3049  0.1367  0.0760
 9816SOL    HW130026   4.810   4.717   2.459  1.4594 -1.3445  1.6308
 9816SOL    HW230027   4.771   4.589   2.390  1.2996 -0.7162  0.5319
 9817SOL     OW30028   1.902   6.636   3.697 -0.0488 -0.0891  0.2637
 9817SOL    HW130029   1.944   6.700   3.755 -0.1545  2.0735 -1.8990
 9817SOL    HW230030   1.810   6.638   3.722 -0.1652  1.1349 -0.1865
 9818SOL     OW30031   6.790   9.022   2.071  0.5545 -0.3761 -0.6491
 9818SOL    HW130032   6.827   8.971   2.000 -0.1284  0.3451 -1.5478
 9818SOL    HW230033   6.737   8.960   2.120 -0.0554 -0.6068 -1.5755
 9819SOL     OW30034   3.832   9.251   1.227 -0.0411  0.1370  0.3652
 9819SOL    HW130035   3.801   9.324   1.281 -1.0922 -0.1491  0.1711
 9819SOL    HW230036   3.752   9.210   1.195  0.4812 -1.7367  1.3250
 9820SOL     OW30037   7.780   4.736   3.829 -0.0050  0.0916 -0.1395
 9820SOL    HW130038   7.726   4.761   3.904  0.7664  1.8767 -0.1390
 9820SOL    HW230039   7.738   4.778   3.754  0.8605  0.7475 -0.2677
 9821SOL     OW30040   4.352   7.613   2.185  0.0403 -0.2489  0.7752
 9821SOL    HW130041   4.384   7.682   2.127 -0.8589  0.9681  1.6679
 9821SOL    HW230042   4.270   7.584   2.145 -0.6718  0.7150  1.4773
 9822SOL     OW30043   7.598   3.831   2.889  0.0326  0.1767  0.1032
 9822SOL    HW130044   7.532   3.876   2.837  0.9577 -0.2270 -1.4876
 9822SOL    HW230045   7.578   3.738   2.876  0.8237  0.0576 -0.2901
 9823SOL     OW30046   2.013   3.429   1.712  0.1364 -0.0442  0.3571
 9823SOL    HW130047   2.026   3.514   1.668 -1.4196  0.0962  0.1323
 9823SOL    HW230048   1.966   3.451   1.792 -2.5668 -0.9078 -0.9034
 9824SOL     OW30049   6.617   8.006   1.151 -0.1440 -0.0615  0.4519
 9824SOL    HW130050   6.619   7.972   1.062 -3.2849 -0.0999  0.2678
 9824SOL    HW230051   6.695   8.061   1.158 -0.1331  0.4818 -2.5748
 9825SOL     OW30052   3.713   1.709   8.935 -0.0888 -0.2350  0.6778
 9825SOL    HW130053   3.681   1.758   9.011 -2.5286  0.6749 -0.8091
 9825SOL    HW230054   3.637   1.705   8.877  1.2683 -2.2153 -1.0641
 9826SOL     OW30055   7.550   3.652   1.207  0.5424 -0.0616  0.3402
 9826SOL    HW130056   7.502   3.585   1.255  2.6061 -1.8923 -0.0150
 9826SOL    HW230057   7.514   3.650   1.119  0.8226 -0.9913  0.2382
 9827SOL     OW30058   6.764   9.150   3.202  0.7512  0.2965  0.3486
 9827SOL    HW130059   6.821   9.087   3.245 -0.5606 -0.8722  0.4563
 9827SOL    HW230060   6.711   9.098   3.142 -0.7301  1.1995  0.8045
 9828SOL     OW30061   5.340   1.365   1.935 -0.5679 -0.4455  0.6673
 9828SOL    HW130062   5.391   1.342   2.012 -0.9054 -2.1325  0.4156
 9828SOL    HW230063   5.380   1.314   1.864 -1.2483 -0.1190  0.0439
 9829SOL     OW30064   5.346   1.314   5.780 -0.0949 -0.3342 -0.2663
 9829SOL    HW130065   5.323   1.273   5.697 -1.0189 -0.3682 -0.0108
 9829SOL    HW230066   5.403   1.251   5.824  0.5505 -0.2325 -0.9499
 9830SOL     OW30067   8.856   3.732   0.256 -0.2762 -0.2616  0.1836
 9830SOL    HW130068   8.901   3.683   0.325  0.7847  0.3157 -0.0702
 9830SOL    HW230069   8.927   3.764   0.200 -1.1596 -2.8289 -2.6592
 9831SOL     OW30070   2.391   4.725   9.479  0.1912  0.6323 -0.0078
 9831SOL    HW130071   2.383   4.708   9.385 -2.6372 -0.4284  0.3442
 9831SOL    HW230072   2.344   4.808   9.493 -0.3086  0.2516  0.6075
 9832SOL     OW30073   1.821   5.501   1.261  0.2618 -0.3145 -0.3825
 9832SOL    HW130074   1.771   5.529   1.338 -1.6068  0.5242 -1.8115
 9832SOL    HW230075   1.823   5.406   1.267  0.1794 -0.2549  0.7209
 9833SOL     OW30076   0.584   0.621   2.990 -0.1964  0.2358 -0.1412
 9833SOL    HW130077   0.653   0.609   2.925  1.0317  0.3231  1.0863
 9833SOL    HW230078   0.530   0.542   2.983  0.5898 -0.2833 -0.4905
 9834SOL     OW30079   4.511   1.910   2.443  0.0708 -0.3421  0.8924
 9834SOL    HW130080   4.579   1.970   2.410 -0.7503 -0.2286 -0.6841
 9834SOL    HW230081   4.546   1.878   2.525  2.1683 -0.4590  0.0231
 9835SOL     OW30082   2.858   9.131   4.629  0.2780  0.0164  0.1473
 9835SOL    HW130083   2.870   9.099   4.540 -1.7156 -0.5419  0.0420
 9835SOL    HW230084   2.894   9.220   4.628 -0.5400  0.3575 -1.4683
 9836SOL     OW30085   0.603   9.233   1.094  0.6729 -0.6305 -0.6265
 9836SOL    HW130086   0.602   9.328   1.107 -0.1002 -0.9389  2.5545
 9836SOL    HW230087   0.669   9.218   1.027  1.4945  2.0889 -0.5469
 9837SOL     OW30088   1.172   2.625   1.423 -0.3088  0.2950  0.4313
 9837SOL    HW130089   1.118   2.585   1.355  0.9453  0.8883 -0.9574
 9837SOL    HW230090   1.227   2.554   1.456 -1.0101 -0.0215  0.9486
 9838SOL     OW30091   8.688   8.533   4.116 -0.0012 -0.4318 -0.7080
 9838SOL    HW130092   8.693   8.565   4.026 -0.9393  1.0351 -0.2761
 9838SOL    HW230093   8.657   8.608   4.167  0.5748 -1.2065  0.8644
 9839SOL     OW30094   5.065   8.053   4.914  0.2411  0.0774  0.0866
 9839SOL    HW130095   5.121   7.987   4.873  0.9557  0.5167  0.3373
 9839SOL    HW230096   5.040   8.014   4.998  0.8218  0.2003  0.3207
 9840SOL     OW30097   9.206   8.419   2.426  0.3867 -0.2362  0.5449
 9840SOL    HW130098   9.246   8.339   2.461 -1.2360 -0.9549  0.8346
 9840SOL    HW230099   9.112   8.404   2.435  0.0590  1.7602  0.6894
 9841SOL     OW30100   6.572   8.201   2.690 -0.5846 -0.3479 -0.4160
 9841SOL    HW130101   6.655   8.157   2.706 -0.8900 -0.6677  0.3366
 9841SOL    HW230102   6.555   8.251   2.769 -0.7753  0.2689 -0.8384
 9842SOL     OW30103   5.210   4.263   0.473  0.5190  0.2306 -0.0486
 9842SOL    HW130104   5.234   4.337   0.528 -0.2848  0.0535  0.5653
 9842SOL    HW230105   5.283   4.253   0.412  0.2044  2.1472 -0.8071
 9843SOL     OW30106   0.548   0.618   5.353  0.1408 -0.0166 -0.3077
 9843SOL    HW130107   0.485   0.676   5.310 -2.2864 -1.8032  0.6075
 9843SOL    HW230108   0.633   0.656   5.332 -1.1788  2.3433 -1.9188
 9844SOL     OW30109   0.801   4.735   9.761 -0.0315 -0.4976  0.8629
 9844SOL    HW130110   0.801   4.674   9.835  0.3811 -2.6503 -0.8258
 9844SOL    HW230111   0.892   4.739   9.733 -0.2967 -0.2957 -0.0049
 9845SOL     OW30112   0.467   9.471   1.191 -0.1678 -0.4322  0.2283
 9845SOL    HW130113   0.379   9.435   1.202 -1.0117  1.6992  0.9077
 9845SOL    HW230114   0.455   9.552   1.142  0.9123  1.6990  3.1902
 9846SOL     OW30115   9.532   8.551   4.567  0.1792  0.0382  0.1609
 9846SOL    HW130116   9.489   8.506   4.494  2.7155  0.2440 -1.5969
 9846SOL    HW230117   9.523   8.644   4.547 -1.5574  0.2687  1.6909
 9847SOL     OW30118   3.861   3.355   0.566 -0.4130 -0.1547  0.0627
 9847SOL    HW130119   3.941   3.307   0.545 -0.4379  0.2298 -0.9780
 9847SOL    HW230120   3.860   3.428   0.504 -0.2162  1.3859  1.7817
 9848SOL     OW30121   9.358   5.681   2.730  0.2062  0.0510 -0.3637
 9848SOL    HW130122   9.292   5.731   2.779  0.1322  0.2872 -0.6981
 9848SOL    HW230123   9.327   5.685   2.639  1.5057  1.5292 -0.7910
 9849SOL     OW30124   4.365   1.571   3.660 -0.2408 -0.4041  0.1641
 9849SOL    HW130125   4.318   1.653   3.675  0.0506  0.0101 -1.0857
 9849SOL    HW230126   4.316   1.526   3.591  0.7273 -0.3329 -0.5943
 9850SOL     OW30127   4.573   2.139   1.404 -0.7211 -0.0404 -0.2111
 9850SOL    HW130128   4.616   2.054   1.398  1.3113  0.8910  0.2779
 9850SOL    HW230129   4.480   2.120   1.393 -0.5626 -2.5680  1.8713
 9851SOL     OW30130   8.395   3.566   5.545  0.2799 -0.5285 -0.0804
 9851SOL    HW130131   8.389   3.661   5.554  0.9708 -0.4890  0.0230
 9851SOL    HW230132   8.402   3.551   5.451  1.4551 -0.3879 -0.0229
 9852SOL     OW30133   3.394   3.395   0.143 -0.0372  0.1304 -0.4616
 9852SOL    HW130134   3.348   3.477   0.125 -0.3937  0.6760  2.3377
 9852SOL    HW230135   3.328   3.340   0.186  0.8253 -0.6930 -0.1580
 9853SOL     OW30136   5.874   6.108   6.580  0.3199  0.4631 -0.1847
 9853SOL    HW130137   5.793   6.095   6.629 -0.9463  0.7223 -2.0998
 9853SOL    HW230138   5.846   6.149   6.498  2.4563  0.9857 -0.7166
 9854SOL     OW30139   7.390   2.477   9.055 -0.0012 -0.3763  0.1568
 9854SOL    HW130140   7.317   2.441   9.106 -0.1327 -0.4861 -0.1056
 9854SOL    HW230141   7.361   2.469   8.964  0.0329  0.2545  0.0888
 9855SOL     OW30142   9.777   1.891   7.747  0.3512  0.0545 -0.0442
 9855SOL    HW130143   9.757   1.963   7.807 -1.5937 -0.0301 -0.4963
 9855SOL    HW230144   9.773   1.812   7.801  2.6348  0.2453  0.4829
 9856SOL     OW30145   5.207   9.923   1.232  0.3804 -0.1340  0.4969
 9856SOL    HW130146   5.207   9.902   1.139  0.0679  3.0964 -0.3565
 9856SOL    HW230147   5.116   9.947   1.251  0.6440  0.2025  1.3846
 9857SOL     OW30148   4.816   1.723   0.678 -0.0011  0.4165  0.8509
 9857SOL    HW130149   4.887   1.733   0.616  0.7473  1.4279  1.8351
 9857SOL    HW230150   4.859   1.707   0.762 -0.9211  0.9566  1.4506
 9858SOL     OW30151   1.496   5.096   7.326 -0.3042 -0.2016 -0.2629
 9858SOL    HW130152   1.441   5.172   7.302 -0.3236 -0.0675  0.2031
 9858SOL    HW230153   1.479   5.083   7.419  0.8591  0.1722  0.0132
 9859SOL     OW30154   4.769   7.561   0.678  0.2073  0.3447  0.0863
 9859SOL    HW130155   4.812   7.595   0.757 -0.2977 -0.1359  0.5835
 9859SOL    HW230156   4.677   7.554   0.703 -0.2674  1.7760 -1.0980
 9860SOL     OW30157   6.723   1.644   8.541  0.1073  0.0267  0.1832
 9860SOL    HW130158   6.634   1.671   8.562 -0.2547  0.1033 -1.2966
 9860SOL    HW230159   6.722   1.549   8.546 -0.0755  0.0271  0.1498
 9861SOL     OW30160   8.293   5.079   3.199 -0.5810 -0.0545  0.2231
 9861SOL    HW130161   8.335   5.165   3.203 -0.9988  0.2116 -0.7673
 9861SOL    HW230162   8.364   5.018   3.179 -0.6973  0.4536 -1.9223
 9862SOL     OW30163   5.967   9.774   3.969 -0.2033 -0.0571 -0.5575
 9862SOL    HW130164   6.062   9.771   3.976 -0.3036 -0.5999  1.0361
 9862SOL    HW230165   5.944   9.865   3.989 -0.0940 -0.2984  0.7806
 9863SOL     OW30166   5.110   5.276   2.354  0.0600  0.0063  0.5967
 9863SOL    HW130167   5.028   5.233   2.330 -0.2140  0.9258 -0.2061
 9863SOL    HW230168   5.158   5.211   2.404 -0.8449 -0.8063  0.4351
 9864SOL     OW30169   4.327   3.460   1.794  0.3093  0.1632 -0.4854
 9864SOL    HW130170   4.271   3.410   1.853 -1.3998  0.9540 -1.3806
 9864SOL    HW230171   4.381   3.394   1.750  0.2688 -0.5877  0.5601
 9865SOL     OW30172   3.325   0.605   8.324 -0.2832  0.1246 -0.4150
 9865SOL    HW130173   3.351   0.521   8.361  4.8089  0.3272 -2.7207
 9865SOL    HW230174   3.326   0.666   8.398  0.9310 -0.9504  0.4896
 9866SOL     OW30175   2.924   9.628   0.180 -0.7301  0.1452  0.2175
 9866SOL    HW130176   2.888   9.576   0.108  0.6374  2.9713 -2.7758
 9866SOL    HW230177   2.848   9.663   0.225 -1.6327 -1.7814  0.3024
 9867SOL     OW30178   9.574   3.558   1.063 -0.1650 -0.3046  0.9059
 9867SOL    HW130179   9.623   3.638   1.081  0.2722 -0.6433  1.2206
 9867SOL    HW230180   9.492   3.589   1.024  1.1679  0.1838 -1.7203
 9868SOL     OW30181   4.678   7.547   6.957 -0.2578  0.3105  0.4511
 9868SOL    HW130182   4.649   7.525   6.868  0.8051  3.1066 -0.7312
 9868SOL    HW230183   4.744   7.615   6.943  0.2933  0.4775  3.4009
 9869SOL     OW30184   1.651   2.178   0.058  0.3142  0.0724  0.6855
 9869SOL    HW130185   1.721   2.197  -0.005  0.0343  0.6376  0.5310
 9869SOL    HW230186   1.657   2.084   0.074  0.7808  0.0300  0.2811
 9870SOL     OW30187   8.954   9.528   4.455 -0.1648  0.4905 -0.3694
 9870SOL    HW130188   8.908   9.463   4.508  0.5705  0.9092  0.8418
 9870SOL    HW230189   8.885   9.581   4.416 -0.7360  0.3363  0.4004
 9871SOL     OW30190   3.204   7.686   0.629 -0.2540 -0.1706 -0.1313
 9871SOL    HW130191   3.262   7.618   0.663 -0.4302 -1.0440 -1.4914
 9871SOL    HW230192   3.185   7.742   0.704  0.6383 -1.0962  0.8092
 9872SOL     OW30193   9.858   8.235   1.331  0.0505 -0.1581 -0.0303
 9872SOL    HW130194   9.943   8.270   1.303  0.7346  0.3014  2.4201
 9872SOL    HW230195   9.819   8.304   1.384 -0.8912 -1.1755  0.6623
 9873SOL     OW30196   0.958   2.165   1.447 -0.3968  0.1716  0.0845
 9873SOL    HW130197   1.012   2.100   1.403 -1.4359 -1.6720  1.4133
 9873SOL    HW230198   0.956   2.137   1.538 -0.9885  2.0108  0.6783
 9874SOL     OW30199   8.979   9.404   0.522 -0.8981  0.0557  0.3186
 9874SOL    HW130200   9.032   9.443   0.592  0.4293 -0.4286 -0.3878
 9874SOL    HW230201   8.957   9.478   0.465  1.4177 -0.0959 -0.8937
 9875SOL     OW30202   8.835   7.268   6.501 -0.4407 -0.2301 -0.1060
 9875SOL    HW130203   8.740   7.273   6.506 -0.6328 -1.6992 -1.3846
 9875SOL    HW230204   8.852   7.195   6.441  1.5001 -0.9120  1.1686
 9876SOL     OW30205   0.300   3.131   4.510  0.6227  0.3271  0.1036
 9876SOL    HW130206   0.222   3.113   4.459  1.2507  2.5282 -1.7903
 9876SOL    HW230207   0.300   3.226   4.523  2.4342  0.2657  0.9569
 9877SOL     OW30208   3.492   8.520   4.447 -0.0964 -0.2528 -0.2005
 9877SOL    HW130209   3.503   8.516   4.352 -0.0670 -0.2717 -0.1960
 9877SOL    HW230210   3.399   8.501   4.460 -0.3720  0.9605 -0.3096
 9878SOL     OW30211   4.568   5.146   3.185  0.1965 -0.4605  0.4026
 9878SOL    HW130212   4.637   5.084   3.162 -0.2721 -2.1905  3.2261
 9878SOL    HW230213   4.608   5.203   3.251 -0.7989 -0.9401  1.4445
 9879SOL     OW30214   9.356   2.995   8.381  0.2801 -0.4222  0.2485
 9879SOL    HW130215   9.322   3.082   8.402  1.0868  0.2871 -1.1983
 9879SOL    HW230216   9.373   2.999   8.287  0.4579 -2.1174  0.1815
 9880SOL     OW30217   6.495   3.868   0.322  0.6130 -0.6572 -0.4044
 9880SOL    HW130218   6.579   3.912   0.306  1.4287 -1.9127  0.2699
 9880SOL    HW230219   6.512   3.777   0.299 -0.4283 -1.0279  0.2632
 9881SOL     OW30220   9.045   1.264   5.884  0.4957 -0.3427 -0.1770
 9881SOL    HW130221   8.960   1.277   5.842  0.3992 -0.7014 -0.0944
 9881SOL    HW230222   9.065   1.348   5.926  0.0682 -0.3412  0.0195
 9882SOL     OW30223   3.596   2.011   1.269 -0.0083  0.0763 -0.1367
 9882SOL    HW130224   3.669   1.967   1.224 -0.1861  0.6181 -0.9622
 9882SOL    HW230225   3.536   2.037   1.199 -2.7937 -3.4123  0.6519
 9883SOL     OW30226   3.642   6.534   0.243 -0.0328 -0.0129 -0.0623
 9883SOL    HW130227   3.632   6.508   0.152  0.0634 -1.2291  0.2507
 9883SOL    HW230228   3.612   6.625   0.246 -0.7305 -0.1892 -1.1672
 9884SOL     OW30229   4.779   4.590   4.683  0.3781 -0.2768 -0.4402
 9884SOL    HW130230   4.804   4.594   4.591 -0.0792  0.0347 -0.5496
 9884SOL    HW230231   4.849   4.637   4.729  0.7515 -0.6767 -0.5964
 9885SOL     OW30232   4.925   9.498   6.767  0.0042  0.5577  0.4531
 9885SOL    HW130233   4.910   9.425   6.707 -0.1378 -0.7726  2.0110
 9885SOL    HW230234   5.015   9.525   6.751  0.1740 -0.2101  0.0929
 9886SOL     OW30235   9.619   2.363   2.925 -0.7950  0.3396  0.2946
 9886SOL    HW130236   9.652   2.443   2.885 -1.1291  0.2440 -0.1830
 9886SOL    HW230237   9.696   2.306   2.933 -0.2806  1.2084  1.9193
 9887SOL     OW30238   8.979   1.094   4.781 -0.1788 -0.0733  0.4576
 9887SOL    HW130239   9.045   1.028   4.759  1.4408  2.0411 -1.4761
 9887SOL    HW230240   8.944   1.123   4.697  0.1406  2.4190  1.0959
 9888SOL     OW30241   5.692   7.690   3.586  0.0781  0.0540  0.0537
 9888SOL    HW130242   5.720   7.752   3.519  0.9048  0.5289  0.8252
 9888SOL    HW230243   5.770   7.638   3.605 -0.6922 -1.5226 -0.8598
 9889SOL     OW30244   1.301   7.533   6.816 -0.3833 -0.1708  0.1076
 9889SOL    HW130245   1.367   7.464   6.811  0.0903  0.1056  1.8219
 9889SOL    HW230246   1.226   7.498   6.768  0.6322 -0.9308 -0.9683
 9890SOL     OW30247   7.196   7.870   5.842  0.4276 -0.3956 -0.6824
 9890SOL    HW130248   7.222   7.958   5.870  1.1956 -0.8285 -0.0075
 9890SOL    HW230249   7.277   7.827   5.818  0.2821 -1.5031  0.6948
 9891SOL     OW30250   2.163   2.831   3.488  0.4797  0.0902  0.6886
 9891SOL    HW130251   2.208   2.779   3.554 -0.8224 -0.0662  1.5022
 9891SOL    HW230252   2.122   2.902   3.538  0.1195  0.4219 -0.0615
 9892SOL     OW30253   5.310   8.298   9.302 -0.0166  0.3081  0.0640
 9892SOL    HW130254   5.327   8.227   9.240 -1.6040  1.2311 -1.5306
 9892SOL    HW230255   5.395   8.339   9.315  0.3629  0.1073 -1.5573
 9893SOL     OW30256   6.621   0.050   4.950  0.3728 -0.0567  0.0822
 9893SOL    HW130257   6.583   0.138   4.947  1.1079  0.3064  1.0377
 9893SOL    HW230258   6.574   0.001   4.882 -1.5357  0.4643  0.9749
 9894SOL     OW30259   1.445   0.182   6.765 -0.8912  0.4750 -0.2882
 9894SOL    HW130260   1.487   0.267   6.776 -0.5097  0.2221  0.2871
 9894SOL    HW230261   1.509   0.130   6.717 -0.7318  0.2386  0.1678
 9895SOL     OW30262   3.003   7.338   6.444  0.4087  0.4288 -0.0611
 9895SOL    HW130263   2.916   7.304   6.461  0.0198  1.1942 -0.4924
 9895SOL    HW230264   2.991   7.432   6.431  1.2488  0.4977 -0.4475
 9896SOL     OW30265   9.654   2.526   8.906 -0.3092 -0.1595  0.3781
 9896SOL    HW130266   9.586   2.520   8.973  0.2604  0.2377  1.0145
 9896SOL    HW230267   9.735   2.541   8.956 -0.1130  1.9268 -0.4391
 9897SOL     OW30268   2.055   6.698   4.611 -0.0001 -0.1130 -0.0030
 9897SOL    HW130269   2.064   6.703   4.706  0.0813  0.5891 -0.0388
 9897SOL    HW230270   2.142   6.678   4.579  0.2528  0.9086  0.0026
 9898SOL     OW30271   1.530   2.130   5.175  0.1459  0.0711  0.0300
 9898SOL    HW130272   1.459   2.158   5.232  0.3600  1.9798 -0.5966
 9898SOL    HW230273   1.488   2.075   5.108 -0.4811 -0.0653  0.5339
 9899SOL     OW30274   4.449   7.673   9.620  0.5848 -0.5533 -0.0877
 9899SOL    HW130275   4.467   7.759   9.583  0.4223 -0.5457 -0.1486
 9899SOL    HW230276   4.396   7.690   9.697  1.9562 -0.4783  0.8788
 9900SOL     OW30277   1.892   6.305   1.712  0.5885  0.4311  0.1450
 9900SOL    HW130278   1.829   6.237   1.691  0.3844  0.4956  0.5532
 9900SOL    HW230279   1.851   6.387   1.682  0.7829  0.3957 -0.2354
 9901SOL     OW30280   2.613   8.472   5.444 -0.5606  0.0891  0.2006
 9901SOL    HW130281   2.560   8.526   5.502 -0.7410  0.1322 -0.0031
 9901SOL    HW230282   2.560   8.463   5.364 -0.5729 -0.4639  0.2681
 9902SOL     OW30283   5.279   2.881   9.925 -0.0918  0.5532 -0.1469
 9902SOL    HW130284   5.240   2.812   9.871 -1.0810  0.4143  0.7015
 9902SOL    HW230285   5.274   2.846  10.014  0.6868  1.1482  0.1409
 9903SOL     OW30286   5.013   3.594   3.497 -0.0138 -0.4314  0.5469
 9903SOL    HW130287   4.979   3.681   3.519  1.1612  0.1503  0.1394
 9903SOL    HW230288   5.039   3.557   3.581 -2.0923 -1.1177  0.9452
 9904SOL     OW30289   7.108   2.182   3.195 -0.4686  0.0115  0.0097
 9904SOL    HW130290   7.037   2.134   3.238 -1.2176  0.2839 -0.8876
 9904SOL    HW230291   7.066   2.229   3.123  0.4440  1.0755  0.1297
 9905SOL     OW30292   8.431   4.638   0.378  0.5910  0.0946  0.3812
 9905SOL    HW130293   8.413   4.654   0.286  0.8833  0.4469  0.3838
 9905SOL    HW230294   8.370   4.696   0.425 -0.2232 -0.7708  0.4302
 9906SOL     OW30295   7.386   2.461   1.114  0.1255 -0.2785  0.2952
 9906SOL    HW130296   7.439   2.459   1.034 -0.3452  1.5872 -0.0961
 9906SOL    HW230297   7.439   2.414   1.178  0.6877 -1.4870 -0.9848
 9907SOL     OW30298   0.974   7.902   2.815 -0.0591 -0.1874  0.4970
 9907SOL    HW130299   0.920   7.972   2.778 -1.5927 -1.5961 -0.0478
 9907SOL    HW230300   0.978   7.836   2.745 -0.8241 -1.7581  1.8665
 9908SOL     OW30301   8.636   9.010   9.596 -0.4490  0.2337 -0.3217
 9908SOL    HW130302   8.585   8.985   9.673  0.3661  0.3084  0.2547
 9908SOL    HW230303   8.724   8.980   9.615 -0.2142  0.3461 -1.1883
 9909SOL     OW30304   1.029   8.606   3.227  0.0412 -0.7623 -0.5312
 9909SOL    HW130305   1.123   8.597   3.209  0.1675 -1.7766  0.5254
 9909SOL    HW230306   0.994   8.518   3.217 -0.8112 -0.3986 -0.8774
 9910SOL     OW30307   3.307   2.085   0.738 -0.2347  0.3290 -0.2679
 9910SOL    HW130308   3.398   2.114   0.724  0.1424 -0.4954  0.3783
 9910SOL    HW230309   3.262   2.164   0.770  0.5820  0.4301  0.7012
 9911SOL     OW30310   1.305   9.244   8.055 -0.3687  0.1734  0.2266
 9911SOL    HW130311   1.374   9.223   7.991 -0.1222 -0.1823  0.6066
 9911SOL    HW230312   1.351   9.252   8.138 -0.8335 -0.4734  0.5603
 9912SOL     OW30313   8.981   2.430   2.339 -0.2732  0.4223  0.1466
 9912SOL    HW130314   8.952   2.388   2.258  1.7341 -0.0959 -0.3464
 9912SOL    HW230315   8.952   2.521   2.330  0.1206  0.4380 -1.2863
 9913SOL     OW30316   5.293   0.561   8.776  0.0809 -0.1688 -0.1728
 9913SOL    HW130317   5.235   0.635   8.759 -0.8129 -0.8103 -0.0398
 9913SOL    HW230318   5.366   0.572   8.715  0.1496  1.0087  0.1078
 9914SOL     OW30319   3.616   7.070   0.828 -0.4617 -0.1368 -0.3289
 9914SOL    HW130320   3.611   7.105   0.739 -1.0730  1.1724  0.1925
 9914SOL    HW230321   3.527   7.040   0.848  0.1564 -2.6305 -0.9616
 9915SOL     OW30322   7.972   3.155   1.290  0.0985  0.2916 -0.5284
 9915SOL    HW130323   7.966   3.066   1.256  1.7766  0.0468 -0.2797
 9915SOL    HW230324   8.005   3.144   1.380 -2.3212  1.0273  0.5313
 9916SOL     OW30325   3.802   9.556   8.416 -0.1453  0.5372  0.4315
 9916SOL    HW130326   3.727   9.596   8.459 -0.7494  1.4219 -1.3841
 9916SOL    HW230327   3.770   9.471   8.386 -0.0121  0.3416  0.8333
 9917SOL     OW30328   2.883   8.126   2.286  0.3474 -0.0539 -0.0613
 9917SOL    HW130329   2.978   8.136   2.277  0.2629  0.3973 -0.5026
 9917SOL    HW230330   2.855   8.208   2.328 -0.0072  0.3908 -1.1414
 9918SOL     OW30331   3.022   6.142   8.110  0.2031 -0.1340  0.1238
 9918SOL    HW130332   2.951   6.135   8.046  0.3235  1.4514 -0.2183
 9918SOL    HW230333   2.992   6.090   8.185 -0.5174 -0.9419 -0.6973
 9919SOL     OW30334   9.831   5.400   5.205  0.4683  0.0617  0.6314
 9919SOL    HW130335   9.814   5.340   5.278 -1.5438 -0.8670 -0.5187
 9919SOL    HW230336   9.811   5.487   5.241 -1.7345 -0.4973  0.9120
 9920SOL     OW30337   2.268   2.789   2.505 -0.1756  0.0797  0.2533
 9920SOL    HW130338   2.234   2.874   2.480  0.1172  0.3652  0.7990
 9920SOL    HW230339   2.216   2.764   2.582  0.3185  0.1652  0.6196
 9921SOL     OW30340  -0.014   4.340   7.501 -0.3054  0.2829  0.0419
 9921SOL    HW130341   0.073   4.326   7.539  0.4889  0.5771 -1.5920
 9921SOL    HW230342   0.002   4.348   7.407 -2.4582 -3.1681 -0.7833
 9922SOL     OW30343   1.201   2.416   6.467 -0.6574 -0.2416  0.3403
 9922SOL    HW130344   1.192   2.350   6.537 -0.2801 -0.5711  0.0870
 9922SOL    HW230345   1.278   2.387   6.417 -0.4289  0.4456  0.2788
 9923SOL     OW30346   3.894   6.828   0.491  0.2790 -0.3837  0.2156
 9923SOL    HW130347   3.812   6.854   0.449 -0.5881 -1.3295  1.2798
 9923SOL    HW230348   3.961   6.848   0.426 -0.7783  0.4812 -0.6433
 9924SOL     OW30349   7.382   9.976   3.475 -0.2469 -0.1160 -0.9579
 9924SOL    HW130350   7.357  10.000   3.565  0.5461  2.0228 -1.2552
 9924SOL    HW230351   7.474   9.954   3.481 -0.3284 -0.5050 -1.1517
 9925SOL     OW30352   2.302   7.674   8.145 -0.6073  0.1040 -0.3520
 9925SOL    HW130353   2.236   7.643   8.083 -0.5925 -0.0784 -0.2758
 9925SOL    HW230354   2.383   7.676   8.094 -0.1512 -2.0311  0.1780
 9926SOL     OW30355   7.882   1.441   8.179 -0.3913 -0.3256  0.2684
 9926SOL    HW130356   7.963   1.422   8.226  0.4785  1.2879 -0.5218
 9926SOL    HW230357   7.890   1.394   8.096 -0.9103 -1.2743  0.7257
 9927SOL     OW30358   9.218   5.951   0.503  0.4272 -0.5890  0.1567
 9927SOL    HW130359   9.159   5.877   0.489  0.6892 -0.8313  0.3220
 9927SOL    HW230360   9.161   6.028   0.499 -0.1884 -0.9159  2.0087
 9928SOL     OW30361   4.590   6.336   2.681  0.5745 -0.3926  0.2667
 9928SOL    HW130362   4.577   6.278   2.755 -2.9579 -0.1190  0.0275
 9928SOL    HW230363   4.618   6.279   2.610  0.4764 -1.2394  0.8946
 9929SOL     OW30364   0.629   9.135   4.789 -0.3217  0.1605  0.4139
 9929SOL    HW130365   0.541   9.132   4.826 -0.4753 -0.9368 -0.0221
 9929SOL    HW230366   0.615   9.155   4.696  0.0260  2.1760  0.7396
 9930SOL     OW30367   1.288   5.129   9.577 -0.0882 -0.1050  0.3656
 9930SOL    HW130368   1.251   5.211   9.611 -3.1657 -0.7736 -1.0333
 9930SOL    HW230369   1.331   5.155   9.495  0.2253  0.2994  0.6507
 9931SOL     OW30370   9.124   0.665   2.597  0.2153  0.5011 -0.1290
 9931SOL    HW130371   9.159   0.694   2.681 -0.5535 -0.5163  0.5695
 9931SOL    HW230372   9.197   0.675   2.535  0.6344  1.7359  0.5396
 9932SOL     OW30373   3.363   4.234   5.861  0.3926 -0.2120 -0.3547
 9932SOL    HW130374   3.296   4.166   5.863 -0.8091  0.8756 -1.4427
 9932SOL    HW230375   3.446   4.187   5.863 -0.3955 -1.6376  0.1541
 9933SOL     OW30376   4.892   5.199   6.089 -0.3634 -0.0595 -0.4903
 9933SOL    HW130377   4.967   5.247   6.125  1.9676 -3.9384  0.4562
 9933SOL    HW230378   4.869   5.246   6.010  2.2345  2.0724 -0.1328
 9934SOL     OW30379   5.770   0.970   4.742  0.0424 -0.1988  0.1525
 9934SOL    HW130380   5.713   0.949   4.668  1.6607  0.4275 -1.3355
 9934SOL    HW230381   5.818   0.890   4.760 -0.6729 -0.4803  0.8392
 9935SOL     OW30382   7.634   6.761   4.950 -0.2452  1.2556 -0.3300
 9935SOL    HW130383   7.653   6.853   4.967 -0.7302  1.2697  0.1710
 9935SOL    HW230384   7.622   6.722   5.037 -2.5180  1.2685 -0.5704
 9936SOL     OW30385   5.202   4.735   2.276 -0.4514  0.6749  0.2134
 9936SOL    HW130386   5.255   4.672   2.325  0.0613  1.5914  0.8868
 9936SOL    HW230387   5.154   4.682   2.212 -0.6426 -0.4816  1.2700
 9937SOL     OW30388   2.646   9.631   6.077 -0.1028 -0.3808  0.1924
 9937SOL    HW130389   2.566   9.594   6.038 -0.5069 -0.5170  1.1229
 9937SOL    HW230390   2.621   9.719   6.104 -0.1867 -0.6955  1.1946
 9938SOL     OW30391   3.592   1.197   5.829 -0.0476 -0.0271 -0.4523
 9938SOL    HW130392   3.526   1.130   5.846 -0.1931  0.0353 -0.7612
 9938SOL    HW230393   3.620   1.226   5.915  0.2834 -0.7485 -0.3087
 9939SOL     OW30394   3.062   5.796   5.368 -0.2828 -0.4726  0.0538
 9939SOL    HW130395   3.047   5.844   5.287  0.2985 -0.1606  0.1215
 9939SOL    HW230396   3.053   5.861   5.437 -3.8516 -1.3005  0.5563
 9940SOL     OW30397   2.341   5.542   9.934  0.2494  0.0472  0.2458
 9940SOL    HW130398   2.265   5.484   9.942  0.2222  0.1736  0.9602
 9940SOL    HW230399   2.305   5.623   9.897  0.4104 -0.6192 -1.4464
 9941SOL     OW30400   5.251   4.517   2.843  0.2940 -0.6586 -0.3525
 9941SOL    HW130401   5.159   4.541   2.833  0.6349  0.5003 -0.8656
 9941SOL    HW230402   5.273   4.472   2.762  0.1483 -1.0718 -0.1667
 9942SOL     OW30403   4.675   1.437   3.127  0.3843 -0.2006  0.0974
 9942SOL    HW130404   4.695   1.439   3.034 -0.6551 -1.6765 -0.1946
 9942SOL    HW230405   4.736   1.374   3.164 -0.7190 -1.3665 -0.0188
 9943SOL     OW30406   3.758   6.643   1.609  0.1504  0.0638  0.0919
 9943SOL    HW130407   3.710   6.692   1.676 -0.9611  1.2432 -1.4950
 9943SOL    HW230408   3.693   6.623   1.542  0.9266 -2.3621 -0.0095
 9944SOL     OW30409   2.207   0.448   0.736  0.1932  0.2901 -0.2423
 9944SOL    HW130410   2.120   0.432   0.698  0.5204 -3.4015  0.1496
 9944SOL    HW230411   2.193   0.519   0.798 -3.4293 -2.0581  2.0461
 9945SOL     OW30412   0.095   9.832   9.453  0.0300 -0.9087 -0.3196
 9945SOL    HW130413   0.113   9.760   9.393  0.9696 -1.3243  0.4234
 9945SOL    HW230414   0.013   9.808   9.495 -0.8644 -0.4056 -1.7055
 9946SOL     OW30415   7.019   8.126   3.926  0.2661 -0.0705  0.4262
 9946SOL    HW130416   7.101   8.176   3.926  0.3284 -0.1489  1.5973
 9946SOL    HW230417   6.973   8.155   3.846  0.3101  1.8627  1.0624
 9947SOL     OW30418   2.211   6.666   1.163 -0.4356 -0.3673 -0.0291
 9947SOL    HW130419   2.250   6.752   1.180 -0.4492 -0.2204 -0.6965
 9947SOL    HW230420   2.241   6.643   1.075  0.9736 -1.8340  0.7713
 9948SOL     OW30421   5.862   1.008   7.113  0.4558  0.0897 -0.2264
 9948SOL    HW130422   5.904   1.040   7.034  2.1648 -1.4455 -0.0183
 9948SOL    HW230423   5.925   1.027   7.183  0.2192 -1.0130  0.3155
 9949SOL     OW30424   2.280   8.764   2.330  0.4745 -0.2537  0.4482
 9949SOL    HW130425   2.191   8.761   2.295  1.0693  0.5275 -1.2175
 9949SOL    HW230426   2.334   8.790   2.255  2.0507 -0.3114  1.5334
 9950SOL     OW30427   3.326   5.209   4.216  0.0202  1.2592  0.4923
 9950SOL    HW130428   3.271   5.210   4.293 -0.3723  1.2977  0.2150
 9950SOL    HW230429   3.272   5.168   4.148  0.8970 -0.2114  0.6275
 9951SOL     OW30430   4.207   1.642   9.154  0.2049  0.2928 -0.0438
 9951SOL    HW130431   4.281   1.692   9.120  0.1584  1.7990  1.8762
 9951SOL    HW230432   4.130   1.687   9.119  0.1705  0.0484 -0.2875
 9952SOL     OW30433   8.617   4.022   6.267 -0.0857  0.1671  0.0791
 9952SOL    HW130434   8.707   4.000   6.287 -0.0818  1.0423  1.1038
 9952SOL    HW230435   8.610   4.012   6.172  1.3666  1.0721 -0.1503
 9953SOL     OW30436   2.783   0.475   0.604 -0.0549  0.0142  0.1276
 9953SOL    HW130437   2.801   0.566   0.629 -0.0791  0.1488 -0.3457
 9953SOL    HW230438   2.727   0.481   0.527  0.0472 -0.4036  0.0173
 9954SOL     OW30439   2.893   5.442   1.749  0.6313 -0.0301 -0.0301
 9954SOL    HW130440   2.970   5.498   1.744 -0.0885  0.9527 -0.5339
 9954SOL    HW230441   2.900   5.399   1.834  0.2229  2.3368  1.2716
 9955SOL     OW30442   1.101   7.924   4.075 -0.3219 -0.2836 -0.4726
 9955SOL    HW130443   1.192   7.894   4.081 -0.5750 -1.0425 -0.2555
 9955SOL    HW230444   1.050   7.851   4.109 -0.9734  0.4081  0.0773
 9956SOL     OW30445   2.036   4.092   5.501  0.1855 -0.4016 -0.4971
 9956SOL    HW130446   2.015   4.186   5.496 -0.1478 -0.5019 -1.2265
 9956SOL    HW230447   2.122   4.088   5.541  0.1517  0.2162 -0.3575
 9957SOL     OW30448   4.563   4.142   0.793  0.1291 -0.0345 -0.1435
 9957SOL    HW130449   4.643   4.125   0.843 -0.3906 -0.0278  0.7030
 9957SOL    HW230450   4.514   4.060   0.797  0.7118 -0.5060 -1.8635
 9958SOL     OW30451   9.777   4.184   0.254  0.1107 -0.0967 -0.0033
 9958SOL    HW130452   9.819   4.119   0.311  1.9425  0.3827 -0.7410
 9958SOL    HW230453   9.756   4.135   0.174  0.3877 -0.0553 -0.1011
 9959SOL     OW30454   5.190   7.460   3.418 -0.2664 -0.0210 -0.0839
 9959SOL    HW130455   5.241   7.390   3.375 -0.5206  0.3529 -1.0286
 9959SOL    HW230456   5.254   7.530   3.433 -0.3258  0.1353 -0.5389
 9960SOL     OW30457   9.702   7.819   7.472 -0.6641 -0.2488  0.2037
 9960SOL    HW130458   9.771   7.881   7.494 -1.6327  1.1017 -0.3926
 9960SOL    HW230459   9.741   7.763   7.405 -0.3896  1.0724 -0.7942
 9961SOL     OW30460   6.324   0.754   7.434  0.0135 -0.1971 -0.4928
 9961SOL    HW130461   6.387   0.691   7.467 -0.9756 -0.3664  1.2083
 9961SOL    HW230462   6.240   0.724   7.469 -0.6086  1.5270 -0.4313
 9962SOL     OW30463   1.590   0.743   4.683 -0.0492  0.4092  0.0623
 9962SOL    HW130464   1.520   0.703   4.631  0.3559  0.8902 -0.8850
 9962SOL    HW230465   1.634   0.669   4.725  2.3335 -0.6003 -3.6862
 9963SOL     OW30466   1.038   3.318   3.770  0.9078  0.1560  0.0663
 9963SOL    HW130467   1.067   3.392   3.823 -0.6768 -0.6055  2.1373
 9963SOL    HW230468   1.019   3.249   3.834  0.3392 -1.3482 -1.6412
 9964SOL     OW30469   9.936   8.787   5.206 -0.2585 -0.1928 -0.3130
 9964SOL    HW130470   9.948   8.694   5.229 -0.2009 -0.0504  0.2457
 9964SOL    HW230471   9.928   8.787   5.110  2.7549 -0.4852 -0.6716
 9965SOL     OW30472   4.220   5.789   2.014 -0.2535  0.2441  0.1326
 9965SOL    HW130473   4.288   5.731   1.979 -0.9074  0.1269 -0.9626
 9965SOL    HW230474   4.261   5.876   2.015  0.3566 -0.0394  0.7552
 9966SOL     OW30475   7.466   1.201   1.595 -0.0415  0.4349 -0.4546
 9966SOL    HW130476   7.532   1.270   1.586  2.1875 -1.4028  0.6900
 9966SOL    HW230477   7.441   1.179   1.505  0.8882  1.2131 -0.9131
 9967SOL     OW30478   8.364   9.272   7.619  0.3989  0.6516  0.2869
 9967SOL    HW130479   8.285   9.258   7.671  0.0248 -2.6754 -0.9014
 9967SOL    HW230480   8.336   9.254   7.529  2.4095 -0.4488 -0.1762
 9968SOL     OW30481   0.860   5.008   4.648 -0.2809  0.1043  0.4056
 9968SOL    HW130482   0.901   4.983   4.565 -0.7021 -0.9713  0.4931
 9968SOL    HW230483   0.904   5.089   4.674 -0.0366  0.3739 -0.7875
 9969SOL     OW30484   0.438   7.029   8.339 -0.5220 -0.3367  0.0914
 9969SOL    HW130485   0.410   7.004   8.427 -0.8188 -0.3075  0.0089
 9969SOL    HW230486   0.494   7.106   8.351  0.3461 -0.9977  0.3406
 9970SOL     OW30487   8.048   5.702   3.634  0.4928  0.1977 -0.3017
 9970SOL    HW130488   7.994   5.626   3.612 -2.0145  2.0769 -1.1559
 9970SOL    HW230489   8.101   5.673   3.709 -1.0675 -2.0600  0.0272
 9971SOL     OW30490   6.323   7.096   1.229 -0.1648  0.3487  0.4860
 9971SOL    HW130491   6.337   7.109   1.135 -0.1967 -1.1137  0.2660
 9971SOL    HW230492   6.402   7.132   1.270  0.3209  0.0382 -0.1666
 9972SOL     OW30493   3.119   4.673   8.724 -0.1387  0.0700 -0.1373
 9972SOL    HW130494   3.082   4.709   8.643 -1.8650  0.4140  0.7422
 9972SOL    HW230495   3.176   4.602   8.696 -1.5979 -0.5700 -1.6193
 9973SOL     OW30496   2.233   1.280   1.142 -0.2171 -0.0204  0.5765
 9973SOL    HW130497   2.326   1.262   1.126 -0.2665 -0.4898  0.7814
 9973SOL    HW230498   2.231   1.369   1.175  0.1589  0.0145  0.5155
 9974SOL     OW30499   7.356   9.344   1.057  0.0663 -0.4139  0.2902
 9974SOL    HW130500   7.274   9.339   1.009  0.5658 -0.3031 -0.6000
 9974SOL    HW230501   7.337   9.305   1.142 -0.9063 -0.3669  0.1017
 9975SOL     OW30502   0.562   0.138   3.944  0.3276 -0.1748  0.5053
 9975SOL    HW130503   0.535   0.228   3.927 -0.9698 -0.6778 -0.2055
 9975SOL    HW230504   0.496   0.104   4.004  1.1059 -0.5075  1.1954
 9976SOL     OW30505   1.110   9.501   8.513  0.5653  0.1089  0.3569
 9976SOL    HW130506   1.043   9.440   8.483 -0.3526 -0.0372  2.4942
 9976SOL    HW230507   1.185   9.485   8.456 -0.4359 -1.3728 -0.6044
 9977SOL     OW30508   8.814   3.708   5.240 -0.1401 -0.3015  0.0088
 9977SOL    HW130509   8.830   3.727   5.332  0.4291  1.2410 -0.3867
 9977SOL    HW230510   8.901   3.692   5.203 -0.1248  1.1860 -0.6752
 9978SOL     OW30511   0.354   8.425   5.575 -0.2249 -0.6558  0.0423
 9978SOL    HW130512   0.289   8.356   5.562 -0.4118 -0.5093  0.1966
 9978SOL    HW230513   0.437   8.385   5.547 -0.1163 -1.3706  1.3225
 9979SOL     OW30514   4.499   5.880   6.032  0.0466  0.4556 -0.0610
 9979SOL    HW130515   4.586   5.856   6.000  0.4302  1.9583 -0.2029
 9979SOL    HW230516   4.445   5.886   5.953 -0.2450 -0.5840  0.0351
 9980SOL     OW30517   5.375   9.799   1.630  0.6413  0.6841 -0.0782
 9980SOL    HW130518   5.382   9.808   1.535  0.8157  2.2238  0.0570
 9980SOL    HW230519   5.295   9.847   1.654  1.6448  2.0150  0.7416
 9981SOL     OW30520   8.423   7.113   3.914  0.1804  0.1372  0.2470
 9981SOL    HW130521   8.390   7.105   3.824  2.3105  0.7813 -0.6517
 9981SOL    HW230522   8.515   7.086   3.909  0.2378 -0.2523  2.3497
 9982SOL     OW30523   0.085   2.415   4.132 -0.5566  0.1231  0.3268
 9982SOL    HW130524   0.003   2.413   4.084 -1.9902  2.0923  2.4369
 9982SOL    HW230525   0.075   2.488   4.193  1.8148 -1.0692  2.3382
 9983SOL     OW30526   9.468   5.979   5.432 -0.2682  0.1661 -0.6855
 9983SOL    HW130527   9.390   5.980   5.377 -0.3195 -1.9794 -0.7256
 9983SOL    HW230528   9.475   5.888   5.463  1.7268  0.5014  0.0138
 9984SOL     OW30529   4.100   5.985   3.731  0.4386  0.1370  0.5675
 9984SOL    HW130530   4.065   6.074   3.721 -0.1984 -0.1705 -0.0050
 9984SOL    HW230531   4.186   5.998   3.770 -0.6389  0.8784  2.8596
 9985SOL     OW30532   6.061   3.890   7.201  0.2348 -0.8146  0.0654
 9985SOL    HW130533   6.096   3.839   7.128  2.0519  0.9179 -0.3488
 9985SOL    HW230534   6.130   3.888   7.267 -1.4503 -2.5144  1.9025
 9986SOL     OW30535   0.085   6.098   8.858 -0.3751  0.0353  0.3607
 9986SOL    HW130536   0.152   6.050   8.907  0.3297  2.2772  1.7357
 9986SOL    HW230537   0.003   6.054   8.881  0.4622 -2.4801 -0.9950
 9987SOL     OW30538   5.414   2.776   9.353  0.5119 -0.4892 -0.1395
 9987SOL    HW130539   5.418   2.872   9.350  0.7032 -0.5084 -0.5125
 9987SOL    HW230540   5.442   2.748   9.266 -0.0502 -0.8720 -0.2010
 9988SOL     OW30541   0.060   4.477   3.237  0.4259 -0.3299 -0.0518
 9988SOL    HW130542   0.131   4.493   3.299 -0.3822  0.4928  0.6794
 9988SOL    HW230543  -0.019   4.469   3.291  0.0985 -2.3926 -0.7411
 9989SOL     OW30544   5.538   9.897   9.709 -0.4862  0.3225 -0.2289
 9989SOL    HW130545   5.629   9.887   9.735  0.2342 -0.6382 -2.7870
 9989SOL    HW230546   5.491   9.831   9.760  0.3500  0.3117  0.5618
 9990SOL     OW30547   7.397   0.772   3.189 -0.4617  0.3504 -0.3172
 9990SOL    HW130548   7.464   0.704   3.187 -1.7756 -0.9938 -1.5520
 9990SOL    HW230549   7.445   0.853   3.207  1.7851 -0.2450 -2.9332
 9991SOL     OW30550   6.218   1.843   8.044 -0.1454 -0.2987 -0.3374
 9991SOL    HW130551   6.248   1.806   8.128 -3.7995  0.3280  1.4254
 9991SOL    HW230552   6.243   1.777   7.979  1.3663 -1.5946  1.4475
 9992SOL     OW30553   4.017   9.853   8.688 -0.0577  0.4627  0.5027
 9992SOL    HW130554   3.927   9.828   8.706 -0.1438 -0.3370 -0.8932
 9992SOL    HW230555   4.010   9.932   8.635  0.0624  0.5082  0.5550
 9993SOL     OW30556   6.922   6.424   3.943  0.1687  0.3002 -0.5834
 9993SOL    HW130557   6.923   6.404   3.850 -0.2262  3.6223 -1.4252
 9993SOL    HW230558   7.011   6.403   3.973  0.5862  0.0783 -1.9342
 9994SOL     OW30559   2.276   6.770   0.217  0.1889  0.2983  0.2590
 9994SOL    HW130560   2.266   6.685   0.174  1.3086  0.2239  0.1090
 9994SOL    HW230561   2.191   6.813   0.205  0.1029 -0.1697 -1.0667
 9995SOL     OW30562   1.628   7.944   1.736 -0.0586 -0.2175 -0.1816
 9995SOL    HW130563   1.551   7.999   1.749  0.8097  0.7991  0.8467
 9995SOL    HW230564   1.658   7.964   1.647  0.6604  1.5603  0.4202
 9996SOL     OW30565   7.339   8.826   2.516 -0.1378 -0.1983  0.3684
 9996SOL    HW130566   7.331   8.913   2.556 -1.7435  1.3479 -2.9319
 9996SOL    HW230567   7.269   8.823   2.451 -0.2733 -4.1243  0.4393
 9997SOL     OW30568   2.067   3.690   1.627 -0.3906 -0.0578 -0.0306
 9997SOL    HW130569   2.079   3.733   1.543 -0.0436  0.6853  0.3883
 9997SOL    HW230570   2.116   3.745   1.689  0.1272 -1.0881  0.5066
 9998SOL     OW30571   2.774   4.851   0.559  0.3383 -0.0662 -0.1528
 9998SOL    HW130572   2.775   4.792   0.635  0.7324  0.3643  0.1761
 9998SOL    HW230573   2.757   4.937   0.596 -0.7739 -0.0373 -0.6876
 9999SOL     OW30574   1.513   3.710   5.624 -0.1894  0.1310  0.1452
 9999SOL    HW130575   1.503   3.648   5.697 -0.8207  0.2741  0.1781
 9999SOL    HW230576   1.463   3.672   5.552 -0.4058  0.4984  0.0992
10000SOL     OW30577   2.149   1.850   8.069  0.6066  0.3621 -0.8175
10000SOL    HW130578   2.124   1.761   8.045  1.0383 -0.1677  0.5916
10000SOL    HW230579   2.187   1.886   7.989 -0.3731 -0.4032 -1.6558
10001SOL     OW30580   9.408   2.730   0.858  0.1292  0.0853  0.4632
10001SOL    HW130581   9.500   2.736   0.833  0.1846 -3.3334 -0.5815
10001SOL    HW230582   9.410   2.723   0.954  0.8557  0.6423  0.5020
10002SOL     OW30583   5.047   2.872   9.090 -0.3501  0.4725 -0.6142
10002SOL    HW130584   5.141   2.862   9.080 -0.5359 -2.2881 -0.3852
10002SOL    HW230585   5.034   2.965   9.110  2.2594  0.9634 -0.8940
10003SOL     OW30586   3.758   0.667   0.985 -0.1362  0.6318 -0.3417
10003SOL    HW130587   3.673   0.708   1.002  0.2780  1.6772 -0.7140
10003SOL    HW230588   3.744   0.618   0.903  0.2098  2.7201 -1.7390
10004SOL     OW30589   7.256   6.989   9.686  0.6031  0.0458 -0.7678
10004SOL    HW130590   7.245   6.905   9.641 -0.4531 -0.4166  0.3126
10004SOL    HW230591   7.194   7.047   9.642  0.2175 -0.1616 -0.5002
10005SOL     OW30592   2.361   2.557   2.360 -0.4079  0.8100 -0.3331
10005SOL    HW130593   2.414   2.536   2.437 -1.3292 -0.3531  0.0052
10005SOL    HW230594   2.310   2.634   2.386  0.1341  1.1319 -0.2040
10006SOL     OW30595   0.312   7.841   8.745  0.2581  0.7298  0.1879
10006SOL    HW130596   0.266   7.827   8.663  0.8769 -0.2368 -0.0071
10006SOL    HW230597   0.254   7.802   8.812  0.5114  0.0435  0.0126
10007SOL     OW30598   2.681   5.889   7.479  0.1442 -0.6886 -0.6100
10007SOL    HW130599   2.649   5.822   7.418 -0.3090 -1.5636  0.5426
10007SOL    HW230600   2.750   5.846   7.528  0.6945  0.0957 -0.6736
10008SOL     OW30601   2.691   4.484   0.606  0.3358 -0.0250 -0.4688
10008SOL    HW130602   2.696   4.543   0.532 -0.0788 -1.8735 -2.0673
10008SOL    HW230603   2.599   4.486   0.632  0.4087  0.3423 -0.2300
10009SOL     OW30604   3.564   7.702   6.843  0.0122 -0.1274  0.3394
10009SOL    HW130605   3.509   7.707   6.921 -2.0482 -2.6126 -0.8018
10009SOL    HW230606   3.641   7.652   6.871 -0.2867 -0.2280  0.9850
10010SOL     OW30607   3.343   3.337   8.987  0.3418  0.6205 -0.6127
10010SOL    HW130608   3.322   3.333   9.081 -0.4785  0.2329 -0.8000
10010SOL    HW230609   3.387   3.254   8.970 -0.7480  0.0725 -0.8431
10011SOL     OW30610   4.071   8.584   5.153  0.3808  0.4345  0.1315
10011SOL    HW130611   4.156   8.542   5.167  0.2801  0.0254 -0.4532
10011SOL    HW230612   4.026   8.576   5.237  1.0890  1.0580  0.5863
10012SOL     OW30613   2.598   6.240   3.899  0.1728 -0.0207  0.6331
10012SOL    HW130614   2.651   6.193   3.964  1.0889  0.1622  0.0463
10012SOL    HW230615   2.606   6.188   3.819  1.0411  0.9964  0.0308
10013SOL     OW30616   4.814   5.992   8.667 -0.1929 -0.6662  0.0562
10013SOL    HW130617   4.826   6.002   8.573  1.2042  1.7198  0.3907
10013SOL    HW230618   4.890   5.940   8.695  0.9925  1.0129  0.1482
10014SOL     OW30619   0.275   6.880   0.314  0.6078  0.0306  0.5577
10014SOL    HW130620   0.256   6.817   0.384  0.9236  0.7063  1.2674
10014SOL    HW230621   0.325   6.949   0.357 -2.2920  2.3363  0.5387
10015SOL     OW30622   1.858   1.527   0.893  0.4003  0.2705  0.0830
10015SOL    HW130623   1.842   1.457   0.830 -1.8106  0.2569  0.5892
10015SOL    HW230624   1.787   1.519   0.957  1.6868  1.2365  1.7430
10016SOL     OW30625   3.663   2.445   7.522  0.0454 -0.3430  0.0413
10016SOL    HW130626   3.750   2.425   7.556  0.5479 -0.3871 -1.2143
10016SOL    HW230627   3.603   2.393   7.576  0.7756 -0.2545  0.9656
10017SOL     OW30628   2.344   1.706   9.184  0.3868 -0.2413 -0.2848
10017SOL    HW130629   2.292   1.726   9.106 -0.4049 -0.3224  0.2106
10017SOL    HW230630   2.338   1.611   9.193 -0.2566 -0.1440  0.3673
10018SOL     OW30631   6.215   8.412   6.047 -0.3266  0.0014 -0.3748
10018SOL    HW130632   6.179   8.325   6.064 -0.2985  0.2787  1.3179
10018SOL    HW230633   6.172   8.468   6.112 -0.2405  1.2363 -1.3470
10019SOL     OW30634   3.704   5.775   7.133  0.1079 -0.0624 -0.4489
10019SOL    HW130635   3.741   5.759   7.046  1.1062 -0.9310  0.1122
10019SOL    HW230636   3.640   5.705   7.146 -0.7469  0.6258 -0.8546
10020SOL     OW30637   8.660   6.308   1.483  0.2350  0.1833 -0.1589
10020SOL    HW130638   8.605   6.230   1.470  0.2602 -0.4055  2.6591
10020SOL    HW230639   8.610   6.379   1.443 -0.9080 -0.8955 -0.7290
10021SOL     OW30640   8.619   6.546   6.699  0.3365 -0.1908 -0.0431
10021SOL    HW130641   8.654   6.629   6.731 -0.2209 -0.1318  0.4318
10021SOL    HW230642   8.526   6.563   6.685 -0.3985 -1.4181  2.6239
10022SOL     OW30643   7.268   8.976   6.884 -0.6992  0.1195  0.1994
10022SOL    HW130644   7.173   8.974   6.872 -0.6079 -0.1655 -0.5221
10022SOL    HW230645   7.285   9.060   6.928 -1.2966  0.1091  0.4501
10023SOL     OW30646   9.904   7.598   4.798  0.1024 -0.2022 -0.0009
10023SOL    HW130647   9.959   7.521   4.809  1.1033  0.4092 -0.5572
10023SOL    HW230648   9.839   7.591   4.867  1.4671 -0.4409  1.3070
10024SOL     OW30649   9.700   6.194   8.314  0.3135  0.1804  0.0309
10024SOL    HW130650   9.677   6.243   8.393 -0.3257  1.5230 -0.9444
10024SOL    HW230651   9.621   6.197   8.260  0.5672 -1.1596 -0.4710
10025SOL     OW30652   0.242   2.667   3.482 -0.5503  0.6918  0.3023
10025SOL    HW130653   0.231   2.743   3.539  0.6232 -0.8031  2.6483
10025SOL    HW230654   0.178   2.604   3.513 -1.0548  0.4398 -1.1859
10026SOL     OW30655   0.366   6.695   2.289 -0.2932  0.0929 -0.3673
10026SOL    HW130656   0.355   6.748   2.210  0.2501 -1.4241 -1.4922
10026SOL    HW230657   0.443   6.642   2.273 -0.7604 -0.9867  0.7619
10027SOL     OW30658   2.960   6.353   0.284  0.1180 -0.3388  0.4186
10027SOL    HW130659   2.876   6.333   0.242 -0.1675 -0.5098  1.0582
10027SOL    HW230660   3.024   6.350   0.213 -0.5136  0.4871 -0.2012
10028SOL     OW30661   4.423   5.120   2.081  0.0379  0.8354 -0.0619
10028SOL    HW130662   4.340   5.079   2.106 -0.1459  1.4620  0.3996
10028SOL    HW230663   4.400   5.212   2.067  0.4220  0.7782 -1.1576
10029SOL     OW30664   9.346   1.808   3.289  0.2428 -0.3570  0.5531
10029SOL    HW130665   9.333   1.880   3.228 -0.3238 -1.2209 -0.3730
10029SOL    HW230666   9.286   1.826   3.361  0.5005  0.3656  0.5962
10030SOL     OW30667   5.084   2.017   9.504 -0.1885 -0.0650  0.3056
10030SOL    HW130668   5.172   1.989   9.477  0.0406  0.1172  0.8521
10030SOL    HW230669   5.099   2.095   9.557 -0.7182  0.2312  0.0261
10031SOL     OW30670   5.131   3.531   3.818 -0.6997 -0.5070  0.0608
10031SOL    HW130671   5.104   3.613   3.860 -1.9853 -0.5623 -0.6065
10031SOL    HW230672   5.167   3.479   3.889 -1.6520 -0.1035  0.8701
10032SOL     OW30673   9.039   0.757   7.278  0.3869  0.7434  0.4809
10032SOL    HW130674   9.056   0.677   7.229  1.3437  0.6669  0.9102
10032SOL    HW230675   8.950   0.747   7.310 -0.2093  0.7232 -1.0841
10033SOL     OW30676   2.711   5.853   3.286 -0.3365  0.2523 -0.2459
10033SOL    HW130677   2.684   5.868   3.196 -0.7886  2.4837  0.2000
10033SOL    HW230678   2.683   5.763   3.305 -1.2782  0.1426 -1.9469
10034SOL     OW30679   5.236   8.868   9.373 -0.0611 -0.6020 -0.0339
10034SOL    HW130680   5.320   8.833   9.344  1.5914  1.6338  1.7757
10034SOL    HW230681   5.184   8.790   9.394  2.5419 -2.0742  1.4517
10035SOL     OW30682   1.539   0.110   0.395 -0.1972  0.3921  0.0607
10035SOL    HW130683   1.489   0.192   0.395  0.3220  0.7241  1.0798
10035SOL    HW230684   1.605   0.122   0.328 -1.7356 -0.2390 -1.6583
10036SOL     OW30685   6.058   1.974   3.377 -0.3953  0.1613  0.1196
10036SOL    HW130686   6.069   1.982   3.472  0.9574 -0.2245  0.0145
10036SOL    HW230687   5.986   1.911   3.367  0.4582 -0.9944  0.9050
10037SOL     OW30688   3.995   6.296   4.676  0.3107 -0.4214  0.5616
10037SOL    HW130689   4.036   6.339   4.601  1.1570 -0.3141  1.0661
10037SOL    HW230690   4.030   6.343   4.752 -0.8857 -0.2284  1.0187
10038SOL     OW30691   2.896   9.552   5.944  0.2927  0.0798 -0.5555
10038SOL    HW130692   2.908   9.621   5.879 -1.7369  1.2412  0.1959
10038SOL    HW230693   2.808   9.567   5.979  0.0982 -2.4068  0.2408
10039SOL     OW30694   8.828   9.118   4.367  0.6558  0.3900 -0.0309
10039SOL    HW130695   8.828   9.162   4.452 -0.6689 -0.1961  0.2917
10039SOL    HW230696   8.888   9.045   4.377 -1.2831 -1.1282  1.2178
10040SOL     OW30697   0.874   0.184   5.714 -0.0504  0.2055  0.3031
10040SOL    HW130698   0.868   0.254   5.648 -2.2592 -0.2515 -0.0657
10040SOL    HW230699   0.789   0.187   5.759  0.1035 -1.7232  0.7923
10041SOL     OW30700   6.016   5.910   1.412  0.2201  0.4290 -0.1452
10041SOL    HW130701   5.932   5.866   1.421 -0.2700  1.4414  0.4567
10041SOL    HW230702   6.027   5.922   1.317 -0.9248  1.3906 -0.1742
10042SOL     OW30703   6.315   6.019   2.493  0.5341  0.2184 -0.3918
10042SOL    HW130704   6.352   6.097   2.452  1.5098  0.1571  0.3539
10042SOL    HW230705   6.292   6.047   2.582  1.8678 -0.6082  0.2248
10043SOL     OW30706   3.103   9.462   9.864 -0.4374  0.4218  0.5306
10043SOL    HW130707   3.061   9.448   9.949 -0.9007 -2.1488 -0.0353
10043SOL    HW230708   3.043   9.520   9.816 -0.3956  1.5190  1.7534
10044SOL     OW30709   2.898   7.008   0.267  0.7555 -0.3225 -0.5022
10044SOL    HW130710   2.855   6.945   0.324 -0.7496 -0.9406 -2.2276
10044SOL    HW230711   2.972   6.959   0.229  1.8014  0.1124  0.9100
10045SOL     OW30712   8.059   7.272   8.656 -0.2710 -0.0079  0.2235
10045SOL    HW130713   8.145   7.247   8.621 -0.7663  0.6989 -1.5876
10045SOL    HW230714   7.997   7.211   8.617 -0.6465 -0.3029  1.2587
10046SOL     OW30715   6.397   9.954   4.817  0.2924  0.0686  0.1683
10046SOL    HW130716   6.384   9.889   4.747 -0.3938 -0.5571  0.8641
10046SOL    HW230717   6.364  10.036   4.779  2.4309  0.3756 -1.2264
10047SOL     OW30718   6.732   7.217   2.287  0.1013  0.3145 -0.0785
10047SOL    HW130719   6.673   7.207   2.362  0.1964  1.2960  0.1407
10047SOL    HW230720   6.675   7.214   2.210 -0.0619 -0.1360  0.0598
10048SOL     OW30721   2.128   6.436   3.725  0.0867  0.2034 -0.1623
10048SOL    HW130722   2.046   6.486   3.715 -0.8419 -0.9520  1.2197
10048SOL    HW230723   2.099   6.347   3.746  1.7138 -0.4249 -0.4697
10049SOL     OW30724   3.789   9.055   4.903  0.4076  0.2587 -0.2626
10049SOL    HW130725   3.697   9.045   4.879  0.0738  0.3584  0.8959
10049SOL    HW230726   3.833   8.982   4.860 -0.4591 -0.6743  0.3722
10050SOL     OW30727   9.615   3.056   0.695 -0.1715 -1.0786 -0.4221
10050SOL    HW130728   9.520   3.054   0.694 -0.1878 -1.9264  0.6448
10050SOL    HW230729   9.638   3.111   0.769  0.1495 -1.5542 -0.1565
10051SOL     OW30730   6.458   3.125   5.287  0.7500 -0.0862  0.1811
10051SOL    HW130731   6.515   3.158   5.356  1.2271  0.3484 -0.4083
10051SOL    HW230732   6.428   3.204   5.241 -0.7293 -0.2663  0.7817
10052SOL     OW30733   6.813   2.302   7.328 -0.3383 -0.5794  0.1830
10052SOL    HW130734   6.871   2.367   7.288 -0.0874 -0.0764  1.3197
10052SOL    HW230735   6.796   2.336   7.416 -1.8857 -1.0166  0.0811
10053SOL     OW30736   1.808   8.018   8.003 -0.3153 -0.5455  0.3644
10053SOL    HW130737   1.880   8.054   7.952 -0.6293  1.9938  1.5924
10053SOL    HW230738   1.798   7.928   7.970  1.8541 -0.2083 -1.4254
10054SOL     OW30739   4.233   8.072   2.395 -0.1234  0.1458 -0.1652
10054SOL    HW130740   4.302   8.069   2.329 -0.2455  0.6270 -0.3168
10054SOL    HW230741   4.231   7.983   2.431 -0.3788 -0.2527 -1.1389
10055SOL     OW30742   6.975   0.906   3.341  0.6153  0.5663  0.2252
10055SOL    HW130743   7.054   0.861   3.311  0.2648 -0.5969  0.9941
10055SOL    HW230744   6.905   0.873   3.285  0.3401  0.0543  0.8575
10056SOL     OW30745   7.496   9.039   7.762 -0.1237 -0.1927 -0.8086
10056SOL    HW130746   7.544   8.966   7.800  0.8969  0.3569 -1.0218
10056SOL    HW230747   7.557   9.113   7.764 -1.2424  0.7606 -0.2797
10057SOL     OW30748   6.867   4.206   5.033  0.3559  0.1648 -0.7559
10057SOL    HW130749   6.824   4.168   4.957  2.2843 -1.1233 -1.2730
10057SOL    HW230750   6.859   4.139   5.101  1.0376  0.1318 -0.7000
10058SOL     OW30751   0.113   1.431   7.657  0.4403 -0.3125  0.2065
10058SOL    HW130752   0.019   1.411   7.647  0.5418 -0.2654 -1.0953
10058SOL    HW230753   0.150   1.412   7.570  1.4945  0.4398  0.4786
10059SOL     OW30754   7.509   8.350   7.451  0.4554 -0.2737  0.1601
10059SOL    HW130755   7.563   8.362   7.373  1.2281 -0.4992  0.6460
10059SOL    HW230756   7.517   8.256   7.471 -1.3698 -0.6394 -0.6451
10060SOL     OW30757   0.854   1.299   9.650 -0.6607 -0.2727 -0.1665
10060SOL    HW130758   0.915   1.369   9.627  0.2828 -1.0097  0.0381
10060SOL    HW230759   0.791   1.341   9.709 -0.0131  0.3678  0.0820
10061SOL     OW30760   0.097   0.860   1.000  0.7119  0.1200  0.4515
10061SOL    HW130761   0.103   0.861   0.904  1.7129  1.3842  0.5036
10061SOL    HW230762   0.004   0.845   1.017 -0.3757  4.0516 -0.8351
10062SOL     OW30763   6.594   0.267   7.215  0.0147 -0.5662  0.3326
10062SOL    HW130764   6.545   0.186   7.232  0.7940 -1.3920 -1.1737
10062SOL    HW230765   6.676   0.238   7.175 -0.6541  1.0151 -2.4757
10063SOL     OW30766   7.293   4.065   9.604  0.8212  0.3880 -0.2610
10063SOL    HW130767   7.247   4.124   9.664 -1.7283 -0.4171 -1.3314
10063SOL    HW230768   7.249   3.981   9.614  2.7776 -0.7386 -0.5919
10064SOL     OW30769   0.608   1.954   4.467  0.0954  0.1252 -0.0756
10064SOL    HW130770   0.663   1.876   4.460 -1.1738 -0.7396 -0.7904
10064SOL    HW230771   0.527   1.930   4.422  0.0568  2.2082 -1.2660
10065SOL     OW30772   4.386   1.912   2.830  0.6187 -0.1747  0.3123
10065SOL    HW130773   4.348   1.972   2.894 -0.9394  0.5418 -1.1724
10065SOL    HW230774   4.388   1.828   2.874 -0.1378  0.3499  1.4077
10066SOL     OW30775   1.376   8.429   0.454 -0.0349  0.2940  0.0379
10066SOL    HW130776   1.311   8.421   0.524 -0.3946  1.3478 -0.1480
10066SOL    HW230777   1.387   8.340   0.421 -1.8088  0.1520 -0.3060
10067SOL     OW30778   2.410   2.027   5.387  0.0194 -0.3919  0.7215
10067SOL    HW130779   2.347   1.960   5.416 -0.5815 -0.7466 -1.2315
10067SOL    HW230780   2.489   2.010   5.438 -0.1333 -2.5854  0.3135
10068SOL     OW30781   5.356   2.528   2.125  0.1116 -0.4313 -0.1965
10068SOL    HW130782   5.405   2.568   2.197 -0.7064  1.6433 -0.7062
10068SOL    HW230783   5.292   2.595   2.099 -0.5656 -1.6561 -1.9268
10069SOL     OW30784   3.883   7.891   9.441 -0.4138 -0.1695 -0.1127
10069SOL    HW130785   3.822   7.948   9.487 -0.4069 -0.4234  0.2162
10069SOL    HW230786   3.956   7.880   9.502  0.0402  0.2705 -0.5733
10070SOL     OW30787   5.529   9.470   0.276  0.5558  0.1989 -0.2549
10070SOL    HW130788   5.571   9.405   0.218  1.4195 -0.4728  1.0721
10070SOL    HW230789   5.435   9.461   0.257  0.7811 -0.2742 -1.2623
10071SOL     OW30790   4.330   3.166   2.925  0.1447 -0.3399 -0.0684
10071SOL    HW130791   4.329   3.074   2.952 -1.0092 -0.7152 -1.2737
10071SOL    HW230792   4.421   3.193   2.937  0.6742 -1.8615 -0.3896
10072SOL     OW30793   8.496   8.299   1.784 -0.0412  0.0864  0.2531
10072SOL    HW130794   8.584   8.264   1.772 -0.1671  0.2353 -1.2379
10072SOL    HW230795   8.509   8.382   1.829  0.4540 -0.5696  1.3698
10073SOL     OW30796   2.222   9.142   4.140 -0.4655 -0.5372  0.1584
10073SOL    HW130797   2.273   9.205   4.089 -1.0976 -0.5699 -0.5249
10073SOL    HW230798   2.131   9.161   4.119 -0.7087 -0.9607  0.8010
10074SOL     OW30799   1.336   3.109   2.820  0.2886 -0.3867 -0.3744
10074SOL    HW130800   1.323   3.156   2.902  2.0862 -1.3605  0.5408
10074SOL    HW230801   1.307   3.020   2.838  0.7907 -0.6322 -0.7461
10075SOL     OW30802   6.535   4.019   1.531 -0.1271 -0.7060  0.1905
10075SOL    HW130803   6.615   3.997   1.579  0.0644 -1.1672 -0.3388
10075SOL    HW230804   6.555   4.102   1.488 -0.1024 -0.5808  0.4389
10076SOL     OW30805   9.993   5.205   8.384 -0.2433 -0.4482 -0.0531
10076SOL    HW130806   9.988   5.113   8.357  1.0000 -0.3465 -0.6634
10076SOL    HW230807   9.950   5.253   8.313 -0.1885 -0.4874 -0.1125
10077SOL     OW30808   2.071   2.601   5.721  0.0913  0.9399  0.2191
10077SOL    HW130809   2.015   2.677   5.733  0.8123  1.6354 -0.6407
10077SOL    HW230810   2.039   2.537   5.784  0.1566  2.3355  1.7359
10078SOL     OW30811   8.581   7.860   4.242  0.0003  0.1202  0.4387
10078SOL    HW130812   8.486   7.861   4.257 -0.3077  2.9985 -0.9721
10078SOL    HW230813   8.619   7.880   4.328 -0.6637 -0.8077  0.9597
10079SOL     OW30814   1.695   1.365   6.574  0.4473 -0.2175 -0.1136
10079SOL    HW130815   1.726   1.301   6.638 -1.1097 -0.8983 -0.0004
10079SOL    HW230816   1.607   1.387   6.603  0.8990  1.9522 -0.2010
10080SOL     OW30817   2.276   9.197   9.571  0.3849 -0.8042 -0.1175
10080SOL    HW130818   2.187   9.186   9.537  0.7003 -1.7479 -0.6858
10080SOL    HW230819   2.270   9.273   9.630 -0.3447  0.4506 -1.7171
10081SOL     OW30820   8.394   1.070   0.647 -0.4167  0.3728  0.4420
10081SOL    HW130821   8.372   0.994   0.700 -0.3618 -0.3138 -0.4890
10081SOL    HW230822   8.475   1.046   0.601 -0.4314  0.9617  0.0850
10082SOL     OW30823   0.774   8.590   5.611  0.0558  0.4282 -0.3605
10082SOL    HW130824   0.752   8.499   5.631  0.2633  0.3386 -0.5402
10082SOL    HW230825   0.695   8.625   5.569 -0.1153  0.4043 -0.0616
10083SOL     OW30826   9.190   5.607   6.840 -0.2866 -0.1399 -0.3874
10083SOL    HW130827   9.162   5.615   6.749 -0.1504  0.3889 -0.3862
10083SOL    HW230828   9.205   5.514   6.852 -1.4473 -0.3751 -0.5678
10084SOL     OW30829   1.269   1.422   8.367 -0.1886 -0.8938  0.4164
10084SOL    HW130830   1.342   1.457   8.316 -1.1081 -1.1646 -1.1310
10084SOL    HW230831   1.233   1.499   8.412 -0.1905 -0.3969 -0.4099
10085SOL     OW30832   4.242   1.480   6.643 -0.4671  0.0211 -0.0115
10085SOL    HW130833   4.203   1.498   6.728  0.2065 -1.5386  0.6668
10085SOL    HW230834   4.327   1.525   6.645 -0.3586 -0.1925  0.2341
10086SOL     OW30835   4.647   8.066   1.198 -0.3252  0.2616  0.5009
10086SOL    HW130836   4.609   8.105   1.119 -1.9095  0.3154  1.2445
10086SOL    HW230837   4.721   8.015   1.167 -0.1106  1.3379 -0.8590
10087SOL     OW30838   0.537   0.509   2.581  0.2570  0.5380 -0.0347
10087SOL    HW130839   0.491   0.482   2.661  0.8718 -0.0933  0.1057
10087SOL    HW230840   0.628   0.487   2.597  0.1372 -1.3917 -1.6560
10088SOL     OW30841   8.131   1.647   6.383 -0.4843 -0.1581  0.0636
10088SOL    HW130842   8.071   1.627   6.455 -1.2706 -2.9042 -1.1954
10088SOL    HW230843   8.113   1.738   6.360 -3.5355 -0.6140  0.3439
10089SOL     OW30844   6.845   5.821   3.013  0.2338  0.1954  1.0215
10089SOL    HW130845   6.791   5.796   2.937  1.5261 -2.3360  0.8580
10089SOL    HW230846   6.781   5.843   3.081 -0.9830 -0.1815  0.0396
10090SOL     OW30847   6.281   0.385   0.260 -0.1945  0.1365 -0.2408
10090SOL    HW130848   6.218   0.425   0.320  0.0719 -1.5939  1.3082
10090SOL    HW230849   6.342   0.455   0.239 -1.7360  1.4539 -0.5652
10091SOL     OW30850   2.443   4.444   9.155 -0.5651 -0.6130  0.1634
10091SOL    HW130851   2.473   4.420   9.068 -3.0679 -0.6575 -0.7646
10091SOL    HW230852   2.368   4.386   9.171 -0.9891  0.3185  1.7641
10092SOL     OW30853   7.927   3.279   0.375  0.0001 -0.5751  0.9995
10092SOL    HW130854   7.969   3.314   0.454 -1.5740 -0.3219  1.7662
10092SOL    HW230855   7.834   3.297   0.387 -0.3513 -1.0749 -0.6561
10093SOL     OW30856   4.276   9.495   5.526 -0.2679 -0.2761 -0.2436
10093SOL    HW130857   4.246   9.586   5.525 -0.1608 -0.2370  0.0007
10093SOL    HW230858   4.235   9.457   5.604 -0.2063 -0.4009 -0.2709
10094SOL     OW30859   0.655   7.653   8.636 -0.1280 -0.2071  0.6164
10094SOL    HW130860   0.724   7.594   8.608  0.0309  0.7326 -1.1246
10094SOL    HW230861   0.684   7.740   8.608 -1.8838  0.2490  0.0421
10095SOL     OW30862   8.302   0.113   0.425 -0.1964 -0.0643  0.1036
10095SOL    HW130863   8.297   0.124   0.330  0.5350 -0.2855  0.0368
10095SOL    HW230864   8.311   0.202   0.459  0.3026 -0.0437 -0.0823
10096SOL     OW30865   0.499   9.552   6.644  0.5163 -0.6602  0.3802
10096SOL    HW130866   0.417   9.503   6.657 -0.3562  0.9123  1.1474
10096SOL    HW230867   0.494   9.623   6.708  3.0155 -1.1358  1.1828
10097SOL     OW30868   0.232   2.912   1.617  0.0008 -0.1165  0.4389
10097SOL    HW130869   0.160   2.956   1.663  0.8000 -0.1157  1.7183
10097SOL    HW230870   0.309   2.930   1.669  1.1573  0.7183 -1.4517
10098SOL     OW30871   7.339   1.875   2.015  0.1210  0.2208 -0.3369
10098SOL    HW130872   7.364   1.822   2.090 -0.0495  1.7769  0.8587
10098SOL    HW230873   7.290   1.949   2.052 -0.8531  0.4967 -2.0645
10099SOL     OW30874   4.821   5.392   3.696 -0.1102  0.5524 -0.0749
10099SOL    HW130875   4.827   5.469   3.753 -0.6651 -0.0913  0.8754
10099SOL    HW230876   4.856   5.320   3.749 -0.5655 -0.0467 -0.5664
10100SOL     OW30877   8.656   5.632   3.361 -0.5090 -0.1685  0.0872
10100SOL    HW130878   8.687   5.720   3.383  0.7147 -0.7832  0.8966
10100SOL    HW230879   8.560   5.639   3.369 -0.8141  2.0181 -3.3977
10101SOL     OW30880   8.164   4.101   4.205  0.4114  0.1392  0.1145
10101SOL    HW130881   8.160   4.118   4.299  0.4823  0.6870  0.0247
10101SOL    HW230882   8.088   4.045   4.187 -0.2107  0.9026  0.3249
10102SOL     OW30883   2.054   6.087   9.093 -0.0195 -0.3521  0.0517
10102SOL    HW130884   2.003   6.068   9.014  0.0335  2.4462 -0.7626
10102SOL    HW230885   2.011   6.036   9.161 -0.2411 -2.6618 -1.6823
10103SOL     OW30886   5.529   5.183   3.939 -0.4666 -0.3695 -0.4543
10103SOL    HW130887   5.460   5.221   3.885  0.2218 -0.4511 -1.4228
10103SOL    HW230888   5.552   5.252   4.001 -1.3873 -0.3350 -0.1311
10104SOL     OW30889   6.030   5.955   3.771  0.4557  0.2047  0.3128
10104SOL    HW130890   6.055   5.885   3.831 -0.7980 -1.9510 -1.5294
10104SOL    HW230891   6.064   6.034   3.812  2.2838 -1.4800  2.3254
10105SOL     OW30892   3.909   3.613   7.093  0.4137 -0.4109 -0.1176
10105SOL    HW130893   3.859   3.531   7.095 -0.6483  0.2177 -0.3750
10105SOL    HW230894   3.994   3.590   7.133  0.2787 -1.7168 -0.5351
10106SOL     OW30895   2.667   8.833   7.041  0.1676 -0.2049 -1.2736
10106SOL    HW130896   2.715   8.890   6.981 -0.9478  1.4376 -0.6870
10106SOL    HW230897   2.690   8.866   7.128 -1.0745 -0.1313 -0.9536
10107SOL     OW30898   4.430   5.027   4.292 -0.6581 -0.2177  0.2884
10107SOL    HW130899   4.482   5.098   4.328 -1.7588 -0.0841  1.7088
10107SOL    HW230900   4.407   5.057   4.204  0.9876  0.0341 -0.0888
10108SOL     OW30901   2.497   9.660   9.707 -0.3851  0.1623 -0.0824
10108SOL    HW130902   2.526   9.682   9.618 -0.8508  0.4106 -0.1769
10108SOL    HW230903   2.402   9.671   9.704 -0.4989 -0.7182  0.2016
10109SOL     OW30904   9.032   2.798   5.366 -0.4815 -0.0089  0.1388
10109SOL    HW130905   9.056   2.827   5.278  1.7351  0.3907  0.8352
10109SOL    HW230906   8.949   2.752   5.353 -0.8086  1.0350 -1.9734
10110SOL     OW30907   2.253   7.014   9.846  0.6084  0.5161  1.0029
10110SOL    HW130908   2.310   7.038   9.919  1.9311 -0.8472  0.4628
10110SOL    HW230909   2.310   6.967   9.786 -0.7911  0.3464 -0.2332
10111SOL     OW30910   5.754   3.775   3.008  0.2659  0.2863 -0.4100
10111SOL    HW130911   5.755   3.753   3.101  2.0213  2.3142  0.1239
10111SOL    HW230912   5.738   3.691   2.964  1.8820 -1.2042  1.6290
10112SOL     OW30913   7.159   3.133   0.735 -0.4727  0.6195  0.1927
10112SOL    HW130914   7.203   3.115   0.652  2.4254 -1.4157  1.9933
10112SOL    HW230915   7.078   3.082   0.732 -0.4404  0.6309 -1.3660
10113SOL     OW30916   1.702   1.140   0.280 -0.1765  0.0161  0.2311
10113SOL    HW130917   1.795   1.150   0.257 -0.1849 -2.0428 -0.9467
10113SOL    HW230918   1.656   1.191   0.214  0.0652 -0.6602 -0.4798
10114SOL     OW30919   0.413   6.097   5.216  0.0618  0.3037 -0.0242
10114SOL    HW130920   0.332   6.046   5.224 -0.2273  0.6827 -0.4920
10114SOL    HW230921   0.421   6.142   5.300 -0.1114  0.1230  0.0925
10115SOL     OW30922   9.359   7.843   1.691  0.3034  0.0862 -0.4398
10115SOL    HW130923   9.325   7.781   1.755  0.3440 -0.7083 -1.1676
10115SOL    HW230924   9.416   7.901   1.742 -0.9240  0.5076  0.5258
10116SOL     OW30925   7.523   5.715   0.536  0.3430 -0.1190 -0.3331
10116SOL    HW130926   7.565   5.641   0.581 -0.3975 -0.7724 -0.7129
10116SOL    HW230927   7.498   5.681   0.451  0.6166  0.7761 -0.7854
10117SOL     OW30928   6.892   9.134   9.649 -0.0661 -0.2434  0.3696
10117SOL    HW130929   6.889   9.097   9.561 -2.6014  0.7274 -0.0517
10117SOL    HW230930   6.844   9.071   9.703 -3.3742  1.5721 -0.1341
10118SOL     OW30931   0.959   2.766   6.348  0.5197  0.4569 -0.1754
10118SOL    HW130932   0.982   2.853   6.317  0.5203  0.2980 -0.6198
10118SOL    HW230933   0.880   2.743   6.299  0.0026  0.5720  0.5841
10119SOL     OW30934   0.535   8.881   0.299 -0.1321 -0.2124 -0.4139
10119SOL    HW130935   0.492   8.796   0.302  1.7052 -1.3218 -2.5062
10119SOL    HW230936   0.563   8.891   0.208  3.0157  0.8883  0.5340
10120SOL     OW30937   6.724   4.722   8.013 -0.4345 -0.3478  0.2063
10120SOL    HW130938   6.770   4.805   8.024  0.9657 -1.0047 -0.3874
10120SOL    HW230939   6.646   4.744   7.962  0.7649  0.3887 -1.4127
10121SOL     OW30940   4.448   8.433   2.054 -0.3583  0.0875 -0.6286
10121SOL    HW130941   4.377   8.372   2.035 -1.3866  0.4994  1.5555
10121SOL    HW230942   4.451   8.438   2.149  0.1328  2.9135 -0.6958
10122SOL     OW30943   2.878   9.082   4.364 -0.5094 -0.1914 -0.4485
10122SOL    HW130944   2.798   9.053   4.320  0.3944 -3.7648 -0.0658
10122SOL    HW230945   2.915   9.148   4.305 -2.1636 -0.7429 -2.2125
10123SOL     OW30946   9.073   4.279   5.937  0.4212 -0.1946  0.2150
10123SOL    HW130947   9.164   4.295   5.911  0.5326 -2.6412 -1.2448
10123SOL    HW230948   9.079   4.247   6.027  0.6785  2.2457  1.1214
10124SOL     OW30949   1.320   7.499   1.263  0.0288 -0.3835 -0.3366
10124SOL    HW130950   1.260   7.537   1.198  1.1321  2.1129 -0.0189
10124SOL    HW230951   1.278   7.518   1.347  0.9448  0.9307 -0.1386
10125SOL     OW30952   7.518   1.008   1.041 -0.0948  0.1615  0.3587
10125SOL    HW130953   7.516   0.912   1.043 -0.9124  0.1687  1.5852
10125SOL    HW230954   7.609   1.031   1.055  0.2530 -0.4251 -0.8023
10126SOL     OW30955   8.700   1.835   8.786 -0.3078 -0.9699  0.3456
10126SOL    HW130956   8.754   1.761   8.811  0.2465 -0.3096  1.1826
10126SOL    HW230957   8.761   1.899   8.750 -0.7166 -0.7503  0.0272
10127SOL     OW30958   5.938   2.963   1.076 -0.2478  0.1777  0.2618
10127SOL    HW130959   5.877   3.036   1.071  0.9232  1.1993  0.2635
10127SOL    HW230960   6.014   2.991   1.024  0.2446 -1.0167  0.2971
10128SOL     OW30961   1.663   7.301   3.106 -0.4292 -0.1882  0.5665
10128SOL    HW130962   1.598   7.364   3.073  0.3871  0.0441 -0.6633
10128SOL    HW230963   1.736   7.356   3.133 -0.7389 -0.4490  1.9837
10129SOL     OW30964   2.465   3.011   7.389 -0.4111  0.0265  0.5885
10129SOL    HW130965   2.512   2.998   7.307  0.0239  0.1960  0.8072
10129SOL    HW230966   2.491   3.098   7.418 -1.1654  0.2773  0.5188
10130SOL     OW30967   0.352   2.972   7.057  0.1144 -0.1565 -0.0258
10130SOL    HW130968   0.403   2.989   6.978 -0.0032 -0.8650 -0.2570
10130SOL    HW230969   0.261   2.984   7.031  0.1271  0.5846  0.2537
10131SOL     OW30970   5.036   0.093   0.365 -0.3998 -0.3165  0.3085
10131SOL    HW130971   5.116   0.046   0.386 -1.4610 -2.4291 -0.1508
10131SOL    HW230972   5.061   0.186   0.366  2.5352 -0.9604 -1.8162
10132SOL     OW30973   1.106   6.877   3.036 -0.7662 -0.6976 -0.0423
10132SOL    HW130974   1.052   6.850   2.961 -3.3227  0.3439  1.2946
10132SOL    HW230975   1.150   6.957   3.006 -0.2387 -1.3353 -1.0250
10133SOL     OW30976   7.464   0.112   4.163  0.0675 -0.6620  0.0569
10133SOL    HW130977   7.442   0.101   4.256 -1.7867 -0.5952 -0.3472
10133SOL    HW230978   7.385   0.149   4.124  0.6663 -1.1260 -1.6557
10134SOL     OW30979   2.891   1.411   6.054  0.6752  0.7382 -0.4637
10134SOL    HW130980   2.843   1.370   5.983  1.1056  2.8069 -2.0467
10134SOL    HW230981   2.848   1.495   6.068  2.0891  1.4274  0.0212
10135SOL     OW30982   3.902   5.217   4.304 -0.6239  0.1601  0.2905
10135SOL    HW130983   3.978   5.162   4.323  0.3230  1.2857 -0.1182
10135SOL    HW230984   3.843   5.204   4.379 -1.0756 -2.4229 -0.4008
10136SOL     OW30985   3.038   9.634   8.872 -0.2495 -0.1188 -0.1494
10136SOL    HW130986   3.095   9.566   8.908 -1.8689 -2.6365 -2.0768
10136SOL    HW230987   2.955   9.624   8.919 -0.4015  0.7952 -0.1962
10137SOL     OW30988   0.435   9.685   9.638 -0.2473 -0.1534  0.0936
10137SOL    HW130989   0.519   9.639   9.635 -0.4069 -0.4415 -2.0925
10137SOL    HW230990   0.381   9.641   9.571 -2.5532 -0.6874  2.1469
10138SOL     OW30991   9.635   4.466   5.311 -0.2585  0.2174 -0.6818
10138SOL    HW130992   9.629   4.541   5.253  0.4503 -0.6999 -1.9862
10138SOL    HW230993   9.644   4.504   5.399 -2.2437  1.6258 -1.0142
10139SOL     OW30994   3.838   0.584   9.297 -0.0322 -0.1509  0.0918
10139SOL    HW130995   3.819   0.597   9.204  2.7203  2.1258 -0.2802
10139SOL    HW230996   3.754   0.598   9.341 -1.4091 -1.3327 -1.9692
10140SOL     OW30997   9.210   1.647   2.690  0.2724 -0.1797  0.6918
10140SOL    HW130998   9.251   1.635   2.775 -1.8970  0.0736  1.8668
10140SOL    HW230999   9.169   1.562   2.671 -0.2175  0.0975  0.4768
10141SOL     OW31000   3.782   0.283   9.315 -0.1782  0.4261 -0.4245
10141SOL    HW131001   3.816   0.371   9.302  0.5682  0.2486  0.2631
10141SOL    HW231002   3.704   0.295   9.369 -0.5387  0.7290 -1.0064
10142SOL     OW31003   6.312   7.213   7.121 -0.2440  0.1025  0.6029
10142SOL    HW131004   6.238   7.246   7.070  0.8043  0.1745 -0.9343
10142SOL    HW231005   6.388   7.258   7.084  0.6540 -0.4917  1.6863
10143SOL     OW31006   6.655   8.209   9.498 -0.1362  0.0842  0.0184
10143SOL    HW131007   6.727   8.146   9.493  2.4513  2.8065  0.6298
10143SOL    HW231008   6.680   8.270   9.568 -3.3565  0.8773  0.6724
10144SOL     OW31009   4.248   2.543   5.022  0.5545 -0.4450 -0.2378
10144SOL    HW131010   4.220   2.543   4.930  0.9172  0.0407 -0.3524
10144SOL    HW231011   4.200   2.470   5.062  0.0718 -0.3926 -0.7150
10145SOL     OW31012   1.468   6.175   2.250 -0.2749 -0.0219  0.2295
10145SOL    HW131013   1.484   6.265   2.221 -0.9712 -0.1302 -0.5199
10145SOL    HW231014   1.446   6.184   2.343  0.2445  0.5139  0.3126
10146SOL     OW31015   7.854   6.147   5.784  0.1804 -0.3138  0.3597
10146SOL    HW131016   7.835   6.062   5.743 -0.8362 -0.2872  0.7291
10146SOL    HW231017   7.907   6.194   5.720 -0.0529 -0.8731 -0.2575
10147SOL     OW31018   2.396   9.669   8.976 -0.5339  0.6578  0.1647
10147SOL    HW131019   2.444   9.587   8.963  0.8728  1.3170  0.9369
10147SOL    HW231020   2.305   9.643   8.983 -0.0128 -0.9698  1.3858
10148SOL     OW31021   6.853   6.223   8.447  0.0528  0.0320  0.0131
10148SOL    HW131022   6.762   6.246   8.430  0.0923 -0.5956 -1.0996
10148SOL    HW231023   6.903   6.299   8.417  0.0396 -0.5776 -1.6248
10149SOL     OW31024   7.230   0.041   6.286 -0.0452 -0.0600  0.1257
10149SOL    HW131025   7.173   0.089   6.226 -0.4844 -0.8194 -0.0843
10149SOL    HW231026   7.175  -0.028   6.322  0.6546 -0.6171  0.1646
10150SOL     OW31027   4.749   8.710   6.355 -0.5407 -0.8748  0.0063
10150SOL    HW131028   4.709   8.762   6.425  1.6786  0.8044  0.1395
10150SOL    HW231029   4.772   8.627   6.397  0.7990  0.1227  1.3550
10151SOL     OW31030   8.696   2.676   2.958 -0.0693 -0.4049 -0.1070
10151SOL    HW131031   8.778   2.692   2.912  0.8991 -0.6642  1.4842
10151SOL    HW231032   8.665   2.763   2.983  1.5379 -0.4497  2.3045
10152SOL     OW31033   0.047   5.091   2.704 -0.2856 -0.0090 -0.8010
10152SOL    HW131034   0.081   5.180   2.696 -0.8510  0.1935 -0.9854
10152SOL    HW231035   0.122   5.035   2.688 -0.0367  0.4348 -1.1879
10153SOL     OW31036   9.638   1.208   8.381  0.1566 -0.6592 -0.0508
10153SOL    HW131037   9.661   1.247   8.465  1.8864 -0.8989 -0.3687
10153SOL    HW231038   9.701   1.137   8.369  0.2192 -0.3771 -1.7167
10154SOL     OW31039   0.426   9.084   6.677 -0.2499 -0.1581 -0.0963
10154SOL    HW131040   0.453   8.992   6.671  1.2859  0.2388  0.2167
10154SOL    HW231041   0.500   9.132   6.640 -1.0234  0.9613 -0.2224
10155SOL     OW31042   4.030   9.413   4.944  0.3452 -0.1996  0.1219
10155SOL    HW131043   4.042   9.506   4.923  1.0093 -0.0185  1.2376
10155SOL    HW231044   4.015   9.372   4.859  1.1863  0.7578 -0.5246
10156SOL     OW31045   2.481   2.223   1.090  0.2882 -0.0343  0.2611
10156SOL    HW131046   2.448   2.251   1.004  1.0595 -1.6929 -0.6194
10156SOL    HW231047   2.559   2.276   1.103 -1.0858  1.9067  1.0696
10157SOL     OW31048   8.788   1.870   6.383 -0.2522 -0.0759 -0.4283
10157SOL    HW131049   8.830   1.801   6.434 -2.0790 -0.5981  0.4723
10157SOL    HW231050   8.694   1.856   6.397 -0.7237  1.4472 -1.7636
10158SOL     OW31051   3.565   7.610   0.194  0.1468 -0.1440  0.1382
10158SOL    HW131052   3.517   7.601   0.111 -0.1844 -0.6534  0.3807
10158SOL    HW231053   3.497   7.635   0.257  0.3190 -0.2070  0.3477
10159SOL     OW31054   5.693   5.134   4.926  0.3187  0.5907  0.3646
10159SOL    HW131055   5.687   5.229   4.920  1.2331  0.6062 -0.5942
10159SOL    HW231056   5.690   5.104   4.835  0.5994 -0.2503  0.6266
10160SOL     OW31057   2.682   8.556   9.681 -0.3936 -0.8056  0.7076
10160SOL    HW131058   2.724   8.642   9.681 -2.9260  0.5195  0.6301
10160SOL    HW231059   2.731   8.506   9.747  0.8005  0.8383  1.1460
10161SOL     OW31060   1.273   0.154   5.109 -0.0078 -0.3927 -0.0367
10161SOL    HW131061   1.333   0.168   5.183 -0.9864 -2.0624  1.1316
10161SOL    HW231062   1.330   0.154   5.032  0.9943  1.7624  0.6243
10162SOL     OW31063   7.790   8.529   6.658  0.0646  0.1551  0.1289
10162SOL    HW131064   7.828   8.494   6.738  2.2491 -1.0600 -1.3113
10162SOL    HW231065   7.708   8.481   6.647 -0.2259  0.2927  1.5649
10163SOL     OW31066   8.170   4.579   1.639  0.6354  0.1664 -0.1853
10163SOL    HW131067   8.089   4.589   1.689  0.5307 -2.4803  0.3352
10163SOL    HW231068   8.239   4.580   1.706  0.7289 -0.6652 -0.2536
10164SOL     OW31069   3.528   5.903   9.354  0.7473 -0.1730  0.5689
10164SOL    HW131070   3.552   5.852   9.431  1.9431 -1.7864 -0.7884
10164SOL    HW231071   3.600   5.889   9.293  1.0602  3.0940  0.0320
10165SOL     OW31072   8.402   1.779   7.896 -0.4512  0.0482  0.0509
10165SOL    HW131073   8.314   1.741   7.890 -0.9383  1.1854 -0.2114
10165SOL    HW231074   8.461   1.704   7.886 -1.3794 -0.5895 -0.8732
10166SOL     OW31075   9.960   0.132   2.462  0.1836 -0.3306  0.0745
10166SOL    HW131076   9.904   0.209   2.451  0.8130  0.3215  1.3484
10166SOL    HW231077   9.994   0.139   2.551  2.6156 -0.5004 -0.7906
10167SOL     OW31078   4.679   5.874   4.217  0.2960  0.4522  0.0969
10167SOL    HW131079   4.634   5.893   4.300  0.5899 -0.1461  0.4042
10167SOL    HW231080   4.668   5.779   4.206  0.3884  0.5064 -0.4769
10168SOL     OW31081   1.608   1.365   9.177  0.3320  1.1086 -0.3421
10168SOL    HW131082   1.578   1.454   9.158 -0.1208  0.9980 -0.1518
10168SOL    HW231083   1.691   1.377   9.222 -0.8954  1.5266  1.9575
10169SOL     OW31084   6.766   6.935   8.058  0.0841  1.1105  0.6079
10169SOL    HW131085   6.781   6.951   7.965 -1.2578  0.5672  0.2726
10169SOL    HW231086   6.802   7.012   8.102 -0.0391  1.7772 -0.4198
10170SOL     OW31087   2.041   2.839   2.928 -0.1424 -0.0242  0.5596
10170SOL    HW131088   2.096   2.916   2.939  1.5390 -1.1016  0.0195
10170SOL    HW231089   1.951   2.872   2.937  0.4039  2.3839 -1.6917
10171SOL     OW31090   5.738   0.086   3.770  0.2708  0.2193 -0.5205
10171SOL    HW131091   5.675   0.024   3.809 -0.1344 -1.0917 -3.0576
10171SOL    HW231092   5.689   0.168   3.764  0.2675  0.4060  1.3848
10172SOL     OW31093   6.522   9.019   2.513  0.2401  0.8137 -0.0660
10172SOL    HW131094   6.616   9.004   2.519  0.0143 -1.2935 -1.1147
10172SOL    HW231095   6.514   9.100   2.462  1.4534  0.7533 -0.3791
10173SOL     OW31096   8.877   4.071   2.299  0.1012  0.0258 -0.0667
10173SOL    HW131097   8.814   4.098   2.232 -1.6728  0.6016  1.7235
10173SOL    HW231098   8.884   3.976   2.288  0.8839  0.2530 -1.8688
10174SOL     OW31099   5.853   0.040   0.652 -1.2335 -0.3942  0.1561
10174SOL    HW131100   5.834   0.031   0.559  0.8103  1.4778 -0.5342
10174SOL    HW231101   5.787   0.101   0.684 -2.3768 -1.5857  0.1369
10175SOL     OW31102   9.625   1.121   0.237  0.0885 -0.0947 -0.2118
10175SOL    HW131103   9.587   1.206   0.214 -1.8864 -1.1630 -1.1284
10175SOL    HW231104   9.674   1.095   0.158  0.1332 -0.1185 -0.1766
10176SOL     OW31105   2.608   7.452   7.254  0.1600 -0.1236 -0.5964
10176SOL    HW131106   2.619   7.369   7.301  1.7797  0.3687 -0.0468
10176SOL    HW231107   2.513   7.466   7.253 -0.0079 -0.7379  1.5169
10177SOL     OW31108   5.047   7.927   1.874 -0.5287  0.3790  0.1834
10177SOL    HW131109   5.107   7.979   1.820  1.2236 -2.3269 -0.6761
10177SOL    HW231110   5.093   7.914   1.956 -0.7536 -0.1797  0.2255
10178SOL     OW31111   8.206   9.831   2.436  0.8275 -0.4510  0.2979
10178SOL    HW131112   8.223   9.738   2.423  0.4804 -0.5149  0.2974
10178SOL    HW231113   8.227   9.871   2.352  0.4120 -0.6072  0.1215
10179SOL     OW31114   6.392   4.166   5.241  0.2854 -0.0065 -0.1148
10179SOL    HW131115   6.476   4.159   5.285  0.7373 -0.2824 -1.0053
10179SOL    HW231116   6.345   4.086   5.265  0.8553 -0.5551 -0.7952
10180SOL     OW31117   3.824   1.025   0.829 -0.5003  0.4470  0.2041
10180SOL    HW131118   3.905   1.062   0.794 -0.8062  1.8751  0.9596
10180SOL    HW231119   3.804   0.952   0.769 -0.1448  1.7930 -1.6524
10181SOL     OW31120   1.181   7.221   4.529 -0.0177 -0.2235 -0.0122
10181SOL    HW131121   1.213   7.311   4.538  0.4164 -0.3629 -0.1125
10181SOL    HW231122   1.149   7.217   4.439 -2.1473  0.4800  0.6619
10182SOL     OW31123   9.343   0.894   0.673 -0.2742 -0.3287 -0.0799
10182SOL    HW131124   9.409   0.906   0.605 -1.7176  1.6323 -1.2612
10182SOL    HW231125   9.317   0.802   0.665  2.0384 -1.0807  0.2415
10183SOL     OW31126   7.521   6.508   6.835 -0.0595 -0.0716 -0.0355
10183SOL    HW131127   7.559   6.468   6.913 -2.2836 -2.8288 -0.1945
10183SOL    HW231128   7.596   6.526   6.778  1.4797  0.6625  2.0849
10184SOL     OW31129   3.262   2.298   1.586 -0.0896 -0.3038 -0.1373
10184SOL    HW131130   3.325   2.335   1.648  0.1699  0.1690 -0.6668
10184SOL    HW231131   3.279   2.204   1.587  2.1690  0.0104 -1.8904
10185SOL     OW31132   0.619   9.259   0.554  0.7406 -0.0927  0.0489
10185SOL    HW131133   0.578   9.239   0.638 -0.7784 -1.3262 -0.9445
10185SOL    HW231134   0.606   9.354   0.543 -1.0219 -0.2800  0.2295
10186SOL     OW31135   0.646   2.511   4.702  0.0187 -0.7585  0.0806
10186SOL    HW131136   0.553   2.491   4.715 -0.0879  0.2376  0.9345
10186SOL    HW231137   0.646   2.589   4.647  0.3069 -0.1977  0.8500
10187SOL     OW31138   5.642   2.486   5.864  0.5050  0.5924 -0.5409
10187SOL    HW131139   5.658   2.412   5.923  0.3887  1.3132  0.4146
10187SOL    HW231140   5.548   2.484   5.848  0.5772  0.2246 -0.9509
10188SOL     OW31141   5.135   8.286   4.818 -0.1151  0.0842  0.4781
10188SOL    HW131142   5.092   8.209   4.857 -1.6500  0.1108 -1.0508
10188SOL    HW231143   5.070   8.322   4.758  1.1494  1.6928  0.0052
10189SOL     OW31144   3.805   7.433   9.602  0.4480  0.3386 -0.6446
10189SOL    HW131145   3.852   7.482   9.535 -0.4697 -1.5872 -2.8292
10189SOL    HW231146   3.873   7.385   9.650  1.0338  0.9760 -0.8213
10190SOL     OW31147   4.794   9.975   6.812 -0.1036  0.1969 -0.3861
10190SOL    HW131148   4.773   9.892   6.769  2.5502  0.6567 -2.8513
10190SOL    HW231149   4.885   9.964   6.842 -0.1418  1.7898  0.4378
10191SOL     OW31150   0.472   0.946   2.671  0.4824 -0.1853  0.1142
10191SOL    HW131151   0.456   1.016   2.607  0.4466 -0.1169  0.1974
10191SOL    HW231152   0.559   0.964   2.705  0.4451 -0.1397  0.1870
10192SOL     OW31153   3.821   0.023   3.157 -0.4446 -0.1748  0.1900
10192SOL    HW131154   3.835   0.042   3.249 -0.3377 -1.7730  0.5294
10192SOL    HW231155   3.885   0.078   3.111  0.0709  0.0146  1.1140
10193SOL     OW31156   2.228   9.935   7.859 -0.1531  0.0847  0.1772
10193SOL    HW131157   2.265   9.848   7.873 -1.9692 -1.1986 -2.2897
10193SOL    HW231158   2.153   9.939   7.918  0.5554  0.4552  1.0789
10194SOL     OW31159   9.436   7.131   0.467 -0.5652  0.5129 -0.2429
10194SOL    HW131160   9.492   7.091   0.400 -1.2418  2.3209 -1.9969
10194SOL    HW231161   9.405   7.057   0.519  0.1320 -0.9600 -1.8066
10195SOL     OW31162   7.511   6.994   9.880  0.1974  0.0783  0.1789
10195SOL    HW131163   7.524   6.901   9.898  0.4925  0.2316  0.7882
10195SOL    HW231164   7.441   6.996   9.814  1.1312 -0.6291 -0.8610
10196SOL     OW31165   1.773   2.754   4.288 -0.0848  0.6426 -0.2726
10196SOL    HW131166   1.747   2.712   4.371  0.8453  1.4433  0.4492
10196SOL    HW231167   1.832   2.691   4.248  0.6376  0.8761  0.3999
10197SOL     OW31168   6.772   1.699   1.897 -0.4553  0.3904 -0.1461
10197SOL    HW131169   6.857   1.741   1.888 -0.7865  1.8939  2.5709
10197SOL    HW231170   6.741   1.726   1.984 -2.8024 -1.7734 -0.1941
10198SOL     OW31171   4.016   1.770   6.350 -0.0103  0.1779 -0.5005
10198SOL    HW131172   3.985   1.789   6.439 -1.0672 -1.1524 -0.5435
10198SOL    HW231173   4.108   1.793   6.351  0.6869 -2.1747  1.7633
10199SOL     OW31174   0.028   5.898   4.863 -0.5845  0.1298 -0.3093
10199SOL    HW131175   0.015   5.993   4.867  1.8645  0.5062 -0.0795
10199SOL    HW231176   0.051   5.874   4.953  1.8754 -0.1165 -0.9284
10200SOL     OW31177   2.282   3.454   1.946 -0.5173 -0.0553  0.1035
10200SOL    HW131178   2.238   3.410   2.019 -0.6752  0.6349  0.4335
10200SOL    HW231179   2.374   3.433   1.958 -0.2754  1.6100  1.6514
10201SOL     OW31180   2.029   3.335   4.739  0.2712 -0.7461 -0.1326
10201SOL    HW131181   1.994   3.414   4.697 -0.4020 -1.3298 -0.6775
10201SOL    HW231182   1.952   3.285   4.765  0.6928 -1.1676  0.3331
10202SOL     OW31183   5.912   4.430   6.785  0.2511 -0.1980 -0.0904
10202SOL    HW131184   5.820   4.452   6.790  0.1435 -0.6763  0.1298
10202SOL    HW231185   5.938   4.453   6.695 -0.7184 -2.4223 -1.0193
10203SOL     OW31186   2.052   7.473   6.852  0.4923  0.3106  0.8324
10203SOL    HW131187   2.071   7.430   6.935  0.1010 -1.3782  0.0836
10203SOL    HW231188   2.132   7.464   6.801  0.0065 -0.6845  0.2150
10204SOL     OW31189   8.710   3.414   9.546  0.7929  0.2594 -0.5148
10204SOL    HW131190   8.749   3.359   9.614 -0.3912 -1.3003 -1.0477
10204SOL    HW231191   8.618   3.388   9.542 -0.0150  2.7876 -0.3316
10205SOL     OW31192   2.953   1.921   7.175 -0.4052  0.5429  0.5507
10205SOL    HW131193   2.884   1.855   7.182 -1.5058  1.4889 -0.7375
10205SOL    HW231194   3.034   1.873   7.184 -1.2156 -0.7615  1.1273
10206SOL     OW31195   5.730   3.896   6.427 -0.2378 -0.0046  0.5769
10206SOL    HW131196   5.636   3.879   6.432 -0.5214  1.6062  1.1137
10206SOL    HW231197   5.763   3.872   6.513 -0.2816  0.1044  0.6245
10207SOL     OW31198   6.378   1.775   9.799 -0.0297  0.0943 -0.2128
10207SOL    HW131199   6.362   1.681   9.791  0.2331  0.0286  0.0234
10207SOL    HW231200   6.318   1.815   9.735 -0.8047 -0.1695  0.3388
10208SOL     OW31201   9.603   7.167   9.005 -0.6108 -0.4712 -0.0308
10208SOL    HW131202   9.511   7.166   9.034  0.0123  2.4297  2.6544
10208SOL    HW231203   9.612   7.253   8.962  1.1004 -0.2004  0.8236
10209SOL     OW31204   5.661   2.051   5.430 -0.6880  0.2362 -0.0262
10209SOL    HW131205   5.697   2.139   5.423 -1.1484  0.3851 -0.6255
10209SOL    HW231206   5.695   2.017   5.513 -2.4231  1.8528  1.4462
10210SOL     OW31207   6.500   4.679   4.340  0.4863 -0.1294  0.2445
10210SOL    HW131208   6.512   4.772   4.355  2.0646 -0.0781 -0.9779
10210SOL    HW231209   6.419   4.657   4.385 -0.3557  1.9968 -0.1176
10211SOL     OW31210   7.538   4.291   0.560  0.4283 -0.3412 -0.3304
10211SOL    HW131211   7.495   4.369   0.525 -0.4675  0.0028  1.4291
10211SOL    HW231212   7.466   4.229   0.575  0.8567 -0.6782  0.3640
10212SOL     OW31213   0.939   7.038   9.316  0.7193  0.0162  0.3442
10212SOL    HW131214   0.926   7.031   9.222  1.8268 -0.9149  0.2326
10212SOL    HW231215   0.917   7.128   9.337  0.7429  0.3132 -0.8531
10213SOL     OW31216   2.763   2.102   8.320 -0.1360 -0.1272  0.0575
10213SOL    HW131217   2.685   2.136   8.277 -0.2253 -2.0801 -1.4490
10213SOL    HW231218   2.836   2.141   8.272 -0.0857  1.8252  1.5662
10214SOL     OW31219   6.333   7.707   8.232  0.0443  0.1150 -0.4833
10214SOL    HW131220   6.315   7.614   8.218 -0.4710 -0.0726  1.2174
10214SOL    HW231221   6.386   7.710   8.311 -0.6805  1.3099 -0.0131
10215SOL     OW31222   1.429   9.556   2.853 -0.2233 -0.3854 -0.1608
10215SOL    HW131223   1.477   9.638   2.858 -0.4483 -0.2903  0.5852
10215SOL    HW231224   1.460   9.505   2.928  0.4388 -1.2751 -1.0136
10216SOL     OW31225   9.682   5.115   8.437  0.2691 -0.1060 -0.2712
10216SOL    HW131226   9.726   5.042   8.481 -2.2957 -1.2154  0.6655
10216SOL    HW231227   9.696   5.190   8.495  0.5022 -0.5540  0.2605
10217SOL     OW31228   3.149   9.762   4.804  0.3652 -0.0517 -0.3199
10217SOL    HW131229   3.065   9.803   4.784 -0.4773 -0.6590  1.6978
10217SOL    HW231230   3.127   9.672   4.830  1.6611 -0.2753  0.1010
10218SOL     OW31231   1.637   6.323   5.216 -0.4078 -0.6464  0.2166
10218SOL    HW131232   1.662   6.357   5.130 -1.3150 -0.0538  0.1782
10218SOL    HW231233   1.699   6.363   5.277 -1.1007  0.6548  0.0973
10219SOL     OW31234   1.357   8.964   9.030 -0.0521  0.2945  0.0204
10219SOL    HW131235   1.416   8.930   9.097 -0.6273  0.7066  0.7472
10219SOL    HW231236   1.357   8.897   8.962 -0.3521 -0.6808  0.9525
10220SOL     OW31237   5.966   6.850   4.723  0.5628 -0.3824 -0.4193
10220SOL    HW131238   5.917   6.771   4.746 -0.8658 -0.1575 -2.4463
10220SOL    HW231239   5.900   6.919   4.719  1.6537  0.7755  0.4313
10221SOL     OW31240   8.733   9.621   5.691 -0.6767  0.4378  0.0591
10221SOL    HW131241   8.698   9.690   5.634 -0.0392  2.7130  2.2042
10221SOL    HW231242   8.823   9.648   5.708 -0.5449 -0.7038  1.3366
10222SOL     OW31243   5.726   2.184   1.719 -0.3940 -0.1933 -0.1191
10222SOL    HW131244   5.807   2.171   1.769  0.5140  1.9696 -0.9134
10222SOL    HW231245   5.745   2.259   1.663 -2.6750 -0.2037 -0.9730
10223SOL     OW31246   7.103   2.385   6.489  0.1487  0.0221 -0.1976
10223SOL    HW131247   7.128   2.293   6.492  1.5389  0.3557 -1.0227
10223SOL    HW231248   7.074   2.399   6.398 -2.4486 -0.1595  0.5092
10224SOL     OW31249   1.429   8.929   3.897 -0.8362  0.5545  0.3063
10224SOL    HW131250   1.347   8.967   3.863 -0.3877  1.4711  0.2066
10224SOL    HW231251   1.404   8.894   3.983 -1.1472  1.6738  0.6946
10225SOL     OW31252   1.838   9.686   9.610  0.3230  0.2080 -0.4452
10225SOL    HW131253   1.900   9.732   9.667 -0.2898  1.5448 -0.8111
10225SOL    HW231254   1.755   9.733   9.622  0.1537  0.4871 -2.3531
10226SOL     OW31255   0.105   9.791   9.086  0.1376 -0.7125 -0.6022
10226SOL    HW131256   0.023   9.784   9.037 -0.3358 -2.0251  0.3222
10226SOL    HW231257   0.108   9.883   9.115 -1.2618 -0.7739 -0.2157
10227SOL     OW31258   0.195   2.760   8.814  0.3623  0.1241  0.3675
10227SOL    HW131259   0.152   2.815   8.748  0.8552 -0.3654 -0.3785
10227SOL    HW231260   0.155   2.674   8.805  1.5787 -0.3838 -0.4535
10228SOL     OW31261   3.365   7.813   3.476  0.0328  0.3153 -0.0046
10228SOL    HW131262   3.299   7.794   3.410  0.0990 -1.7812  0.4575
10228SOL    HW231263   3.315   7.825   3.557  0.1068  0.2601  0.0498
10229SOL     OW31264   3.447   0.595   7.157  0.0779 -0.6739 -0.0616
10229SOL    HW131265   3.397   0.616   7.078 -0.2385  0.9377  0.5287
10229SOL    HW231266   3.536   0.621   7.136 -0.0106 -0.2247  0.1210
10230SOL     OW31267   5.138   5.978   4.326  0.0477  0.3376  0.1859
10230SOL    HW131268   5.057   5.932   4.349  1.3452 -2.2067  0.0535
10230SOL    HW231269   5.189   5.977   4.407 -0.1654  2.3508  0.4033
10231SOL     OW31270   9.358   6.121   2.132  0.5195 -0.3710 -0.4511
10231SOL    HW131271   9.444   6.158   2.148 -0.3449  1.6173 -0.2088
10231SOL    HW231272   9.358   6.038   2.180  1.7517  0.3390  0.8327
10232SOL     OW31273   2.035   8.516   6.754  0.0758 -0.4520  0.7075
10232SOL    HW131274   2.108   8.550   6.806 -0.4023  0.2677  0.9184
10232SOL    HW231275   1.967   8.497   6.818 -0.2354 -0.2959  0.4255
10233SOL     OW31276   4.601   3.173   0.972  0.5883  0.0130  0.0319
10233SOL    HW131277   4.644   3.254   1.000  0.0063  0.2825  0.1810
10233SOL    HW231278   4.529   3.162   1.035 -0.2123  0.1629 -0.8324
10234SOL     OW31279   3.075   7.080   0.559  0.5345  0.0186  0.6458
10234SOL    HW131280   3.129   7.032   0.621 -0.0078  0.6924  1.6635
10234SOL    HW231281   3.007   7.017   0.533  1.1544 -0.4788  0.1986
10235SOL     OW31282   6.995   4.062  -0.025 -0.5799  0.1730  0.0779
10235SOL    HW131283   6.971   4.063   0.067 -0.7712  0.0731  0.0297
10235SOL    HW231284   7.068   4.001  -0.031 -1.8842 -1.4223 -0.1615
10236SOL     OW31285   6.752   5.627   4.048 -0.0601 -0.3727 -0.1225
10236SOL    HW131286   6.665   5.661   4.066 -0.7755 -1.5322 -1.1871
10236SOL    HW231287   6.747   5.534   4.071  1.4370 -0.1095  1.4561
10237SOL     OW31288   1.220   7.343   5.474 -0.5451 -0.4635  0.6228
10237SOL    HW131289   1.136   7.389   5.475  0.1021  0.7721  0.3305
10237SOL    HW231290   1.203   7.263   5.425 -1.3125  0.2421 -0.2944
10238SOL     OW31291   6.182   1.643   0.220 -0.2154  0.2667 -0.0598
10238SOL    HW131292   6.247   1.710   0.240  0.2699  0.3892 -1.8744
10238SOL    HW231293   6.233   1.562   0.215 -0.5551  0.0034  0.5550
10239SOL     OW31294   9.211   8.636   2.593 -0.0395  0.1648 -0.4717
10239SOL    HW131295   9.203   8.549   2.556 -1.1937 -0.0194  0.1562
10239SOL    HW231296   9.126   8.678   2.575  0.8599  1.5696 -1.7474
10240SOL     OW31297   8.327   8.409   8.539 -0.5048  0.4673  0.5703
10240SOL    HW131298   8.254   8.381   8.594 -0.6391 -2.8858 -1.0524
10240SOL    HW231299   8.306   8.376   8.452  2.5050  0.1433 -0.1553
10241SOL     OW31300   2.792   2.040   3.576  0.3797  0.1535  0.0349
10241SOL    HW131301   2.731   2.083   3.636  0.9440  0.0567  0.6823
10241SOL    HW231302   2.878   2.071   3.602  0.5768  0.7272 -1.2361
10242SOL     OW31303   5.110   8.829   6.662  0.4269  0.0725  0.6091
10242SOL    HW131304   5.072   8.912   6.631  2.1853  0.7740  0.1905
10242SOL    HW231305   5.074   8.818   6.750  0.4390  1.5095  0.8320
10243SOL     OW31306   9.040   6.044   7.229  1.0155 -0.3096 -0.4188
10243SOL    HW131307   8.973   5.994   7.274  0.7187 -0.5658 -1.1340
10243SOL    HW231308   9.121   5.996   7.244  0.6621 -1.2788 -1.4785
10244SOL     OW31309   1.994   3.644   4.652  0.1964  0.1238 -0.0930
10244SOL    HW131310   2.024   3.582   4.586  2.5409 -0.5017  1.4436
10244SOL    HW231311   2.073   3.671   4.698 -1.4619 -1.6609  4.3510
10245SOL     OW31312   4.623   0.827   2.416 -0.0224 -0.3332  0.1996
10245SOL    HW131313   4.618   0.919   2.388 -2.6553 -0.6706 -0.6422
10245SOL    HW231314   4.677   0.785   2.350  0.5430  0.4167  0.1578
10246SOL     OW31315   3.959   7.438   8.770 -0.0696 -0.0963  0.2119
10246SOL    HW131316   4.027   7.372   8.754  0.0402 -0.1672  0.9375
10246SOL    HW231317   3.909   7.404   8.844 -1.3856 -0.4146 -0.7824
10247SOL     OW31318   8.269   9.600   5.045  0.0260 -0.0491 -0.4801
10247SOL    HW131319   8.349   9.546   5.040  0.1888  0.1927 -0.5360
10247SOL    HW231320   8.298   9.686   5.016  0.2661  0.6290  1.6364
10248SOL     OW31321   1.982   7.212   0.530  0.0689 -0.1482  0.7620
10248SOL    HW131322   2.000   7.276   0.462 -0.2191 -1.2545 -0.3993
10248SOL    HW231323   1.956   7.264   0.606 -0.3753  1.1045 -0.2116
10249SOL     OW31324   9.939   5.324   9.744  0.0417  0.4799  0.2481
10249SOL    HW131325   9.994   5.274   9.684  0.7040  1.6600 -0.1598
10249SOL    HW231326   9.976   5.307   9.830  2.2353  2.5861 -0.1529
10250SOL     OW31327   1.959   8.420   6.189 -0.0366 -0.3196 -0.0828
10250SOL    HW131328   1.938   8.379   6.106  1.6286 -1.8218  0.1796
10250SOL    HW231329   1.952   8.514   6.172 -1.4955 -0.6331 -1.3929
10251SOL     OW31330   9.340   6.949   9.108 -0.1855  0.2253  0.1262
10251SOL    HW131331   9.247   6.943   9.129  0.0040  0.7729  1.2112
10251SOL    HW231332   9.385   6.923   9.189  0.6442 -1.7034 -0.8712
10252SOL     OW31333   2.775   3.996   2.543 -0.8366  0.1532 -0.3780
10252SOL    HW131334   2.688   3.996   2.503 -0.8355 -1.2519 -0.4172
10252SOL    HW231335   2.791   3.905   2.565  0.1065  0.5869  0.7965
10253SOL     OW31336   0.473   4.307   4.006  0.0748 -0.2843 -0.6098
10253SOL    HW131337   0.401   4.246   3.989 -0.9388  0.7682 -0.1942
10253SOL    HW231338   0.495   4.343   3.921 -0.1765 -0.2835 -0.6734
10254SOL     OW31339   8.685   8.745   8.144 -0.1974  0.2275 -0.2464
10254SOL    HW131340   8.610   8.789   8.103 -0.5983 -1.2482 -1.1573
10254SOL    HW231341   8.741   8.817   8.174 -1.0642  1.3571 -1.2216
10255SOL     OW31342   8.810   1.272   5.752  0.1259  0.0201  0.5910
10255SOL    HW131343   8.757   1.292   5.675  1.1912  1.5585  0.2067
10255SOL    HW231344   8.750   1.282   5.826 -0.2638  1.2117  0.1301
10256SOL     OW31345   2.197   1.662   7.078 -0.0751  0.2661 -0.2300
10256SOL    HW131346   2.108   1.694   7.063  0.5991  1.6798 -1.4943
10256SOL    HW231347   2.191   1.568   7.064 -1.3472  0.3467 -0.3970
10257SOL     OW31348   9.036   2.241   4.369 -0.0904 -0.2085  0.1283
10257SOL    HW131349   9.019   2.155   4.407 -0.9090 -0.2338 -0.2626
10257SOL    HW231350   9.130   2.240   4.348  0.4048 -0.1484  2.2057
10258SOL     OW31351   8.315   4.975   1.179  0.0236 -0.1107  0.5597
10258SOL    HW131352   8.273   4.920   1.245 -0.0623  1.3886  1.8197
10258SOL    HW231353   8.243   5.014   1.130 -0.0116  0.7321  1.2605
10259SOL     OW31354   5.075   8.057   6.120 -0.7400  0.2477  0.0899
10259SOL    HW131355   5.029   8.016   6.194 -0.0739  0.0252  0.3830
10259SOL    HW231356   5.005   8.079   6.059 -1.2314 -0.2285  0.4658
10260SOL     OW31357   2.200   0.999   9.491  0.4940  0.2805 -0.5490
10260SOL    HW131358   2.123   0.946   9.510  0.0619  0.6629 -1.2124
10260SOL    HW231359   2.217   1.047   9.573  1.3247 -1.3873  0.3000
10261SOL     OW31360   5.058   4.481   6.215  0.0071 -0.5350 -0.6440
10261SOL    HW131361   5.085   4.537   6.142  1.9511 -0.4400  0.0820
10261SOL    HW231362   5.029   4.543   6.282  0.0594 -0.5248 -0.6308
10262SOL     OW31363   7.647   1.392   6.234 -0.0408 -0.2432  0.3145
10262SOL    HW131364   7.561   1.412   6.197  0.2384 -0.7862 -0.6607
10262SOL    HW231365   7.701   1.370   6.159  0.6910 -0.8775  1.0038
10263SOL     OW31366   4.681   1.454   6.488 -0.1682 -0.0545  0.0208
10263SOL    HW131367   4.769   1.460   6.451 -0.0117 -0.6487  0.2837
10263SOL    HW231368   4.623   1.490   6.420  0.1821 -0.4994 -0.5157
10264SOL     OW31369   6.269   3.747   0.814 -0.7139 -0.2575  0.3390
10264SOL    HW131370   6.188   3.786   0.781 -0.8159 -1.5923 -1.0555
10264SOL    HW231371   6.326   3.822   0.830 -1.4813  0.5755 -0.6798
10265SOL     OW31372   9.151   1.051   0.766  0.4763  0.6069 -0.1819
10265SOL    HW131373   9.087   0.984   0.789 -1.0216  1.1820 -2.3903
10265SOL    HW231374   9.225   1.002   0.730 -0.0342  0.0511 -0.4922
10266SOL     OW31375   8.310   9.715   0.241  0.0343 -0.5333 -0.6084
10266SOL    HW131376   8.256   9.659   0.185 -0.1654 -0.4957 -0.4529
10266SOL    HW231377   8.321   9.796   0.192 -0.2883 -0.4330 -0.5200
10267SOL     OW31378   9.470   7.650   6.475  0.8665 -0.5915  0.2384
10267SOL    HW131379   9.406   7.679   6.409  1.9083  0.0644 -0.5268
10267SOL    HW231380   9.525   7.727   6.490  1.2893 -1.0520  1.1035
10268SOL     OW31381   0.299   0.152   0.430 -0.0290  0.2571 -0.1888
10268SOL    HW131382   0.333   0.220   0.373  0.8694 -0.8342 -0.9807
10268SOL    HW231383   0.247   0.200   0.495  0.5612  1.6840 -0.7262
10269SOL     OW31384   7.307   3.561   4.534  0.1115  0.0425  0.3033
10269SOL    HW131385   7.291   3.655   4.527 -0.3113  0.1837  2.4810
10269SOL    HW231386   7.395   3.548   4.499  0.1162  1.2211 -0.1577
10270SOL     OW31387   8.883   9.429   1.103 -0.5244 -0.3215 -0.4185
10270SOL    HW131388   8.849   9.440   1.192 -0.7637 -0.7108 -0.4605
10270SOL    HW231389   8.806   9.423   1.047 -0.3763  1.6145 -0.8883
10271SOL     OW31390   9.448   5.214   6.727 -0.0926  0.0207 -0.0744
10271SOL    HW131391   9.396   5.203   6.806 -0.5493  2.0400 -0.0405
10271SOL    HW231392   9.537   5.231   6.759 -0.7138  3.4115  0.2361
10272SOL     OW31393   9.466   2.147   3.934  0.4998  0.8979 -0.1490
10272SOL    HW131394   9.483   2.133   4.027 -1.1173 -1.7972 -0.1490
10272SOL    HW231395   9.393   2.208   3.931 -0.5054 -0.2417  0.4537
10273SOL     OW31396   7.404   8.989   1.418 -0.1310 -0.0853 -0.3270
10273SOL    HW131397   7.394   8.894   1.412 -0.6315 -0.0006 -1.0616
10273SOL    HW231398   7.427   9.006   1.509  2.8586 -1.1464 -0.7887
10274SOL     OW31399   4.335   0.045   7.199  0.2845  0.4274  0.3564
10274SOL    HW131400   4.299   0.080   7.117  1.9109  1.5933  0.1005
10274SOL    HW231401   4.397   0.111   7.229  1.2845 -0.9293  1.4362
10275SOL     OW31402   3.646   0.311   4.099 -0.0389  0.4167 -0.1297
10275SOL    HW131403   3.718   0.294   4.038 -0.1480 -0.1709 -0.1011
10275SOL    HW231404   3.576   0.347   4.044  0.3189  1.1218 -0.1354
10276SOL     OW31405   8.168   0.311   4.796  0.2536 -0.0896  0.0443
10276SOL    HW131406   8.078   0.339   4.776  0.4240  0.3212 -0.1421
10276SOL    HW231407   8.189   0.355   4.878  0.9094  1.2034 -0.7884
10277SOL     OW31408   4.349   6.852   5.684 -0.6425  0.4242  0.3514
10277SOL    HW131409   4.345   6.781   5.620  0.3675  0.9333 -0.2875
10277SOL    HW231410   4.341   6.932   5.632  1.2939  0.8952  0.6936
10278SOL     OW31411   9.081   6.983   6.763  0.6761 -0.8188  0.0549
10278SOL    HW131412   8.996   7.010   6.799  0.6472  0.5052 -0.9184
10278SOL    HW231413   9.131   6.953   6.839  0.5672  1.7161  1.2132
10279SOL     OW31414   0.418   4.449   6.173  0.5467 -0.1987  0.3639
10279SOL    HW131415   0.419   4.354   6.170  0.6241 -0.1878 -0.1505
10279SOL    HW231416   0.380   4.475   6.089 -0.6505  0.2083  1.0068
10280SOL     OW31417   9.781   4.459   4.931 -0.1923 -0.0852 -0.4088
10280SOL    HW131418   9.699   4.506   4.948 -0.5532 -0.7690 -0.2500
10280SOL    HW231419   9.772   4.429   4.840  0.4355  0.9378 -0.8278
10281SOL     OW31420   3.874   6.355   0.623 -0.1614  0.2989 -0.2951
10281SOL    HW131421   3.886   6.276   0.676 -0.6352  0.2215 -0.3031
10281SOL    HW231422   3.955   6.362   0.572 -0.8715 -1.2977 -1.7652
10282SOL     OW31423   0.721   0.073   0.718 -0.0174  0.3863  0.2059
10282SOL    HW131424   0.778   0.033   0.783 -1.3698 -0.1997  1.0597
10282SOL    HW231425   0.642   0.098   0.767 -0.3919  1.4309 -0.8867
10283SOL     OW31426   3.804   4.322   3.559  0.7864 -0.4946 -0.4485
10283SOL    HW131427   3.790   4.313   3.465  1.0909  0.3713 -0.5878
10283SOL    HW231428   3.719   4.299   3.598 -0.5138  2.5407 -1.1583
10284SOL     OW31429   5.825   3.532   1.304  0.3251 -0.2207 -0.1065
10284SOL    HW131430   5.869   3.587   1.238  0.4871 -0.3650 -0.1187
10284SOL    HW231431   5.748   3.583   1.328 -0.7091 -0.9509 -1.6970
10285SOL     OW31432   8.159   8.273   6.602 -0.3681 -0.4384  0.0425
10285SOL    HW131433   8.148   8.368   6.606  1.0480 -0.2048 -0.8247
10285SOL    HW231434   8.181   8.247   6.691  1.1773  0.3586 -0.0621
10286SOL     OW31435   5.692   5.775   7.090 -0.6146  0.0553  0.0518
10286SOL    HW131436   5.720   5.834   7.020 -0.6363  0.2137  0.1766
10286SOL    HW231437   5.738   5.693   7.073 -1.4548 -0.2674 -0.7878
10287SOL     OW31438   0.072   1.727   1.986 -0.5701 -0.1431  0.5333
10287SOL    HW131439   0.053   1.634   1.974 -0.9839 -0.1336  1.0501
10287SOL    HW231440   0.068   1.764   1.898  0.2012 -0.7172  0.2419
10288SOL     OW31441   7.983   2.152   5.244  0.0601 -0.7373 -0.2984
10288SOL    HW131442   8.023   2.235   5.271 -1.4516  0.2798 -1.0296
10288SOL    HW231443   8.053   2.087   5.255  0.9268  0.4135  1.4158
10289SOL     OW31444   0.293   4.174   2.234 -0.8308  0.7317 -0.5099
10289SOL    HW131445   0.292   4.213   2.321 -1.8397 -1.2211  0.4301
10289SOL    HW231446   0.205   4.136   2.224 -0.7279  0.8980 -2.3829
10290SOL     OW31447   3.359   0.936   3.387  0.1788  0.1678 -0.4225
10290SOL    HW131448   3.410   0.876   3.441  0.2512 -0.2227 -0.9157
10290SOL    HW231449   3.271   0.897   3.383  0.7777 -1.1299 -2.5640
10291SOL     OW31450   9.649   4.457   1.665  0.6051 -0.3166 -0.7489
10291SOL    HW131451   9.641   4.528   1.601  0.7084  1.6532  1.2760
10291SOL    HW231452   9.593   4.484   1.738  1.1085 -2.0434  0.3366
10292SOL     OW31453   3.131   3.449   0.760  0.3726  0.0921 -0.0622
10292SOL    HW131454   3.165   3.486   0.842 -2.3113  0.4113  1.0365
10292SOL    HW231455   3.128   3.355   0.776 -0.1087  0.1500  0.2289
10293SOL     OW31456   0.760   0.747   0.895 -0.6751 -0.0546  0.4886
10293SOL    HW131457   0.789   0.747   0.987  1.8961  0.9458 -0.2197
10293SOL    HW231458   0.767   0.656   0.868 -2.8205 -0.6075  1.6187
10294SOL     OW31459   3.315   2.330   7.830 -0.4626 -0.2902  0.0384
10294SOL    HW131460   3.240   2.271   7.832  0.4685 -1.5049  0.6060
10294SOL    HW231461   3.370   2.301   7.903  0.5118  0.6140 -0.3174
10295SOL     OW31462   1.477   4.851   6.641 -0.4312 -0.0741  0.0351
10295SOL    HW131463   1.519   4.798   6.709 -0.2420  0.5308  0.3992
10295SOL    HW231464   1.392   4.875   6.678 -0.9457 -0.9808 -0.5481
10296SOL     OW31465   9.326   2.369   0.364 -0.2388 -0.2182 -0.0695
10296SOL    HW131466   9.324   2.278   0.395 -1.4396  0.1111  0.8857
10296SOL    HW231467   9.312   2.422   0.442  0.7006  0.8251 -0.5740
10297SOL     OW31468   2.055   3.562   2.985  0.2830  0.0019 -0.4509
10297SOL    HW131469   2.106   3.531   2.910 -0.5415 -0.1005 -0.9783
10297SOL    HW231470   2.047   3.486   3.042  1.1329  0.1471 -0.1243
10298SOL     OW31471   2.087   4.505   3.125 -0.5044  0.0463  0.3585
10298SOL    HW131472   2.160   4.566   3.117  0.4493 -0.6788  2.5775
10298SOL    HW231473   2.112   4.431   3.070 -0.6498  0.7077 -0.6291
10299SOL     OW31474   5.882   8.439   6.019 -0.2185  0.2827 -0.0302
10299SOL    HW131475   5.852   8.420   5.930 -0.3451  1.4398 -0.2485
10299SOL    HW231476   5.958   8.383   6.031  1.3730  1.8985 -1.8267
10300SOL     OW31477   9.569   0.224   9.152 -0.0505 -0.1335  0.7844
10300SOL    HW131478   9.554   0.244   9.060  0.8243 -1.4156  0.3362
10300SOL    HW231479   9.612   0.302   9.187  2.4500 -0.7734 -0.6768
10301SOL     OW31480   8.983   3.075   0.993 -0.7699 -0.1800 -0.2934
10301SOL    HW131481   9.025   3.129   1.060 -1.5000 -0.6576  0.5750
10301SOL    HW231482   9.043   3.003   0.978  0.6432  1.2870 -2.1192
10302SOL     OW31483   0.684   3.193   5.241  0.4391  0.2628 -0.5184
10302SOL    HW131484   0.670   3.220   5.150 -0.9310  1.2408 -0.0637
10302SOL    HW231485   0.723   3.270   5.283 -3.0933  1.6007  0.6915
10303SOL     OW31486   0.418   0.222   7.971  0.6366 -0.0925  0.3875
10303SOL    HW131487   0.479   0.192   7.904  3.4456  0.7953  2.3518
10303SOL    HW231488   0.434   0.316   7.977 -0.7369  0.1123  1.1558
10304SOL     OW31489   6.396   7.708   8.917 -0.2000  0.4222  0.8839
10304SOL    HW131490   6.311   7.722   8.875  0.2033  1.0528  0.2753
10304SOL    HW231491   6.387   7.622   8.958 -0.4939 -0.4069 -0.8025
10305SOL     OW31492   3.114   6.872   0.158  0.0553 -0.0471  0.1129
10305SOL    HW131493   3.160   6.803   0.204 -0.4072 -0.4576 -0.0379
10305SOL    HW231494   3.134   6.857   0.065  0.0142  0.0675  0.0841
10306SOL     OW31495   8.912   6.507   4.594  0.2903  0.4754 -0.4643
10306SOL    HW131496   8.876   6.446   4.658 -1.6085 -0.0853 -1.9899
10306SOL    HW231497   9.004   6.482   4.587 -0.5342 -2.8193 -1.5781
10307SOL     OW31498   0.799   5.687   5.798 -0.6045  0.2607 -0.3716
10307SOL    HW131499   0.888   5.655   5.782 -0.8290 -0.7261  0.2263
10307SOL    HW231500   0.803   5.780   5.777  0.7950  0.4277  0.4557
10308SOL     OW31501   8.761   3.242   6.468 -0.3255  0.3411  0.4711
10308SOL    HW131502   8.818   3.319   6.462 -0.6307  0.6723  1.5698
10308SOL    HW231503   8.820   3.171   6.491 -0.2485  0.5508  0.9405
10309SOL     OW31504   7.764   1.927   1.624  0.1842  0.2927  0.1947
10309SOL    HW131505   7.762   1.982   1.702 -0.0828  1.3280 -0.5164
10309SOL    HW231506   7.712   1.850   1.647  1.5215 -0.2319  1.5950
10310SOL     OW31507   5.168   0.793   2.409  0.4886  0.6359  0.6845
10310SOL    HW131508   5.151   0.887   2.417  0.2660  0.5445  1.3743
10310SOL    HW231509   5.259   0.787   2.382  0.6196  1.0438  1.0290
10311SOL     OW31510   4.231   2.612   2.638 -0.1730  0.2047 -0.1288
10311SOL    HW131511   4.250   2.635   2.547  0.6389  0.0057 -0.0175
10311SOL    HW231512   4.166   2.542   2.632 -0.4092  0.4544 -0.5420
10312SOL     OW31513   3.474   8.932   6.613  0.4192  0.2004 -0.8424
10312SOL    HW131514   3.399   8.882   6.579 -0.0593 -0.1581  0.6702
10312SOL    HW231515   3.536   8.934   6.540 -0.1566 -1.3886 -1.4249
10313SOL     OW31516   8.028   7.892   5.625  0.9862  0.4977  0.6569
10313SOL    HW131517   8.013   7.879   5.719  2.8329  2.0624  1.2143
10313SOL    HW231518   8.044   7.985   5.616 -0.2978  0.5643 -1.4307
10314SOL     OW31519   8.742   3.039   6.157  0.6944  0.1110  0.0189
10314SOL    HW131520   8.691   3.107   6.113  0.6631 -1.4635 -2.5628
10314SOL    HW231521   8.788   2.994   6.087  1.3444 -2.0428  1.7123
10315SOL     OW31522   3.399   9.540   8.334 -0.0198 -0.1185  1.0272
10315SOL    HW131523   3.330   9.594   8.373 -0.7268 -0.7436  0.6684
10315SOL    HW231524   3.430   9.591   8.259  1.6267  1.2766  2.5723
10316SOL     OW31525   4.273   1.753   3.908  0.0453 -0.2011 -0.5105
10316SOL    HW131526   4.346   1.800   3.949  0.1388 -1.0518  0.3399
10316SOL    HW231527   4.249   1.807   3.833 -0.8722  2.0647  1.2788
10317SOL     OW31528   0.439   9.487   9.038 -0.1623  0.2311 -0.3078
10317SOL    HW131529   0.508   9.475   9.104 -0.1847  0.0032 -0.3240
10317SOL    HW231530   0.390   9.563   9.069  0.5532  0.8660 -0.6978
10318SOL     OW31531   7.627   0.030   2.620 -0.3285 -0.9095 -0.1650
10318SOL    HW131532   7.588  -0.056   2.636 -1.4389 -0.0462  2.0842
10318SOL    HW231533   7.598   0.053   2.532 -0.7623 -2.4382 -0.4492
10319SOL     OW31534   5.223   5.346   9.819  0.9152 -0.5893 -0.0610
10319SOL    HW131535   5.232   5.364   9.726 -0.2257 -0.0802 -0.0931
10319SOL    HW231536   5.237   5.252   9.827 -1.8244 -1.1828 -1.2041
10320SOL     OW31537   3.436   3.302   8.245 -0.4581 -0.5239  0.1241
10320SOL    HW131538   3.450   3.242   8.318  0.1411  2.5068  2.7324
10320SOL    HW231539   3.513   3.359   8.245 -1.2622  0.6672 -1.7822
10321SOL     OW31540   2.625   2.655   2.337 -0.2627 -0.0316 -0.3449
10321SOL    HW131541   2.541   2.637   2.294 -1.3778  3.8487 -0.1542
10321SOL    HW231542   2.684   2.586   2.304 -3.1403 -2.1210 -1.5057
10322SOL     OW31543   0.494   2.428   8.310  0.3154 -0.0757  0.0629
10322SOL    HW131544   0.460   2.362   8.250 -1.6336  2.8071 -2.2877
10322SOL    HW231545   0.435   2.424   8.386  0.1941 -0.9756 -0.0671
10323SOL     OW31546   5.984   1.833   9.737 -0.7980 -0.7633  0.5172
10323SOL    HW131547   6.070   1.838   9.696 -0.4284  1.5909  1.4368
10323SOL    HW231548   5.996   1.775   9.812 -0.1426 -0.8682  0.3337
10324SOL     OW31549   8.585   7.975   9.372 -0.2167 -0.3804  0.2440
10324SOL    HW131550   8.628   8.023   9.301 -0.9836  0.7380  0.5181
10324SOL    HW231551   8.583   8.036   9.445 -0.0968 -1.2673  1.0141
10325SOL     OW31552   9.751   0.850   1.932 -0.2550 -0.3807 -0.0957
10325SOL    HW131553   9.707   0.888   1.856 -0.3314 -0.7451 -0.2360
10325SOL    HW231554   9.831   0.903   1.941  0.3400 -1.0533 -1.1437
10326SOL     OW31555   3.136   0.158   0.585  0.3751 -0.1156 -0.0448
10326SOL    HW131556   3.081   0.096   0.537  0.7059 -0.9477  0.6061
10326SOL    HW231557   3.079   0.232   0.605 -0.8666 -1.4161  1.5422
10327SOL     OW31558   0.994   1.792   3.328 -0.1487 -0.0255  0.6378
10327SOL    HW131559   1.071   1.809   3.273  1.0659 -1.7982  1.6734
10327SOL    HW231560   0.993   1.697   3.338 -3.5488 -0.2584 -0.7525
10328SOL     OW31561   7.405   2.477   2.251 -0.4128 -0.2216 -0.2255
10328SOL    HW131562   7.399   2.536   2.176 -0.8468 -0.4579 -0.3786
10328SOL    HW231563   7.499   2.464   2.263 -0.3473 -0.8714 -1.2809
10329SOL     OW31564   3.290   7.521   3.153 -0.2806 -0.1322 -0.4182
10329SOL    HW131565   3.297   7.554   3.063 -0.3640 -1.3735 -0.8900
10329SOL    HW231566   3.274   7.600   3.206  1.7939  0.9087 -1.2096
10330SOL     OW31567   6.164   9.812   1.863 -0.2410  0.4880  0.2911
10330SOL    HW131568   6.090   9.837   1.918 -1.4693 -2.4027  0.1319
10330SOL    HW231569   6.128   9.806   1.775  1.0136  2.2242 -0.3775
10331SOL     OW31570   1.155   5.803   4.427 -0.5489 -0.1195 -0.1156
10331SOL    HW131571   1.163   5.881   4.373 -1.8957  0.4499  0.4710
10331SOL    HW231572   1.164   5.835   4.517 -2.2579 -0.4415  0.1985
10332SOL     OW31573   2.332   0.202   7.655  0.1524  0.4015  0.1985
10332SOL    HW131574   2.425   0.183   7.643  0.1415 -0.1961  0.9698
10332SOL    HW231575   2.316   0.186   7.748 -0.1939  2.8486  0.6343
10333SOL     OW31576   4.598   3.389   4.105  0.2474 -0.0136  0.3917
10333SOL    HW131577   4.596   3.402   4.010  1.9780 -0.7926  0.2148
10333SOL    HW231578   4.652   3.461   4.137 -1.0868  0.7938  0.9327
10334SOL     OW31579   3.252   8.293   8.608  0.4845 -0.2044  0.1421
10334SOL    HW131580   3.254   8.386   8.585  0.3488 -0.2005  0.1422
10334SOL    HW231581   3.335   8.278   8.655  0.0451  0.1608  1.0616
10335SOL     OW31582   1.253   7.247   4.210 -0.1275 -0.0276 -0.6635
10335SOL    HW131583   1.284   7.214   4.125  0.6582 -1.8830  0.2843
10335SOL    HW231584   1.274   7.177   4.271 -0.7487  1.2460  1.0666
10336SOL     OW31585   3.795   7.720   8.113  0.0183  0.1577  0.4833
10336SOL    HW131586   3.867   7.667   8.145  0.8296  0.6767 -0.4513
10336SOL    HW231587   3.816   7.737   8.021 -0.8483  1.0449  0.4333
10337SOL     OW31588   5.052   0.328   2.290 -0.5071  0.5547 -0.2591
10337SOL    HW131589   5.056   0.421   2.311  1.7599  0.2191  1.1445
10337SOL    HW231590   5.014   0.287   2.368  0.1419  0.1442 -0.1514
10338SOL     OW31591   5.986   0.311   0.977 -0.1955 -0.2935  0.5124
10338SOL    HW131592   5.919   0.374   0.950 -0.0064  0.9247  2.7383
10338SOL    HW231593   6.061   0.364   1.001  0.3385 -1.4296  1.4386
10339SOL     OW31594   0.505   7.041   2.305 -0.2175 -0.3396  0.0261
10339SOL    HW131595   0.467   7.027   2.392  1.1974  0.9829  0.9171
10339SOL    HW231596   0.431   7.065   2.250 -1.1797 -1.4704  0.7846
10340SOL     OW31597   4.526   2.741   0.910  0.0257  0.1049 -0.2407
10340SOL    HW131598   4.577   2.806   0.959  1.6837 -0.0160 -1.6858
10340SOL    HW231599   4.436   2.757   0.935  0.5562  1.8639  0.7129
10341SOL     OW31600   4.795   0.322   1.467 -0.3714 -0.3258 -0.4885
10341SOL    HW131601   4.830   0.326   1.378  0.3725 -0.1020 -0.1995
10341SOL    HW231602   4.844   0.251   1.509 -1.9751 -1.6502 -0.7645
10342SOL     OW31603   9.284   3.663   0.986  0.3324  0.2260  0.1242
10342SOL    HW131604   9.193   3.633   0.994  0.5905 -0.2959  1.4557
10342SOL    HW231605   9.279   3.757   1.006  0.1893  0.0101  1.2022
10343SOL     OW31606   5.768   7.503   2.499 -0.1842  0.1282  0.3588
10343SOL    HW131607   5.840   7.441   2.499  1.0936  1.5571  0.8227
10343SOL    HW231608   5.696   7.456   2.541  1.0722 -0.6773  1.6955
10344SOL     OW31609   3.001   4.011   9.263 -0.6518 -0.1875  0.6148
10344SOL    HW131610   3.035   3.981   9.347  0.8695 -0.9628 -0.2341
10344SOL    HW231611   3.047   4.093   9.246 -0.0226 -0.6541 -0.0064
10345SOL     OW31612   4.784   5.984   2.313 -0.5924 -0.2431 -0.1964
10345SOL    HW131613   4.790   5.907   2.368  0.7932 -1.3810 -1.8285
10345SOL    HW231614   4.771   5.950   2.224  0.1984  1.3596 -0.9859
10346SOL     OW31615   3.879   0.261   3.957  0.0996  0.1265 -0.9575
10346SOL    HW131616   3.916   0.347   3.938  2.6355 -0.3613  1.1272
10346SOL    HW231617   3.948   0.199   3.932 -1.0965 -1.2258 -1.0788
10347SOL     OW31618   7.779   3.253   4.291  0.4212  0.5531  0.4402
10347SOL    HW131619   7.700   3.206   4.316  0.7682 -0.1590  0.2201
10347SOL    HW231620   7.749   3.342   4.272 -0.2742  0.3699  0.6543
10348SOL     OW31621   7.956   3.484   3.518  0.1343  0.7449 -0.4256
10348SOL    HW131622   8.034   3.442   3.554 -1.0062 -0.9564  0.1866
10348SOL    HW231623   7.882   3.438   3.560 -1.2240  0.6550 -2.7476
10349SOL     OW31624   5.582   4.270   4.547 -0.1675 -0.1331 -0.2713
10349SOL    HW131625   5.504   4.303   4.504  0.5244 -0.6471 -2.0034
10349SOL    HW231626   5.550   4.216   4.619 -1.3594  1.0222  0.0906
10350SOL     OW31627   4.680   5.452   7.174  0.1712  0.5016  0.2338
10350SOL    HW131628   4.686   5.401   7.256  0.0034 -1.0822 -0.6905
10350SOL    HW231629   4.625   5.399   7.117  1.2973  0.9529 -1.3484
10351SOL     OW31630   5.298   7.089   2.441  0.3652  0.0151 -0.4053
10351SOL    HW131631   5.247   7.066   2.364 -3.5042  0.7201  1.7217
10351SOL    HW231632   5.240   7.144   2.494  2.2012 -1.5391  3.6783
10352SOL     OW31633   7.928   5.049   5.284  0.0006  0.0017 -0.6192
10352SOL    HW131634   7.965   5.131   5.250 -0.2269 -0.1816 -1.3347
10352SOL    HW231635   7.905   5.000   5.206 -1.9691  0.2009 -0.2173
10353SOL     OW31636   8.333   9.661   9.096  0.0814  0.0594 -0.7523
10353SOL    HW131637   8.375   9.743   9.068  1.9207 -0.1692  1.0649
10353SOL    HW231638   8.263   9.690   9.155  0.0728  0.3758 -0.9137
10354SOL     OW31639   7.200   6.187   4.128  0.4830 -0.1846  0.3406
10354SOL    HW131640   7.212   6.228   4.043  1.3664 -1.2728 -0.0809
10354SOL    HW231641   7.246   6.245   4.189  1.2344 -0.2445 -0.1608
10355SOL     OW31642   1.044   2.533   7.744 -0.0424  0.2824 -0.2224
10355SOL    HW131643   1.058   2.439   7.742  0.0928  0.2960 -2.3390
10355SOL    HW231644   0.968   2.548   7.688  0.1673  1.4710 -0.2227
10356SOL     OW31645   0.154   3.048   2.549 -0.5717 -0.2482  0.8108
10356SOL    HW131646   0.102   2.967   2.543 -1.2130  0.0503  2.0147
10356SOL    HW231647   0.092   3.117   2.526  0.0748 -0.1068 -0.5987
10357SOL     OW31648   6.913   5.102   1.702 -0.4484 -0.6257  0.0247
10357SOL    HW131649   6.967   5.120   1.626  3.3274  0.0397  2.5988
10357SOL    HW231650   6.975   5.080   1.772 -3.4884  0.2750  3.3472
10358SOL     OW31651   5.313   7.973   4.228  0.3107  0.6890 -0.1459
10358SOL    HW131652   5.338   7.935   4.312  0.3999  2.1083  0.5059
10358SOL    HW231653   5.227   8.012   4.243  0.6482  1.6051 -0.4821
10359SOL     OW31654   0.694   1.930   4.868  0.4848  0.0354 -0.0004
10359SOL    HW131655   0.719   1.993   4.935  0.6187 -0.6695  0.6353
10359SOL    HW231656   0.617   1.968   4.826 -0.5213 -0.1710  1.5652
10360SOL     OW31657   2.943   9.098   2.574 -0.2855 -0.7863  0.3636
10360SOL    HW131658   3.031   9.091   2.538  0.1559 -3.1052  1.6723
10360SOL    HW231659   2.896   9.023   2.538 -0.7548 -1.3670  2.0622
10361SOL     OW31660   2.433   1.176   7.281  0.4726 -0.4200 -0.2929
10361SOL    HW131661   2.416   1.240   7.350 -0.3720  1.2144 -1.9198
10361SOL    HW231662   2.517   1.136   7.305  1.5038  1.9481  0.3608
10362SOL     OW31663   8.647   6.542   0.361 -0.0796  0.3179  0.0410
10362SOL    HW131664   8.666   6.524   0.269  0.0881 -0.2364  0.1776
10362SOL    HW231665   8.672   6.633   0.374 -1.3589  0.8029 -0.7820
10363SOL     OW31666   8.451   6.253   3.099  0.3763  0.4215  0.1863
10363SOL    HW131667   8.545   6.246   3.080 -0.0695  0.1756 -2.2900
10363SOL    HW231668   8.416   6.167   3.076 -1.0336  1.7521 -3.3741
10364SOL     OW31669   3.973   5.808   4.766  0.1177  0.3341 -0.2488
10364SOL    HW131670   4.065   5.796   4.743  0.7248 -1.8839  2.6869
10364SOL    HW231671   3.926   5.748   4.708  0.7833 -0.1949 -0.2553
10365SOL     OW31672   0.980   2.826   5.922 -0.9589  0.5487  0.2274
10365SOL    HW131673   0.951   2.743   5.961 -0.3737  0.3139  0.1835
10365SOL    HW231674   0.947   2.893   5.981  0.0782  0.1898  1.2664
10366SOL     OW31675   9.549   6.609   7.378 -0.4410 -0.1119 -0.1298
10366SOL    HW131676   9.621   6.647   7.328 -2.0980  2.2854 -0.8554
10366SOL    HW231677   9.578   6.614   7.469  0.8007 -0.3655 -0.4869
10367SOL     OW31678   6.045   5.946   1.135 -0.2899  0.1321  0.2306
10367SOL    HW131679   6.138   5.928   1.147 -0.3690  0.6084  1.8559
10367SOL    HW231680   6.023   5.905   1.051  1.0830 -1.1186  0.4351
10368SOL     OW31681   6.835   6.135   6.393 -0.4342 -0.0097 -0.0615
10368SOL    HW131682   6.797   6.203   6.337 -0.6390  0.1006  0.2090
10368SOL    HW231683   6.823   6.168   6.482  0.0855 -0.0820  0.0397
10369SOL     OW31684   2.131   4.986   6.347 -0.0485 -0.6273 -0.1694
10369SOL    HW131685   2.122   4.958   6.438  0.0081  1.9494  0.6992
10369SOL    HW231686   2.046   5.025   6.325  0.7057  1.0212 -0.3319
10370SOL     OW31687   2.399   8.419   4.607 -0.3193 -0.6057  0.0547
10370SOL    HW131688   2.371   8.345   4.660 -1.7555  0.2013  0.4668
10370SOL    HW231689   2.330   8.429   4.541  0.4916 -0.4111 -0.7906
10371SOL     OW31690   0.449   8.456   0.175  0.0547  0.6300 -0.2015
10371SOL    HW131691   0.426   8.461   0.082  3.9475 -0.1458 -1.3548
10371SOL    HW231692   0.417   8.370   0.203  2.1127 -0.8043 -1.9591
10372SOL     OW31693   2.317   5.179   1.260  0.0701 -0.4338 -0.7481
10372SOL    HW131694   2.336   5.097   1.215  2.0397 -0.6287  0.2880
10372SOL    HW231695   2.284   5.237   1.192  0.4654 -1.5000 -1.8937
10373SOL     OW31696   8.553   3.779   5.890  0.2492 -0.7037  0.5926
10373SOL    HW131697   8.592   3.704   5.934  0.5942 -0.4972  0.6389
10373SOL    HW231698   8.615   3.802   5.821 -0.0156 -0.6707  0.3603
10374SOL     OW31699   9.933   2.731   7.590 -0.4636  0.1693 -0.1264
10374SOL    HW131700   9.957   2.739   7.683  1.1906 -0.0608 -0.5076
10374SOL    HW231701   9.908   2.820   7.564  1.7172  0.8311 -0.1251
10375SOL     OW31702   9.620   2.842   6.584  0.0138 -0.1891 -0.4125
10375SOL    HW131703   9.598   2.905   6.516  0.2715  1.0143  0.5856
10375SOL    HW231704   9.713   2.823   6.571 -0.2506 -1.0216 -1.2139
10376SOL     OW31705   4.437   0.441   8.174  0.3574 -0.1712  0.2219
10376SOL    HW131706   4.377   0.408   8.240  0.5979 -1.0073  0.0303
10376SOL    HW231707   4.389   0.434   8.092 -0.0626  1.1707  0.3299
10377SOL     OW31708   2.753   9.269   7.893 -1.0294  0.0903  0.4734
10377SOL    HW131709   2.742   9.231   7.980 -0.5674 -0.2044  0.4062
10377SOL    HW231710   2.831   9.226   7.858 -0.3279  1.3015  0.4998
10378SOL     OW31711   6.214   6.523   3.004 -0.5057 -0.9830  0.0701
10378SOL    HW131712   6.190   6.542   3.094 -0.4775  0.4852 -0.2070
10378SOL    HW231713   6.310   6.512   3.007 -0.0445  2.1710 -0.2152
10379SOL     OW31714   7.693   7.974   9.291 -0.0010  0.0589  0.2460
10379SOL    HW131715   7.629   7.911   9.259  0.9704 -1.0399  0.4024
10379SOL    HW231716   7.653   8.014   9.368 -0.0920 -1.3652  0.9607
10380SOL     OW31717   0.011   7.648   1.258  0.0321 -0.0386 -0.0723
10380SOL    HW131718   0.065   7.570   1.249  0.6919  0.5181 -1.1033
10380SOL    HW231719   0.034   7.682   1.345  1.0968 -0.0073 -0.3502
10381SOL     OW31720   2.978   4.436   5.822 -0.1660 -0.1618  0.3490
10381SOL    HW131721   3.071   4.419   5.806  0.1879  1.8268 -0.0252
10381SOL    HW231722   2.955   4.378   5.894  1.4647 -0.4559  0.6733
10382SOL     OW31723   6.089   9.256   2.069  0.8352  0.3050  0.6271
10382SOL    HW131724   6.110   9.348   2.056  0.6128  0.1757 -0.7526
10382SOL    HW231725   6.001   9.257   2.107  0.5531  0.6517 -0.0179
10383SOL     OW31726   9.721   3.583   2.744 -0.9568  0.2230  0.5974
10383SOL    HW131727   9.712   3.493   2.712  0.8971  0.8056 -1.8101
10383SOL    HW231728   9.809   3.609   2.719 -1.6631  2.9470  0.6315
10384SOL     OW31729   4.722   9.980   9.824  0.3137 -0.6068 -0.1072
10384SOL    HW131730   4.736   9.890   9.853  2.2018  0.1313  1.4462
10384SOL    HW231731   4.792   9.997   9.761 -0.7582 -0.5627 -1.3385
10385SOL     OW31732   6.524   8.290   7.329 -0.1984 -0.2724 -0.4121
10385SOL    HW131733   6.618   8.279   7.341  0.0377  1.8254  0.2245
10385SOL    HW231734   6.488   8.282   7.418 -0.6238 -0.9957 -0.6427
10386SOL     OW31735   2.449   5.978   4.140 -0.1429 -0.1066  0.4007
10386SOL    HW131736   2.363   5.937   4.147  0.2752 -1.3383 -1.2806
10386SOL    HW231737   2.489   5.939   4.062  1.8032  0.6985  0.9314
10387SOL     OW31738   9.335   3.621   5.214 -0.0963 -0.0961  0.9722
10387SOL    HW131739   9.311   3.652   5.301  1.5004 -1.8414  2.1230
10387SOL    HW231740   9.399   3.685   5.183 -1.7553  1.3370  0.4065
10388SOL     OW31741   8.819   3.310   8.935 -0.0335 -0.1744 -0.2855
10388SOL    HW131742   8.898   3.359   8.957 -0.3173  0.3534 -0.4332
10388SOL    HW231743   8.773   3.298   9.018  0.5531 -1.1307 -0.0730
10389SOL     OW31744   4.845   7.006   5.867 -0.8463 -0.4382  0.7049
10389SOL    HW131745   4.798   6.941   5.815  1.7577 -0.8761 -1.3419
10389SOL    HW231746   4.936   6.999   5.838 -0.0174  2.4834  2.1482
10390SOL     OW31747   9.351   2.475   4.680  0.1589 -0.4764 -0.4906
10390SOL    HW131748   9.414   2.408   4.706  0.3087 -0.4501 -0.7725
10390SOL    HW231749   9.279   2.426   4.640  0.4103 -0.4559 -0.9824
10391SOL     OW31750   9.155   7.574   3.050 -0.1741 -0.1127  0.4771
10391SOL    HW131751   9.145   7.485   3.084 -2.7924 -0.7482 -1.6234
10391SOL    HW231752   9.226   7.567   2.985 -1.5776 -1.2165 -1.0382
10392SOL     OW31753   1.785   7.291   9.307 -0.2334  0.3956 -0.1631
10392SOL    HW131754   1.859   7.238   9.277 -0.7913  0.2446 -1.3167
10392SOL    HW231755   1.825   7.361   9.358  0.4410 -2.0846  3.0728
10393SOL     OW31756   6.436   6.584   2.178 -0.4947  0.1153  0.0005
10393SOL    HW131757   6.443   6.660   2.236 -0.6316  0.2032 -0.0976
10393SOL    HW231758   6.344   6.583   2.150 -0.3504  0.2857 -0.4959
10394SOL     OW31759   5.797   2.559   3.278  0.6472 -0.3352 -0.1157
10394SOL    HW131760   5.799   2.596   3.366 -0.7028  1.3299 -0.7248
10394SOL    HW231761   5.732   2.489   3.283 -0.2525  0.4811 -0.0025
10395SOL     OW31762   1.499   3.701   1.880 -0.2728 -0.1785  0.1476
10395SOL    HW131763   1.531   3.781   1.839 -0.1188 -0.9814 -1.3887
10395SOL    HW231764   1.404   3.715   1.887 -0.1402  0.4822  0.7210
10396SOL     OW31765   9.545   4.384   2.597 -0.3480 -0.5299  0.2821
10396SOL    HW131766   9.453   4.376   2.624 -1.1768  0.5488 -2.0146
10396SOL    HW231767   9.557   4.315   2.532  1.2656 -2.3126  2.3371
10397SOL     OW31768   8.593   2.554   7.141  0.0648 -0.3844  0.4207
10397SOL    HW131769   8.523   2.493   7.162 -0.4275  0.3603  1.0109
10397SOL    HW231770   8.576   2.630   7.197 -0.2201  0.9366 -1.3667
10398SOL     OW31771   3.054   7.185   2.924 -0.6230 -0.3138  0.4176
10398SOL    HW131772   3.131   7.135   2.948  0.1916 -0.9791 -3.0406
10398SOL    HW231773   3.015   7.137   2.851 -2.5015  1.6369  0.0097
10399SOL     OW31774   9.446   6.209   8.245 -0.1101  0.2119  0.3345
10399SOL    HW131775   9.359   6.171   8.256 -0.2807  0.3572 -0.4647
10399SOL    HW231776   9.433   6.287   8.192  0.2835  1.2624  1.7281
10400SOL     OW31777   2.665   2.998   9.819  0.5487  0.0324  0.3936
10400SOL    HW131778   2.709   2.986   9.903  0.2873  2.8351  1.0171
10400SOL    HW231779   2.736   3.018   9.758  0.5111  0.7299  0.5684
10401SOL     OW31780   5.403   1.083   0.039  0.0554  1.0225  0.4005
10401SOL    HW131781   5.418   0.991   0.059 -1.8839  0.2710 -1.3521
10401SOL    HW231782   5.478   1.108  -0.016 -0.8966 -0.3970 -1.6263
10402SOL     OW31783   8.466   9.859   2.210 -0.1060 -0.1442  0.1416
10402SOL    HW131784   8.370   9.859   2.213 -0.1472  1.0716 -0.5253
10402SOL    HW231785   8.487   9.900   2.126  1.0167 -2.8229 -1.0103
10403SOL     OW31786   0.313   3.309   1.073 -0.3187  0.2076  0.2360
10403SOL    HW131787   0.331   3.217   1.053 -1.9771  0.2748 -1.7988
10403SOL    HW231788   0.360   3.358   1.005 -1.4498  0.7212 -0.2038
10404SOL     OW31789   7.050   0.614   0.886 -0.0777 -0.2205  0.3879
10404SOL    HW131790   7.107   0.686   0.914 -0.0250 -0.5336  1.1399
10404SOL    HW231791   7.033   0.630   0.794  2.6247 -1.0129 -0.3308
10405SOL     OW31792   2.824   8.634   0.271 -0.7807 -0.4766  0.1678
10405SOL    HW131793   2.731   8.630   0.248 -0.6030 -0.8416 -0.5178
10405SOL    HW231794   2.848   8.544   0.292 -0.9139 -0.1697  1.7432
10406SOL     OW31795   7.886   3.887   6.687  0.1025  0.0722  0.1454
10406SOL    HW131796   7.952   3.842   6.635  0.4628  0.3935  0.3209
10406SOL    HW231797   7.814   3.901   6.627  0.0762 -0.5353  0.0290
10407SOL     OW31798   7.723   7.915   9.865  0.1168 -0.2982  0.0962
10407SOL    HW131799   7.648   7.873   9.908  0.3070 -1.3935 -0.5996
10407SOL    HW231800   7.689   7.999   9.835 -1.2667 -1.3175 -1.3863
10408SOL     OW31801   9.052   3.858   6.959 -0.2701 -0.1604 -0.5117
10408SOL    HW131802   9.121   3.808   6.915  0.1327 -0.3704  0.3238
10408SOL    HW231803   9.092   3.943   6.979 -0.4650 -0.0458 -0.6040
10409SOL     OW31804   3.792   4.502   5.253 -0.2653  0.5271 -0.2693
10409SOL    HW131805   3.871   4.464   5.292 -0.5673 -1.1066 -1.1884
10409SOL    HW231806   3.727   4.499   5.323 -0.3264 -0.8397 -0.3628
10410SOL     OW31807   9.239   3.430   1.316 -0.0091  0.0393  0.0131
10410SOL    HW131808   9.229   3.442   1.410  0.0996 -1.1863  0.2075
10410SOL    HW231809   9.330   3.401   1.305 -1.0272 -3.7457  0.0506
10411SOL     OW31810   7.472   7.677   6.654  0.0660  0.5483 -0.1072
10411SOL    HW131811   7.410   7.743   6.687 -0.9944 -0.6527  0.4008
10411SOL    HW231812   7.540   7.671   6.721 -0.9336 -0.3277  0.8689
10412SOL     OW31813   2.190   8.846   8.343  0.3657  0.4434 -0.3002
10412SOL    HW131814   2.230   8.890   8.418  0.1286  1.0206 -0.5053
10412SOL    HW231815   2.159   8.762   8.377  1.4080  0.1505 -0.0497
10413SOL     OW31816   7.900   9.727   2.144 -0.6473  0.4381  0.3903
10413SOL    HW131817   7.832   9.732   2.211 -1.1568  0.4442 -0.1193
10413SOL    HW231818   7.860   9.765   2.066 -0.2340 -0.0340 -0.0629
10414SOL     OW31819   4.848   2.627   3.052 -0.3060  0.0572 -0.0026
10414SOL    HW131820   4.789   2.596   3.121  2.1063  0.3503  2.3529
10414SOL    HW231821   4.898   2.549   3.027  1.3101  0.6374  1.2638
10415SOL     OW31822   6.585   2.100   4.921 -0.2515 -0.0506  0.3336
10415SOL    HW131823   6.667   2.074   4.880 -0.7057 -0.7398 -0.1658
10415SOL    HW231824   6.532   2.135   4.849 -0.0936  1.1862  0.7925
10416SOL     OW31825   9.111   5.455   5.257  0.4302  0.6992 -0.1778
10416SOL    HW131826   9.186   5.514   5.256  0.3437  0.9545  2.3471
10416SOL    HW231827   9.111   5.417   5.345 -2.1271  0.3352 -0.2608
10417SOL     OW31828   5.987   8.832   2.439 -0.1581 -0.7763  0.1551
10417SOL    HW131829   6.000   8.921   2.473  1.2684 -1.6057  1.9151
10417SOL    HW231830   6.064   8.816   2.385 -0.5890 -0.8366 -0.4490
10418SOL     OW31831   6.522   8.000   4.180  0.1927 -0.7041  0.3646
10418SOL    HW131832   6.470   7.957   4.247 -0.0098 -1.7439 -0.4449
10418SOL    HW231833   6.458   8.044   4.124  0.4157  1.0614  1.4234
10419SOL     OW31834   0.468   1.064   5.583  0.1034  0.5774  0.2727
10419SOL    HW131835   0.514   1.010   5.647  2.2222  1.3534 -0.5294
10419SOL    HW231836   0.449   1.145   5.630 -2.0358 -0.3250  1.1115
10420SOL     OW31837   4.336   0.326   6.171 -0.1768 -0.1830  0.0795
10420SOL    HW131838   4.378   0.366   6.095 -1.3874  2.4469  0.7044
10420SOL    HW231839   4.398   0.339   6.242 -0.4902  0.4080  0.2443
10421SOL     OW31840   3.058   3.934   3.177 -0.5291 -0.2063  0.2039
10421SOL    HW131841   3.058   3.840   3.193 -3.5080 -0.5384 -1.0313
10421SOL    HW231842   3.085   3.943   3.086 -1.9583 -0.0883 -0.2387
10422SOL     OW31843   6.969   0.067   6.574 -0.3540 -0.7904 -0.8128
10422SOL    HW131844   6.873   0.066   6.565 -0.5314  0.8079  0.4598
10422SOL    HW231845   6.993   0.158   6.559  0.9564 -1.1277 -0.8421
10423SOL     OW31846   2.576   4.147   0.113  0.7089 -0.3595  0.1249
10423SOL    HW131847   2.484   4.120   0.109  0.4270  0.6671 -0.7007
10423SOL    HW231848   2.612   4.098   0.187  0.0532 -2.4042 -0.8151
10424SOL     OW31849   8.089   1.929   9.842  0.7534 -0.0828  0.7856
10424SOL    HW131850   8.145   1.908   9.917  2.9091 -0.3482 -0.7997
10424SOL    HW231851   8.006   1.957   9.881  1.9903  0.4039  3.2644
10425SOL     OW31852   0.058   7.991   3.726 -0.2599  0.2111 -0.1884
10425SOL    HW131853   0.084   7.909   3.767 -0.2186 -0.0095 -0.6515
10425SOL    HW231854   0.079   8.058   3.791 -0.4937 -0.1593  0.2797
10426SOL     OW31855   4.521   9.895   1.087 -0.4593  0.1350  0.6179
10426SOL    HW131856   4.504   9.891   1.181 -1.1509 -1.1530  0.4666
10426SOL    HW231857   4.443   9.857   1.047  0.9665 -2.0336 -0.3165
10427SOL     OW31858   4.404   1.646   5.646 -0.7241  0.0076 -0.2862
10427SOL    HW131859   4.484   1.658   5.697 -1.7473  1.3866  1.0942
10427SOL    HW231860   4.404   1.718   5.583 -1.4056  0.7073  0.4881
10428SOL     OW31861   8.447   4.931   9.688 -0.2242  0.2385  0.4474
10428SOL    HW131862   8.438   4.894   9.600  0.8228  0.6962  0.1298
10428SOL    HW231863   8.538   4.960   9.692 -0.2455  0.1571  1.7172
10429SOL     OW31864   0.547   3.181   8.239  0.3992 -0.2525  0.1861
10429SOL    HW131865   0.573   3.263   8.280 -1.0884  0.7180 -0.7113
10429SOL    HW231866   0.580   3.187   8.149  0.7102 -0.8579  0.2575
10430SOL     OW31867   6.627   9.776   3.769  0.0621 -0.4859 -0.1351
10430SOL    HW131868   6.664   9.728   3.843  0.1769 -0.2994 -0.0728
10430SOL    HW231869   6.615   9.866   3.801  0.5811 -0.2832 -0.5021
10431SOL     OW31870   9.204   9.580   3.466  0.6717 -0.0484 -0.1306
10431SOL    HW131871   9.182   9.568   3.559  0.3279  1.1722 -0.0294
10431SOL    HW231872   9.154   9.658   3.440  1.7478  0.3753 -0.9997
10432SOL     OW31873   0.631   0.231   7.064  0.0159  0.4381 -0.4923
10432SOL    HW131874   0.602   0.167   7.129  1.5595  0.0862 -0.1010
10432SOL    HW231875   0.573   0.218   6.990  1.6540 -3.1293 -1.3689
10433SOL     OW31876   5.049   3.315   0.598 -0.0869 -0.4430 -0.0289
10433SOL    HW131877   5.135   3.355   0.583 -0.9671  2.5598  1.9493
10433SOL    HW231878   5.064   3.248   0.664  1.1304 -2.1022 -1.8929
10434SOL     OW31879   4.010   9.691   9.659 -0.2540  0.1213  0.4950
10434SOL    HW131880   4.084   9.662   9.713  0.2248  2.0369  0.9545
10434SOL    HW231881   3.957   9.744   9.717 -2.7149 -2.1183  0.4913
10435SOL     OW31882   9.707   4.172   3.910  0.0225 -0.2378 -0.3121
10435SOL    HW131883   9.652   4.242   3.946  0.3999 -0.0370 -0.1220
10435SOL    HW231884   9.672   4.092   3.948  1.1527  0.0659  1.4527
10436SOL     OW31885   7.284   4.510   1.556 -0.2927 -0.4581  0.2708
10436SOL    HW131886   7.267   4.449   1.484 -1.7367  0.0440  0.1474
10436SOL    HW231887   7.363   4.557   1.530 -1.3500  0.4233 -1.5153
10437SOL     OW31888   1.688   2.224   2.048 -0.1506  0.1852 -0.5765
10437SOL    HW131889   1.627   2.206   2.119 -0.0732  2.2394  0.0678
10437SOL    HW231890   1.711   2.137   2.014  1.6087 -1.1505  3.3618
10438SOL     OW31891   6.501   3.932   9.448 -0.2846  1.1522 -0.4865
10438SOL    HW131892   6.553   3.990   9.504 -0.5344  1.7372 -0.8499
10438SOL    HW231893   6.535   3.949   9.360  0.1561  0.1889 -0.5165
10439SOL     OW31894   5.949   7.952   6.000  0.4767  0.0985  0.1023
10439SOL    HW131895   5.873   7.911   6.040  0.8725 -0.0771  0.6919
10439SOL    HW231896   6.000   7.880   5.963  0.6510  0.1524  0.2314
10440SOL     OW31897   3.955   0.485   5.741 -0.2074  0.3928  0.2897
10440SOL    HW131898   3.990   0.406   5.700 -0.0290  0.9449 -0.6665
10440SOL    HW231899   3.878   0.456   5.789  0.2826 -0.4754  0.5655
10441SOL     OW31900   5.200   0.067   5.468  0.1160  0.0166  1.2476
10441SOL    HW131901   5.193   0.147   5.520 -0.2947 -0.0407  1.2827
10441SOL    HW231902   5.115   0.058   5.425  0.6611  0.4207  0.0318
10442SOL     OW31903   3.193   2.637   8.520  0.5609  0.3782 -0.1156
10442SOL    HW131904   3.214   2.630   8.427 -0.5757  0.2430 -0.3784
10442SOL    HW231905   3.123   2.702   8.524 -1.5988 -1.8270  0.2600
10443SOL     OW31906   5.039   1.092   9.432  0.6832  0.0518 -0.4448
10443SOL    HW131907   5.008   1.182   9.423 -0.6141 -0.0598  2.0540
10443SOL    HW231908   5.094   1.093   9.510 -0.5882 -1.5606  0.5375
10444SOL     OW31909   4.236   8.783   3.029 -0.5169  0.0852  0.3187
10444SOL    HW131910   4.256   8.872   3.058 -1.4266  0.1489  0.7755
10444SOL    HW231911   4.150   8.790   2.986 -0.3745 -0.4868 -0.0740
10445SOL     OW31912   2.382   1.916   3.901  0.2215 -0.1459  0.6063
10445SOL    HW131913   2.343   1.852   3.961  0.3868 -0.7245  0.1079
10445SOL    HW231914   2.476   1.906   3.913  0.2703 -0.6096 -0.0868
10446SOL     OW31915   6.564   5.142   1.521 -0.4501  0.4310  0.1232
10446SOL    HW131916   6.509   5.118   1.595  0.4262 -0.5496  0.4812
10446SOL    HW231917   6.502   5.165   1.451 -1.3302 -1.2132  0.3250
10447SOL     OW31918   0.326   0.290   0.817 -0.1786 -0.4630  0.4094
10447SOL    HW131919   0.392   0.220   0.815  0.5057  0.1827 -1.2022
10447SOL    HW231920   0.258   0.260   0.758  1.2518  1.2059 -2.2938
10448SOL     OW31921   3.859   3.725   3.723  0.6106 -0.0152 -0.0328
10448SOL    HW131922   3.952   3.701   3.730  0.5556 -0.2433 -0.0825
10448SOL    HW231923   3.856   3.785   3.648  0.9061  0.9597  0.7133
10449SOL     OW31924   0.125   6.371   6.337  0.1105 -0.0241  0.0492
10449SOL    HW131925   0.037   6.363   6.299  0.2532  0.2820 -0.3626
10449SOL    HW231926   0.126   6.459   6.375  0.4593  0.2282 -0.5382
10450SOL     OW31927   2.545   7.179   2.359 -0.1249 -0.5211  0.0980
10450SOL    HW131928   2.571   7.224   2.278  1.7371  0.9726  1.4338
10450SOL    HW231929   2.551   7.086   2.337  1.5375 -0.1645 -1.1903
10451SOL     OW31930   4.944   8.252   2.233 -0.0064  0.3684 -0.1072
10451SOL    HW131931   4.939   8.305   2.153  1.4195  1.3950  0.4230
10451SOL    HW231932   4.911   8.309   2.302  2.2874  0.9805  0.6055
10452SOL     OW31933   1.509   6.585   1.768 -0.4837 -0.1139 -0.1029
10452SOL    HW131934   1.491   6.679   1.778  1.3225  0.4966 -1.8651
10452SOL    HW231935   1.442   6.554   1.707 -2.9317 -0.7425  2.6796
10453SOL     OW31936   7.759   2.287   6.818 -0.4796  0.0872  0.1327
10453SOL    HW131937   7.754   2.192   6.828 -0.9250  0.0408 -0.5013
10453SOL    HW231938   7.710   2.321   6.894 -0.8060 -0.2027  0.0566
10454SOL     OW31939   0.492   6.103   5.906 -0.4975  0.0355 -0.1184
10454SOL    HW131940   0.425   6.162   5.871  0.3507  1.2726  0.2662
10454SOL    HW231941   0.524   6.147   5.985 -1.9231 -2.3844  1.9761
10455SOL     OW31942   9.272   4.940   8.324  0.0960  0.7793 -0.1481
10455SOL    HW131943   9.286   4.973   8.236 -0.8240  1.7747  0.0595
10455SOL    HW231944   9.330   4.992   8.379  0.1833  0.6157 -0.0848
10456SOL     OW31945  -0.029   1.064   1.916 -0.1057 -0.2492  0.1569
10456SOL    HW131946   0.036   1.092   1.981 -0.3892  0.1237  0.2826
10456SOL    HW231947   0.018   1.066   1.833 -0.8664  3.5053 -0.3209
10457SOL     OW31948   7.645   4.894   4.710  0.2423  0.6098  0.1395
10457SOL    HW131949   7.610   4.882   4.621 -1.4323  1.5992  0.6195
10457SOL    HW231950   7.739   4.875   4.701  0.1896  1.0326 -1.9178
10458SOL     OW31951   3.529   0.659   2.426 -0.1640  0.7567 -0.3400
10458SOL    HW131952   3.440   0.695   2.425 -0.2739  0.5201  0.1993
10458SOL    HW231953   3.533   0.610   2.509  0.4294  0.6683 -0.4219
10459SOL     OW31954   1.640   3.629   5.238  0.0838 -0.3756  0.1647
10459SOL    HW131955   1.660   3.537   5.254  0.0362 -0.7528 -1.7912
10459SOL    HW231956   1.656   3.671   5.323 -1.3138 -2.3866  1.5514
10460SOL     OW31957   4.526   9.628   3.545 -0.2630  0.3339  0.0077
10460SOL    HW131958   4.470   9.673   3.609 -2.1552 -0.7084 -0.8559
10460SOL    HW231959   4.540   9.541   3.583 -1.1244 -0.1781 -0.8244
10461SOL     OW31960   6.347   8.806   9.920  0.7509 -0.4717 -0.5610
10461SOL    HW131961   6.351   8.902   9.921 -0.2202 -0.4234 -0.4297
10461SOL    HW231962   6.438   8.778   9.927  1.0033  0.4375 -0.0692
10462SOL     OW31963   5.119   4.784   5.079 -0.8347  0.5827 -0.2120
10462SOL    HW131964   5.197   4.812   5.127 -0.7767  1.3892 -0.7598
10462SOL    HW231965   5.046   4.828   5.122 -0.9014  0.4310 -0.1705
10463SOL     OW31966   5.821   9.226   9.897  0.1286 -0.7328 -0.1057
10463SOL    HW131967   5.798   9.231   9.804 -1.2935  1.1274  0.2828
10463SOL    HW231968   5.915   9.243   9.900  0.1790 -0.7756 -1.2035
10464SOL     OW31969   3.915   5.504   2.528  0.5957  0.1485  0.2540
10464SOL    HW131970   3.835   5.553   2.506 -0.7746 -1.3567  1.6430
10464SOL    HW231971   3.898   5.467   2.614  2.7683 -0.3677  0.5241
10465SOL     OW31972   9.437   4.457   6.675  0.3460 -0.6859 -0.1917
10465SOL    HW131973   9.525   4.441   6.642  1.1534  2.2890  0.2178
10465SOL    HW231974   9.450   4.517   6.749 -2.0085 -0.1748 -0.1166
10466SOL     OW31975   6.645   5.294   1.769  0.5248 -0.4030  0.1165
10466SOL    HW131976   6.717   5.302   1.831  1.2774 -0.4935 -0.7329
10466SOL    HW231977   6.672   5.225   1.709 -1.0403 -1.6878  0.7940
10467SOL     OW31978   8.411   6.929   2.544 -0.3030 -0.3247  0.4607
10467SOL    HW131979   8.458   6.878   2.477  0.3266  0.1534  0.5313
10467SOL    HW231980   8.360   6.864   2.592  0.4734 -0.8947  0.5331
10468SOL     OW31981   4.978   0.482   4.497 -0.2187 -0.4275 -0.3682
10468SOL    HW131982   4.910   0.549   4.502  2.2660  2.1733  1.8422
10468SOL    HW231983   4.979   0.457   4.404 -1.0831  2.9099 -1.4439
10469SOL     OW31984   4.714   5.827   1.223 -0.6480  0.3754 -0.4342
10469SOL    HW131985   4.708   5.821   1.128  0.6521 -1.5180 -0.4466
10469SOL    HW231986   4.790   5.883   1.240  0.6693 -1.2672 -0.5979
10470SOL     OW31987   1.644   1.516   1.057  0.2234  0.1234 -0.3004
10470SOL    HW131988   1.591   1.437   1.068  0.2011  0.1259 -0.3898
10470SOL    HW231989   1.581   1.588   1.063 -0.2093  0.0752 -2.7954
10471SOL     OW31990   4.586   0.521   8.502 -0.4912 -0.5172 -0.0015
10471SOL    HW131991   4.600   0.518   8.597  0.0699 -0.0560 -0.0574
10471SOL    HW231992   4.562   0.432   8.478 -0.7816 -0.6044  0.5979
10472SOL     OW31993   6.999   7.355   0.281  0.6452  0.2151 -0.1433
10472SOL    HW131994   7.082   7.329   0.243  1.1337  2.1238 -0.4951
10472SOL    HW231995   6.981   7.441   0.243 -0.9048  0.3554  0.8171
10473SOL     OW31996   7.720   4.234   0.784  0.0217  0.9165  0.3729
10473SOL    HW131997   7.785   4.165   0.771  0.5341  0.9844  2.3915
10473SOL    HW231998   7.678   4.242   0.698  1.5372 -0.2607 -0.5461
10474SOL     OW31999   4.810   8.270   0.101 -0.2037 -0.5652 -0.1411
10474SOL    HW132000   4.722   8.244   0.071 -0.3820 -0.6938  0.4723
10474SOL    HW232001   4.837   8.197   0.157  0.0124 -0.2065  0.2167
10475SOL     OW32002   3.036   5.374   8.964  0.5271  0.1369  0.6102
10475SOL    HW132003   3.065   5.335   9.046  1.4094 -0.3439  0.0920
10475SOL    HW232004   3.107   5.435   8.941 -0.0268  0.7634  0.5361
10476SOL     OW32005   4.932   2.855   9.649  0.1287  0.1718 -0.4658
10476SOL    HW132006   5.016   2.825   9.685 -0.7817 -1.1135  0.7012
10476SOL    HW232007   4.872   2.855   9.724 -1.6262 -1.7417 -1.7468
10477SOL     OW32008   2.374   7.749   6.572  0.0324  0.0848 -0.5985
10477SOL    HW132009   2.368   7.815   6.640  1.8744  0.0604 -0.3685
10477SOL    HW232010   2.456   7.768   6.526  0.4251 -1.7766 -0.7728
10478SOL     OW32011   4.889   7.593   2.693 -0.4087 -0.0494  0.1126
10478SOL    HW132012   4.855   7.571   2.780  1.7933  1.4195  1.4693
10478SOL    HW232013   4.896   7.509   2.648  1.3337 -1.3755  2.5784
10479SOL     OW32014   0.189   7.892   0.738 -0.0029 -0.3825 -0.1633
10479SOL    HW132015   0.170   7.800   0.720  2.2594 -0.6730 -1.5388
10479SOL    HW232016   0.120   7.920   0.798 -1.8238 -2.4470 -1.1527
10480SOL     OW32017   6.330   2.471   5.167  0.4104  0.1000  0.1415
10480SOL    HW132018   6.348   2.440   5.256  1.5096 -1.4154 -0.5515
10480SOL    HW232019   6.384   2.549   5.157  1.6907 -0.7484  0.2317
10481SOL     OW32020   5.447   6.955   9.733 -0.0301  0.1924 -0.0775
10481SOL    HW132021   5.475   6.868   9.705  1.9127  0.8387 -0.3017
10481SOL    HW232022   5.360   6.966   9.694 -0.6755 -1.9232  0.6099
10482SOL     OW32023   8.678   3.119   0.722 -0.1579  0.0687 -0.2422
10482SOL    HW132024   8.599   3.087   0.677  0.1766 -2.0101  0.5262
10482SOL    HW232025   8.750   3.072   0.680  0.4403  0.2644  0.5446
10483SOL     OW32026   1.481   6.120   8.060 -0.0002 -0.5667 -0.0349
10483SOL    HW132027   1.535   6.057   8.107  1.0167 -0.8823 -1.5375
10483SOL    HW232028   1.502   6.105   7.968 -1.8981  0.0230 -0.6133
10484SOL     OW32029   0.076   6.319   7.392 -0.1275 -0.2321  0.1990
10484SOL    HW132030   0.011   6.387   7.374  1.0471  0.5176 -1.3833
10484SOL    HW232031   0.141   6.362   7.447  0.5148 -0.1213 -0.6367
10485SOL     OW32032   8.129   8.672   6.796 -0.0247  0.8573 -0.0158
10485SOL    HW132033   8.186   8.621   6.738 -0.3472 -2.0258  1.9996
10485SOL    HW232034   8.049   8.687   6.744  0.3170 -0.1892 -0.8761
10486SOL     OW32035   6.425   1.266   4.896  0.2182  0.1203  0.3561
10486SOL    HW132036   6.412   1.208   4.821  0.9192 -0.8052  0.9254
10486SOL    HW232037   6.466   1.344   4.860  1.0029 -0.5158 -0.1652
10487SOL     OW32038   7.427   5.157   0.161 -0.3764 -0.1360  0.2738
10487SOL    HW132039   7.492   5.126   0.098  0.6782  0.6832  0.9185
10487SOL    HW232040   7.407   5.247   0.133 -0.3252  0.0338  0.7716
10488SOL     OW32041   8.125   3.388   5.278  0.0302 -0.2247  0.0921
10488SOL    HW132042   8.167   3.340   5.350 -0.2201 -0.9123 -0.2141
10488SOL    HW232043   8.049   3.429   5.318 -1.9543 -3.1497 -0.3453
10489SOL     OW32044   6.503   5.920   6.775 -0.1382  0.2929  0.3985
10489SOL    HW132045   6.454   6.002   6.769  0.3577  0.5116 -3.7581
10489SOL    HW232046   6.592   5.944   6.749 -0.0262 -1.5319 -1.0951
10490SOL     OW32047   8.103   7.777   9.645 -0.0646 -0.1425  0.5341
10490SOL    HW132048   8.029   7.794   9.586 -0.4778  2.8325  1.6896
10490SOL    HW232049   8.171   7.837   9.616  0.4732 -0.1077  1.8068
10491SOL     OW32050   4.397   5.168   4.535  0.4064 -0.0698  0.0664
10491SOL    HW132051   4.455   5.239   4.564  1.2705 -0.2079 -1.2417
10491SOL    HW232052   4.412   5.098   4.598  0.4446  0.4670  0.6729
10492SOL     OW32053   7.167   5.010   8.112  0.1441  0.3441  0.7103
10492SOL    HW132054   7.157   5.103   8.093  0.4988  0.1660 -0.4157
10492SOL    HW232055   7.214   5.008   8.195  2.3984  1.2092 -0.4572
10493SOL     OW32056   2.680   3.970   6.188  0.3570  0.5920 -0.5319
10493SOL    HW132057   2.704   3.880   6.210  0.9651  0.3205 -2.1848
10493SOL    HW232058   2.586   3.975   6.206  0.4211 -0.2166  0.0680
10494SOL     OW32059   0.994   3.568   2.636 -0.5152  0.4810  0.4230
10494SOL    HW132060   1.072   3.515   2.646 -0.6588  0.3700  0.9795
10494SOL    HW232061   0.921   3.508   2.654 -0.6703  0.9213  1.3446
10495SOL     OW32062   7.964   8.658   5.071 -0.1026  0.1985 -0.0739
10495SOL    HW132063   7.900   8.632   5.137 -0.2440 -0.8996 -0.6241
10495SOL    HW232064   8.023   8.717   5.117 -1.0704  0.6390  0.6346
10496SOL     OW32065   2.235   1.141   9.728  0.0264  0.9468  0.6059
10496SOL    HW132066   2.308   1.199   9.750 -0.1284  1.1663  0.5499
10496SOL    HW232067   2.162   1.174   9.781 -0.1603  1.0366  0.2988
10497SOL     OW32068   1.688   6.265   5.765 -0.5307 -0.3621 -0.6387
10497SOL    HW132069   1.644   6.195   5.717 -0.1168 -1.5758  0.6861
10497SOL    HW232070   1.746   6.219   5.826 -1.7742  1.0650  1.7467
10498SOL     OW32071   9.263   5.403   1.264  0.9150 -0.0886 -0.0387
10498SOL    HW132072   9.281   5.449   1.346  0.2617 -0.6639  0.4456
10498SOL    HW232073   9.199   5.458   1.219  1.3468  0.2762 -0.1988
10499SOL     OW32074   0.180   9.664   4.568  0.5991 -0.6533 -0.3295
10499SOL    HW132075   0.203   9.609   4.493  1.2182 -1.7305  0.6014
10499SOL    HW232076   0.261   9.668   4.619  0.1429 -0.0829  0.3626
10500SOL     OW32077   4.116   0.850   1.266 -0.4076  0.1332 -1.0171
10500SOL    HW132078   4.101   0.815   1.178 -1.3844  0.3241 -0.9351
10500SOL    HW232079   4.042   0.908   1.282  0.0156  0.4814 -0.2512
10501SOL     OW32080   7.530   7.121   6.173  0.3948 -0.2569 -0.3061
10501SOL    HW132081   7.514   7.085   6.260  0.5797 -0.0454 -0.1844
10501SOL    HW232082   7.493   7.056   6.113  0.3966 -0.4726 -0.0742
10502SOL     OW32083   5.846   6.481   3.028  0.3428  0.0006  0.0876
10502SOL    HW132084   5.869   6.416   3.094 -1.8737  0.5456  1.4935
10502SOL    HW232085   5.769   6.445   2.984 -0.1067  1.0670 -0.0326
10503SOL     OW32086   3.685   4.999   0.177  0.3488 -0.2023  0.0842
10503SOL    HW132087   3.779   5.008   0.190  0.4318  0.8046 -1.0733
10503SOL    HW232088   3.656   5.086   0.150 -0.7944 -0.6761 -0.2683
10504SOL     OW32089   7.991   4.372   3.520  0.1998  0.0257  0.5130
10504SOL    HW132090   8.012   4.319   3.597  0.1977 -1.6938 -0.6139
10504SOL    HW232091   8.064   4.434   3.513 -0.0546  0.5595  2.1552
10505SOL     OW32092   3.422   2.891   1.561  0.0133 -0.3436 -0.4942
10505SOL    HW132093   3.426   2.795   1.565  2.1651 -0.3040 -0.6264
10505SOL    HW232094   3.465   2.914   1.479 -1.4986  0.7337 -1.0303
10506SOL     OW32095   4.235   7.842   6.549  0.2414 -0.1007  0.0315
10506SOL    HW132096   4.290   7.905   6.596  0.0777 -0.4512  0.6958
10506SOL    HW232097   4.178   7.804   6.616 -0.7542  0.1871 -0.6313
10507SOL     OW32098   0.168   8.886   5.455  0.2407 -0.0742  0.0991
10507SOL    HW132099   0.240   8.872   5.392 -0.6942 -0.5158 -0.9117
10507SOL    HW232100   0.089   8.871   5.403 -0.5849  0.5155  1.1696
10508SOL     OW32101   1.652   2.123   8.968 -0.4312  0.0625 -0.6427
10508SOL    HW132102   1.620   2.072   9.042  1.6826 -1.7243 -0.8674
10508SOL    HW232103   1.580   2.119   8.904 -3.1440  3.2854  1.8375
10509SOL     OW32104   0.568   8.025   3.037 -0.2913 -0.1393  0.5165
10509SOL    HW132105   0.658   7.996   3.024 -1.0012 -1.9778 -0.8972
10509SOL    HW232106   0.569   8.071   3.120  1.8767 -0.4272  0.7050
10510SOL     OW32107   3.506   0.427   3.902  0.6056  0.5243 -0.3542
10510SOL    HW132108   3.511   0.480   3.823  2.2055  3.7467  1.6745
10510SOL    HW232109   3.465   0.484   3.967 -1.1297 -2.1673  1.1000
10511SOL     OW32110   9.348   7.126   6.860 -0.4908  0.1780  0.3268
10511SOL    HW132111   9.350   7.030   6.855 -0.1537  0.1881  0.1570
10511SOL    HW232112   9.432   7.153   6.822 -1.7991  0.6517 -2.5060
10512SOL     OW32113   4.401   6.106   7.016  0.0274 -0.1375  0.0885
10512SOL    HW132114   4.380   6.187   7.063  1.7747  0.9059 -0.8234
10512SOL    HW232115   4.489   6.083   7.046  0.8560  0.1091 -2.0149
10513SOL     OW32116   8.616   2.225   7.003 -0.0729 -0.4817 -0.0064
10513SOL    HW132117   8.619   2.297   6.940 -1.2092 -2.0939 -2.0448
10513SOL    HW232118   8.541   2.172   6.975 -0.7931 -1.1799  2.8978
10514SOL     OW32119   5.355   5.250   6.945  0.1179  0.4235  0.4074
10514SOL    HW132120   5.448   5.229   6.955  0.4764  1.9617  0.5827
10514SOL    HW232121   5.331   5.294   7.027 -0.1062  2.2044 -0.5455
10515SOL     OW32122   9.253   4.887   2.693 -0.2853 -0.3871 -0.5098
10515SOL    HW132123   9.231   4.794   2.682  0.7394 -0.7495  0.3052
10515SOL    HW232124   9.234   4.905   2.785  0.6420 -0.1168 -0.3628
10516SOL     OW32125   6.027   2.324   2.579 -0.8632  0.2548  0.8385
10516SOL    HW132126   5.948   2.336   2.633 -1.5120 -1.8792  0.4526
10516SOL    HW232127   6.086   2.273   2.634 -0.4656  0.3234  0.4766
10517SOL     OW32128   2.102   2.017   8.485 -0.2098  0.2048  0.3435
10517SOL    HW132129   2.197   2.009   8.480 -0.2184 -1.9291  2.2538
10517SOL    HW232130   2.087   2.080   8.555 -0.2108  0.0487  0.4836
10518SOL     OW32131   2.783   4.602   3.683  0.0258 -0.0553  0.0661
10518SOL    HW132132   2.851   4.571   3.624 -1.4186 -1.2079 -1.0789
10518SOL    HW232133   2.731   4.524   3.703 -1.6336  0.9746 -0.0448
10519SOL     OW32134   3.401   6.332   7.626  0.3724  0.5433  0.5426
10519SOL    HW132135   3.395   6.425   7.600 -0.1290  0.2725 -0.3677
10519SOL    HW232136   3.405   6.285   7.543 -1.3875 -0.3691  0.9313
10520SOL     OW32137   4.622   0.399   3.127  0.3387 -0.0232 -0.2889
10520SOL    HW132138   4.566   0.366   3.197 -0.0774 -1.0630 -1.0718
10520SOL    HW232139   4.711   0.386   3.159  0.3201 -3.9193 -1.2546
10521SOL     OW32140   0.330   2.302   6.732  0.2483  0.0977  0.2433
10521SOL    HW132141   0.264   2.371   6.733  0.0089 -0.1332  0.4465
10521SOL    HW232142   0.364   2.303   6.642 -3.0027 -2.5654 -1.2738
10522SOL     OW32143   3.685   8.009   3.145 -0.3629 -0.5627  0.5002
10522SOL    HW132144   3.602   7.997   3.191 -0.4928 -0.3746  0.3197
10522SOL    HW232145   3.745   7.947   3.187 -0.3323 -0.0264  1.2807
10523SOL     OW32146   3.005   1.629   2.522  0.2508  0.4341  0.4108
10523SOL    HW132147   2.993   1.659   2.613 -0.0790  0.9788  0.1961
10523SOL    HW232148   2.918   1.605   2.493  0.5635 -1.0990  0.6861
10524SOL     OW32149   5.765   8.422   3.444  0.2368  0.6003 -0.0998
10524SOL    HW132150   5.842   8.388   3.399 -0.7857  0.5568 -1.9424
10524SOL    HW232151   5.773   8.517   3.435  0.7565  0.6666  0.9464
10525SOL     OW32152   8.986   3.406   7.717 -0.3733 -0.1845  0.1995
10525SOL    HW132153   8.980   3.426   7.811  0.0267 -1.3518  0.5026
10525SOL    HW232154   8.909   3.352   7.700  0.9740 -2.3713  0.5561
10526SOL     OW32155   5.588   7.075   0.558  0.1398  0.1113  0.2846
10526SOL    HW132156   5.670   7.064   0.510 -0.1527 -3.6105  0.3316
10526SOL    HW232157   5.520   7.060   0.493 -0.5997  2.9758  0.2879
10527SOL     OW32158   8.742   9.118   4.833 -0.3373 -0.0678  0.1253
10527SOL    HW132159   8.667   9.178   4.839  0.6176  1.0374  1.5022
10527SOL    HW232160   8.797   9.140   4.908  0.8519 -1.5950 -0.2502
10528SOL     OW32161   2.775   1.311   5.786 -0.1435  0.5924 -0.1602
10528SOL    HW132162   2.703   1.328   5.725  0.3392  0.2559 -0.8324
10528SOL    HW232163   2.853   1.308   5.731  0.1141 -1.1971  0.2555
10529SOL     OW32164   7.679   3.376   2.496 -0.3043  0.3455 -0.2145
10529SOL    HW132165   7.740   3.365   2.569  1.7747  0.6605 -1.7964
10529SOL    HW232166   7.592   3.378   2.537  0.7794  0.8355  2.2507
10530SOL     OW32167   6.366   6.698   6.814  0.2532  0.2158 -0.2615
10530SOL    HW132168   6.344   6.689   6.722  0.6237  1.2037 -0.4610
10530SOL    HW232169   6.336   6.786   6.838  0.4717  0.1025  0.4639
10531SOL     OW32170   0.863   5.703   9.915 -1.1470  0.2989 -0.3114
10531SOL    HW132171   0.769   5.688   9.929 -1.1525  0.8344  0.2776
10531SOL    HW232172   0.905   5.627   9.955 -1.2229  1.2758  1.7588
10532SOL     OW32173   5.224   2.423   2.773 -0.4190 -0.3663 -0.2254
10532SOL    HW132174   5.276   2.489   2.818  0.1371  0.0683 -1.4601
10532SOL    HW232175   5.271   2.341   2.789  1.7202  0.2389 -2.7365
10533SOL     OW32176   7.553   8.923   5.466 -0.3228 -0.4819  0.1488
10533SOL    HW132177   7.488   8.993   5.460 -0.7015 -0.8778 -0.6352
10533SOL    HW232178   7.508   8.851   5.510  0.0293 -0.2801  0.8509
10534SOL     OW32179   1.099   7.671   5.411  0.4849  0.3459  0.2061
10534SOL    HW132180   1.031   7.605   5.392  0.1902  1.0875 -1.4967
10534SOL    HW232181   1.083   7.696   5.502  0.7616 -2.0925  0.9938
10535SOL     OW32182   6.412   2.708   6.356  0.3920  0.3619 -0.0153
10535SOL    HW132183   6.486   2.768   6.358 -1.7647  3.2350  2.4694
10535SOL    HW232184   6.373   2.722   6.269 -0.1628  2.8374  0.5638
10536SOL     OW32185   0.346   1.112   7.105 -0.6701  0.0986 -0.8566
10536SOL    HW132186   0.420   1.114   7.165 -1.4114  0.3831  0.0773
10536SOL    HW232187   0.379   1.069   7.027  0.1567 -0.8242 -0.0221
10537SOL     OW32188   4.501   8.747   3.892 -0.1764  0.2090  0.2521
10537SOL    HW132189   4.443   8.802   3.944  0.9584  0.9166  0.8237
10537SOL    HW232190   4.566   8.808   3.856 -0.8337 -0.2741 -1.9244
10538SOL     OW32191   4.613   6.927   9.665  0.5714 -0.1381  0.2592
10538SOL    HW132192   4.609   6.905   9.572 -1.6323  0.0018  0.2527
10538SOL    HW232193   4.656   7.012   9.668 -0.6870  0.5898 -0.8326
10539SOL     OW32194   6.959   3.295   2.715  0.4862  0.4451 -0.9590
10539SOL    HW132195   6.941   3.209   2.753 -0.1799  0.8524 -0.3409
10539SOL    HW232196   7.054   3.297   2.702  0.7354  0.3114  0.7139
10540SOL     OW32197   5.578   0.228   4.651 -0.5762  0.0768 -0.0381
10540SOL    HW132198   5.645   0.187   4.705 -0.0731  0.5920 -0.2584
10540SOL    HW232199   5.623   0.251   4.570 -1.0276  0.3752 -0.2081
10541SOL     OW32200   6.518   8.891   5.267  0.2737 -0.0472  0.3342
10541SOL    HW132201   6.453   8.928   5.207 -1.1336 -1.7533  0.7145
10541SOL    HW232202   6.554   8.815   5.220 -0.3124 -0.9640  1.3029
10542SOL     OW32203   3.984   3.108   7.568 -0.2082 -0.1332  0.4425
10542SOL    HW132204   3.996   3.021   7.607  1.1951 -0.2821 -0.2377
10542SOL    HW232205   3.923   3.153   7.626  0.5241 -0.9238  1.8786
10543SOL     OW32206   0.446   9.240   6.376 -0.2727 -0.8659 -0.0212
10543SOL    HW132207   0.467   9.229   6.284 -0.2515  1.2387 -0.3255
10543SOL    HW232208   0.514   9.299   6.409 -0.0342 -1.8972  1.4714
10544SOL     OW32209   9.268   5.117   5.313  0.4464  0.8627  0.1835
10544SOL    HW132210   9.190   5.145   5.266  0.6213 -0.5417 -1.0184
10544SOL    HW232211   9.320   5.071   5.247  0.4670 -1.6700  1.8648
10545SOL     OW32212   7.739   2.323   5.177  0.4725  0.0198  0.1744
10545SOL    HW132213   7.680   2.281   5.239  0.3392 -1.5788 -0.9728
10545SOL    HW232214   7.822   2.276   5.185  0.2873 -0.6089 -1.2234
10546SOL     OW32215   6.049   7.984   7.461  0.3735 -0.5854 -0.0234
10546SOL    HW132216   6.137   7.950   7.475  0.3818 -0.3554  0.5027
10546SOL    HW232217   5.992   7.928   7.514  0.2848 -0.3274  0.1600
10547SOL     OW32218   4.776   6.222   4.382 -0.0969 -0.1605 -0.3319
10547SOL    HW132219   4.759   6.305   4.337 -2.6209 -0.7041 -0.5282
10547SOL    HW232220   4.771   6.156   4.313 -0.7505 -0.7008  0.2168
10548SOL     OW32221   1.719   2.169   7.516 -0.2895 -0.0040  0.0778
10548SOL    HW132222   1.728   2.080   7.549  0.6156  0.3750  0.9407
10548SOL    HW232223   1.628   2.176   7.489 -0.5796 -0.9374  0.7639
10549SOL     OW32224   4.500   3.259   3.393 -0.0018 -0.0258  0.2059
10549SOL    HW132225   4.492   3.164   3.389 -0.7760  0.0121  0.4968
10549SOL    HW232226   4.506   3.287   3.302 -1.0846 -0.2728  0.0379
10550SOL     OW32227   1.429   4.263   4.084  0.5505 -0.8048 -0.3380
10550SOL    HW132228   1.401   4.174   4.062 -0.4292 -0.0983 -2.1604
10550SOL    HW232229   1.422   4.311   4.001  3.1040  0.4729  0.0936
10551SOL     OW32230   0.945   0.534   3.245 -0.4506  0.2623 -0.3428
10551SOL    HW132231   0.961   0.523   3.339  0.8817  0.5947 -0.5076
10551SOL    HW232232   0.879   0.604   3.240 -1.2604 -0.4376  0.3590
10552SOL     OW32233   0.903   0.687   8.623  0.2105  0.3871  0.0214
10552SOL    HW132234   0.815   0.723   8.633  0.2573  0.4887  0.0619
10552SOL    HW232235   0.961   0.753   8.661  0.3602  0.6159 -0.5953
10553SOL     OW32236   5.520   5.046   0.695  0.0665  0.7723  0.2114
10553SOL    HW132237   5.464   4.972   0.673 -0.6010  0.9931  1.1201
10553SOL    HW232238   5.572   5.061   0.616  0.7990 -1.1660  0.2858
10554SOL     OW32239   4.297   0.412   3.029 -0.4179 -0.0698  0.1824
10554SOL    HW132240   4.287   0.432   3.122 -0.8368 -1.0182  0.3513
10554SOL    HW232241   4.332   0.323   3.027 -0.8971 -0.2519 -0.5759
10555SOL     OW32242   2.648   8.984   0.287 -0.0489 -0.3443  0.2803
10555SOL    HW132243   2.657   8.991   0.382  0.9202 -4.5204  0.7181
10555SOL    HW232244   2.556   8.962   0.273  0.1326 -1.3059  0.4906
10556SOL     OW32245   8.847   5.495   8.476  0.3580  0.4325 -0.2090
10556SOL    HW132246   8.879   5.432   8.412 -0.3393  0.9003 -1.0402
10556SOL    HW232247   8.756   5.510   8.451  0.0865  0.6596  0.8666
10557SOL     OW32248   1.669  10.010   6.708 -0.0034  0.1581  0.0815
10557SOL    HW132249   1.723   9.986   6.783  0.2949 -0.4408 -0.3158
10557SOL    HW232250   1.644   9.927   6.668  0.9527  0.4808 -1.2632
10558SOL     OW32251   3.491   1.855   8.845 -0.0639  0.0630  0.2374
10558SOL    HW132252   3.436   1.907   8.904  0.1919  1.2934 -0.5639
10558SOL    HW232253   3.530   1.920   8.786 -0.7462 -1.1812 -1.6373
10559SOL     OW32254   5.008   7.673   3.704  0.5387 -0.1188  0.1478
10559SOL    HW132255   4.934   7.701   3.758  1.3732  0.7413  0.8871
10559SOL    HW232256   4.973   7.602   3.650 -0.8682  0.3919  0.3440
10560SOL     OW32257   9.697   8.683   2.135 -0.0105  0.9258  0.3855
10560SOL    HW132258   9.641   8.607   2.150 -0.5865  0.8809 -1.7550
10560SOL    HW232259   9.777   8.647   2.097 -0.0709  1.3265 -0.1287
10561SOL     OW32260   6.238   4.476   9.680  0.5371 -0.0488 -0.3726
10561SOL    HW132261   6.277   4.389   9.675  0.9430  0.1655 -1.5791
10561SOL    HW232262   6.210   4.495   9.590  2.2212  1.8123 -0.5909
10562SOL     OW32263   3.362   0.358   8.514 -0.2084 -0.0998  0.2728
10562SOL    HW132264   3.362   0.321   8.602 -2.2444  0.8054  0.7147
10562SOL    HW232265   3.453   0.384   8.498 -0.1185  1.3987  2.8468
10563SOL     OW32266   9.751   0.971   8.255  0.4599 -0.0913 -0.5843
10563SOL    HW132267   9.713   0.927   8.179  1.0195 -0.4170 -0.6876
10563SOL    HW232268   9.730   0.914   8.329  1.0327 -0.4589 -0.6927
10564SOL     OW32269   3.809   5.680   9.356 -0.7171  0.4340 -0.2281
10564SOL    HW132270   3.875   5.615   9.334  0.3747  1.7479 -1.0262
10564SOL    HW232271   3.843   5.722   9.435 -0.2075  1.5735 -1.0226
10565SOL     OW32272   5.667   4.838   8.786 -0.0977  0.0113 -0.3318
10565SOL    HW132273   5.601   4.904   8.768  1.0726  0.8509 -1.7985
10565SOL    HW232274   5.673   4.786   8.706  2.1755  1.0482 -0.9184
10566SOL     OW32275   5.329   4.500   5.334  0.9315 -0.2366 -0.4535
10566SOL    HW132276   5.295   4.533   5.417  0.4034 -1.6957 -0.0586
10566SOL    HW232277   5.255   4.505   5.273  0.1228 -2.6738  0.2001
10567SOL     OW32278   4.084   8.962   6.741  0.0222  0.1049  0.0666
10567SOL    HW132279   4.105   9.050   6.773 -2.8685  0.9003  0.0458
10567SOL    HW232280   4.105   8.905   6.815 -0.6946  1.1708  1.1271
10568SOL     OW32281   4.222  -0.012   3.324 -0.2496 -0.6597  0.0467
10568SOL    HW132282   4.194   0.076   3.350 -0.7921 -0.6251 -0.6161
10568SOL    HW232283   4.241  -0.004   3.231 -0.9098 -1.3898 -0.1564
10569SOL     OW32284   5.980   6.942   8.548  0.7682  0.9733  0.0421
10569SOL    HW132285   5.891   6.928   8.579  0.5181  1.3386 -0.4939
10569SOL    HW232286   5.976   7.026   8.503  1.4730  1.1752  0.3504
10570SOL     OW32287   9.294   1.965   7.521  0.6977 -0.4963 -0.2229
10570SOL    HW132288   9.240   1.904   7.471 -0.5355 -0.5669  1.1181
10570SOL    HW232289   9.349   1.909   7.575 -1.2522 -0.5477  1.8790
10571SOL     OW32290   3.430   3.071   8.936  0.0043  0.6042 -0.1584
10571SOL    HW132291   3.502   3.016   8.969  0.4308  1.6644  0.7120
10571SOL    HW232292   3.439   3.066   8.840 -0.6739 -1.7403 -0.1781
10572SOL     OW32293   9.234   4.143   0.743 -0.2178  0.5647  0.1802
10572SOL    HW132294   9.230   4.213   0.679 -1.4007  0.8579  0.5428
10572SOL    HW232295   9.170   4.167   0.810 -0.3655 -0.6601  0.5166
10573SOL     OW32296   0.613   7.808   5.167  0.1235 -0.0127  0.1902
10573SOL    HW132297   0.676   7.850   5.109  1.1581 -1.6452  0.0842
10573SOL    HW232298   0.550   7.878   5.188  1.3578  1.3800 -0.5346
10574SOL     OW32299   2.289   8.224   3.195 -0.1438 -0.0043 -0.5004
10574SOL    HW132300   2.247   8.159   3.139  0.5001  0.4933 -1.5852
10574SOL    HW232301   2.363   8.256   3.144  0.0359  0.9946  0.3474
10575SOL     OW32302   1.890   4.820   6.531  0.3909 -0.1981  0.5196
10575SOL    HW132303   1.832   4.884   6.489 -0.4848 -2.3852 -1.9315
10575SOL    HW232304   1.970   4.868   6.548 -0.0744  1.5006 -1.5726
10576SOL     OW32305   9.686   1.712   9.891 -0.0603 -0.1253 -0.3924
10576SOL    HW132306   9.665   1.703   9.984  0.0296 -0.5659 -0.4136
10576SOL    HW232307   9.709   1.804   9.880  1.4766 -0.3970  0.3405
10577SOL     OW32308   8.347   6.870   3.406  0.0407  0.0723  0.5464
10577SOL    HW132309   8.429   6.868   3.356 -0.0830 -1.1738  0.3555
10577SOL    HW232310   8.363   6.812   3.481 -1.2011 -1.5583 -0.3956
10578SOL     OW32311   5.449   8.661   7.409  0.3771  0.6144 -0.3327
10578SOL    HW132312   5.411   8.648   7.323 -0.1850  1.6362 -0.2668
10578SOL    HW232313   5.485   8.576   7.434 -0.5459 -0.0015 -1.0473
10579SOL     OW32314   4.784   5.455   9.304 -0.2209 -0.2477  0.9665
10579SOL    HW132315   4.747   5.513   9.371 -0.6867 -0.6089  1.0263
10579SOL    HW232316   4.838   5.513   9.250  0.5939 -0.0458  1.9541
10580SOL     OW32317   1.134   8.982   2.597  0.0202  1.1037 -0.1514
10580SOL    HW132318   1.113   8.926   2.672 -0.7338  0.3449 -0.9132
10580SOL    HW232319   1.223   9.012   2.614 -0.8789  2.8019  2.1792
10581SOL     OW32320   6.209   2.238   7.795  0.0722 -0.2860  0.1862
10581SOL    HW132321   6.257   2.321   7.795  0.6786 -0.6293  0.7182
10581SOL    HW232322   6.274   2.172   7.820 -0.6102 -0.8039  0.6315
10582SOL     OW32323   9.913   1.220   6.455  0.1296  1.1027  0.2184
10582SOL    HW132324   9.959   1.212   6.538 -0.4014  0.7958  0.4869
10582SOL    HW232325   9.841   1.157   6.461  1.9451 -1.3794 -1.7363
10583SOL     OW32326   4.831   2.429   5.916 -0.1584  0.1884  0.1248
10583SOL    HW132327   4.806   2.521   5.902  0.1901  0.2889  0.1549
10583SOL    HW232328   4.763   2.379   5.870  0.5840  0.4862 -1.3532
10584SOL     OW32329   1.623   9.223   5.933  0.7554  0.1001  0.3925
10584SOL    HW132330   1.628   9.316   5.953  3.1897  0.3186 -0.9042
10584SOL    HW232331   1.655   9.180   6.012 -2.1140  0.1560  1.7168
10585SOL     OW32332   3.977   0.999   2.761  0.0779 -0.2928  0.2081
10585SOL    HW132333   3.952   0.973   2.673  0.0543  1.5123 -0.3557
10585SOL    HW232334   4.059   0.952   2.777  0.9218  0.5478 -1.4124
10586SOL     OW32335   8.681   3.247   9.148  0.1041 -0.1655 -0.0007
10586SOL    HW132336   8.745   3.197   9.199  0.4213 -2.1278 -2.2134
10586SOL    HW232337   8.598   3.233   9.194  0.4259 -1.6287  0.1576
10587SOL     OW32338   4.343   9.273   6.257  0.0270  0.0679  0.2354
10587SOL    HW132339   4.327   9.180   6.269  0.8560  0.0781  1.6341
10587SOL    HW232340   4.255   9.312   6.252 -0.3183 -0.7579 -0.1940
10588SOL     OW32341   9.534   7.853   1.189  0.1135  0.1048  0.5246
10588SOL    HW132342   9.458   7.908   1.171 -0.5092 -0.5785  0.9838
10588SOL    HW232343   9.593   7.908   1.240  0.0452  0.7153 -0.0328
10589SOL     OW32344   3.724   0.047   9.556 -0.0766  0.2343  0.4960
10589SOL    HW132345   3.764   0.134   9.560  0.7481 -0.1402  0.6356
10589SOL    HW232346   3.739   0.017   9.467 -0.7970  0.4253  0.3017
10590SOL     OW32347   5.704   7.029   0.818  0.1675 -0.5642  0.5551
10590SOL    HW132348   5.628   6.991   0.862  0.3349 -1.5829 -0.0118
10590SOL    HW232349   5.680   7.030   0.725 -0.1586  1.4972  0.6128
10591SOL     OW32350   1.721   1.759   5.721  0.4709 -0.3405 -0.5856
10591SOL    HW132351   1.644   1.739   5.774  0.2688  0.0682 -0.7209
10591SOL    HW232352   1.772   1.820   5.774  0.0317  0.4485 -1.0447
10592SOL     OW32353   1.325   7.649   9.718 -0.5593  0.4816 -0.3625
10592SOL    HW132354   1.312   7.737   9.683 -0.6690  0.8115  0.4922
10592SOL    HW232355   1.287   7.652   9.806  0.3154 -0.1274  0.0558
10593SOL     OW32356   5.020   1.451   5.768  0.6056  0.1864  0.9932
10593SOL    HW132357   5.099   1.484   5.812  0.8254 -0.1100  0.8184
10593SOL    HW232358   4.995   1.374   5.819 -0.5788  1.2747  2.1119
10594SOL     OW32359   3.513   8.124   5.546  0.3462  0.2851 -0.1204
10594SOL    HW132360   3.518   8.040   5.592  0.4684  1.0959  1.3903
10594SOL    HW232361   3.598   8.165   5.561 -0.8790  2.1855  2.1890
10595SOL     OW32362   3.857   7.841   7.330  0.3772  0.4034 -0.4873
10595SOL    HW132363   3.938   7.790   7.329  0.7514  0.8060  2.3068
10595SOL    HW232364   3.869   7.907   7.262  2.6756  0.8308  0.2485
10596SOL     OW32365   2.247   0.567   3.928 -0.0960  0.5580 -0.3027
10596SOL    HW132366   2.319   0.629   3.920  0.5435 -0.2586 -1.0915
10596SOL    HW232367   2.271   0.511   4.002  0.7821 -0.5508 -1.3652
10597SOL     OW32368   8.480   7.983   7.480  0.0152 -0.1687  0.0203
10597SOL    HW132369   8.454   8.072   7.456  2.6419  0.3292 -1.2816
10597SOL    HW232370   8.486   7.985   7.575 -0.8415  0.7533  0.0819
10598SOL     OW32371   1.085   9.681   2.888  0.4553 -0.0169 -0.0186
10598SOL    HW132372   1.012   9.668   2.827 -0.2999  1.4199  0.5269
10598SOL    HW232373   1.070   9.618   2.958  0.0045 -0.0637 -0.1523
10599SOL     OW32374   4.945   6.815   9.209 -0.4242 -0.0472 -0.6642
10599SOL    HW132375   4.904   6.820   9.123 -0.3714 -1.8376 -0.8449
10599SOL    HW232376   4.925   6.726   9.239 -0.9923  0.7397  1.4538
10600SOL     OW32377   5.055   0.575   5.388  0.4807  0.3034  0.4578
10600SOL    HW132378   4.999   0.616   5.454  1.9164 -2.2478  3.5595
10600SOL    HW232379   5.107   0.648   5.352  0.0720  1.7818  2.6516
10601SOL     OW32380   8.833   9.455   9.993  0.6674  0.3060 -0.5255
10601SOL    HW132381   8.769   9.387  10.012  0.6814  0.3573 -0.2915
10601SOL    HW232382   8.803   9.494   9.910  0.3306  0.4067 -0.3592
10602SOL     OW32383   7.464   3.312   2.988 -0.2886 -0.0666 -0.0071
10602SOL    HW132384   7.515   3.231   2.997  1.0595  0.8373  0.8286
10602SOL    HW232385   7.428   3.327   3.076  1.5937  1.5631  0.5445
10603SOL     OW32386   7.303   2.111   7.647  0.2668  0.3050 -0.0789
10603SOL    HW132387   7.223   2.127   7.697 -0.1051  0.4405 -0.7088
10603SOL    HW232388   7.287   2.027   7.603  1.1368 -0.5210  1.0943
10604SOL     OW32389   6.092   6.522   0.972 -0.5894  0.7568  0.2548
10604SOL    HW132390   6.075   6.587   1.041 -1.3151  0.2383  0.5754
10604SOL    HW232391   6.114   6.574   0.895 -0.6657  1.3715  0.6405
10605SOL     OW32392   0.519   5.437   3.728 -0.6063  0.9565 -0.4534
10605SOL    HW132393   0.570   5.429   3.808  0.3357  1.2947 -0.9934
10605SOL    HW232394   0.583   5.465   3.662 -0.7846 -1.8267 -1.9402
10606SOL     OW32395   9.814   7.232   2.513  0.0533 -0.0645  0.5443
10606SOL    HW132396   9.826   7.163   2.578  2.4092 -0.3266 -0.0734
10606SOL    HW232397   9.900   7.240   2.471 -1.0136  1.0692 -1.5635
10607SOL     OW32398   9.562   4.533   5.579 -0.4681 -0.0080 -0.2516
10607SOL    HW132399   9.531   4.613   5.537 -0.6938 -0.3285 -0.7060
10607SOL    HW232400   9.488   4.504   5.632  0.3070  1.1884  1.5687
10608SOL     OW32401   1.557   8.648   8.243 -0.2293 -0.0938 -0.5633
10608SOL    HW132402   1.612   8.663   8.166 -0.8887 -0.2183 -1.0658
10608SOL    HW232403   1.516   8.733   8.261  0.5798  0.1497  0.1752
10609SOL     OW32404   4.459   3.587   6.983 -0.8474 -0.1757  0.0199
10609SOL    HW132405   4.372   3.607   6.949 -0.4896  0.5765 -0.4925
10609SOL    HW232406   4.512   3.571   6.905 -0.0600  1.3848  0.2038
10610SOL     OW32407   8.246   2.412   0.824  0.4301 -0.2117  0.1481
10610SOL    HW132408   8.281   2.501   0.832 -2.1657  0.8339  0.7707
10610SOL    HW232409   8.254   2.391   0.730  1.4028  0.5077  0.0576
10611SOL     OW32410   4.892   8.519   2.098 -0.6011  0.7986 -0.2400
10611SOL    HW132411   4.844   8.560   2.170 -1.0805 -0.7580  0.3662
10611SOL    HW232412   4.824   8.496   2.034 -0.4671  0.1350 -0.1500
10612SOL     OW32413   1.783   2.302   6.521 -0.3350  0.7166  0.2071
10612SOL    HW132414   1.706   2.274   6.471  0.1434  0.3644 -0.3497
10612SOL    HW232415   1.844   2.332   6.454  0.4858 -0.1546  0.5476
10613SOL     OW32416   9.335   7.448   3.784  0.1561 -0.3669  0.2210
10613SOL    HW132417   9.258   7.503   3.768 -0.3951 -1.5609 -1.5283
10613SOL    HW232418   9.408   7.509   3.792 -0.6713  0.6908 -0.1046
10614SOL     OW32419   0.424   9.742   6.091 -0.0289 -0.0039  0.4326
10614SOL    HW132420   0.514   9.753   6.061 -0.8382  2.1905 -1.5219
10614SOL    HW232421   0.380   9.695   6.021 -0.8444  0.7535  0.4162
10615SOL     OW32422   5.709   0.242   7.554  0.4564  0.3413  0.4059
10615SOL    HW132423   5.782   0.190   7.586  0.7576  1.0245  0.8619
10615SOL    HW232424   5.638   0.225   7.616  0.0317 -0.7719 -0.3654
10616SOL     OW32425   1.730   2.662   0.522  0.4065 -0.2990  0.1590
10616SOL    HW132426   1.745   2.622   0.607 -1.3963  0.0160  0.6544
10616SOL    HW232427   1.744   2.755   0.536 -2.3135  0.1002  0.8044
10617SOL     OW32428   2.207   1.672   0.231 -0.3142 -0.2762 -0.0576
10617SOL    HW132429   2.124   1.637   0.264 -0.3930 -1.0019 -0.9848
10617SOL    HW232430   2.265   1.596   0.229 -0.4649 -0.4067 -2.0368
10618SOL     OW32431   8.999   8.469   5.474  0.2213 -0.1568  0.0727
10618SOL    HW132432   9.030   8.471   5.564 -0.0577 -0.0237  0.1676
10618SOL    HW232433   8.923   8.527   5.474  0.0250 -0.4106 -0.1749
10619SOL     OW32434   9.939   0.091   0.488  0.3300  0.1566  0.1255
10619SOL    HW132435   9.881   0.018   0.509  0.1641  0.2875  0.1270
10619SOL    HW232436  10.000   0.055   0.424 -0.7243  0.4128 -1.0891
10620SOL     OW32437   2.638   6.237   5.443 -0.3045  0.1890 -0.2066
10620SOL    HW132438   2.651   6.183   5.521 -0.3365  1.3515  0.6347
10620SOL    HW232439   2.587   6.182   5.384  1.5314 -1.4929 -0.3003
10621SOL     OW32440   3.165   2.631   1.575  0.2944  0.2836  0.0208
10621SOL    HW132441   3.258   2.616   1.561  0.3111  0.6019 -0.2214
10621SOL    HW232442   3.128   2.544   1.585  0.5900  0.1470 -0.0572
10622SOL     OW32443   5.476   7.219   6.047  0.2095 -0.1753  0.3881
10622SOL    HW132444   5.398   7.182   6.004 -0.9848  0.6409  1.7710
10622SOL    HW232445   5.495   7.299   5.997 -0.2085 -0.0596  0.4114
10623SOL     OW32446   0.098   2.631   7.250 -0.1061 -0.0614 -0.0392
10623SOL    HW132447   0.169   2.630   7.186  0.5259 -0.3388  0.6596
10623SOL    HW232448   0.123   2.565   7.315 -1.2509 -0.5391 -0.0527
10624SOL     OW32449   8.311   6.380   7.473  0.4167  0.2538 -0.2090
10624SOL    HW132450   8.378   6.441   7.443  2.8428 -0.8487  2.4742
10624SOL    HW232451   8.357   6.296   7.481 -1.1288 -0.4831  2.0520
10625SOL     OW32452   9.781   0.880   7.126 -0.1116  0.1506 -0.4606
10625SOL    HW132453   9.795   0.958   7.180  0.0234  0.9470 -1.6325
10625SOL    HW232454   9.867   0.837   7.124 -0.0734  0.2113 -0.1866
10626SOL     OW32455   8.064   6.239   8.822  0.9531  0.5104  0.1289
10626SOL    HW132456   8.147   6.218   8.779  1.3660  2.0810  0.1112
10626SOL    HW232457   8.058   6.335   8.819 -1.8466  0.3808 -1.7219
10627SOL     OW32458   7.603   6.079   8.395 -0.1122 -0.1290 -0.0055
10627SOL    HW132459   7.667   6.010   8.380 -0.0690  0.1827 -1.4544
10627SOL    HW232460   7.535   6.039   8.449  1.3153 -0.4422  1.6525
10628SOL     OW32461   2.606   7.558   7.691  0.2129 -0.1019  0.3256
10628SOL    HW132462   2.679   7.591   7.743  1.8661 -0.1766 -1.8224
10628SOL    HW232463   2.563   7.636   7.657 -0.6594 -0.0637  1.4428
10629SOL     OW32464   9.554   1.116   6.711 -0.7725  0.3057 -0.3567
10629SOL    HW132465   9.574   1.056   6.640 -1.9972  0.1336 -0.5653
10629SOL    HW232466   9.605   1.084   6.785  0.5844  0.5383 -1.1584
10630SOL     OW32467   6.981   9.631   8.336  0.5239  0.2979  0.5200
10630SOL    HW132468   7.035   9.610   8.413  0.2907  0.7974  0.8208
10630SOL    HW232469   6.900   9.665   8.372  0.4612  0.6554  0.0468
10631SOL     OW32470   2.393   2.674   1.243  0.2973  0.2214 -0.0871
10631SOL    HW132471   2.467   2.703   1.189  0.1529  1.2333  0.2313
10631SOL    HW232472   2.368   2.589   1.207  0.8939  0.3935 -0.9256
10632SOL     OW32473   3.672   6.255   1.598 -0.3892 -0.2121  0.0459
10632SOL    HW132474   3.633   6.178   1.559 -2.1099  0.6657 -0.0575
10632SOL    HW232475   3.605   6.289   1.657  0.9790  0.2499  1.4152
10633SOL     OW32476   5.026   5.934   9.516  0.7194 -0.5401  0.1588
10633SOL    HW132477   5.115   5.951   9.546  0.4909 -1.6914  1.5860
10633SOL    HW232478   4.981   5.898   9.592 -0.9703 -0.0417 -0.5464
10634SOL     OW32479   9.368   5.566   3.853  0.3334 -0.4397  0.0045
10634SOL    HW132480   9.455   5.607   3.855  1.0973 -2.0116  0.8091
10634SOL    HW232481   9.355   5.542   3.761  0.7150 -0.0982 -0.1384
10635SOL     OW32482   7.949   6.081   9.239 -0.5683  0.3705 -0.4279
10635SOL    HW132483   8.018   6.145   9.255  0.3619 -0.7071  0.0292
10635SOL    HW232484   7.926   6.092   9.147  0.5998  0.3993 -0.7249
10636SOL     OW32485   4.860   8.278   5.523 -0.0066  0.0349 -0.0654
10636SOL    HW132486   4.921   8.288   5.595  2.0535  1.5121 -1.9017
10636SOL    HW232487   4.889   8.341   5.457 -2.3394 -0.5986 -1.8385
10637SOL     OW32488   1.299   1.503   5.565 -0.0534 -0.1089  0.4860
10637SOL    HW132489   1.209   1.472   5.551  0.1871 -0.6832  0.1893
10637SOL    HW232490   1.353   1.425   5.552  0.5164  0.3117  0.3232
10638SOL     OW32491   9.104   4.808   7.710  0.1037 -0.3494  0.0323
10638SOL    HW132492   9.069   4.719   7.723  0.2390 -0.4964 -0.5686
10638SOL    HW232493   9.143   4.831   7.794 -0.5851 -0.5642  0.4256
10639SOL     OW32494   0.058   7.955   8.282 -0.0757  0.1219  0.0020
10639SOL    HW132495  -0.008   7.989   8.341 -0.8761  1.1908 -1.4366
10639SOL    HW232496   0.141   7.980   8.322 -0.5453 -0.6324  1.4849
10640SOL     OW32497   4.458   6.167   0.049  0.3288  0.0155 -0.0850
10640SOL    HW132498   4.553   6.180   0.043  0.1031  1.9203  0.0797
10640SOL    HW232499   4.446   6.111   0.126  1.2300  0.9099  0.7223
10641SOL     OW32500   6.063   4.031   6.653  0.7717  0.5587  0.7107
10641SOL    HW132501   6.070   3.964   6.720  2.2669 -0.4838 -0.4181
10641SOL    HW232502   6.001   4.095   6.688  0.4345 -0.6719  2.4346
10642SOL     OW32503   4.707   1.714   3.012 -0.1779  0.3069  0.1898
10642SOL    HW132504   4.782   1.751   2.965  0.5961 -1.5885 -0.1523
10642SOL    HW232505   4.729   1.725   3.104  0.4257 -0.0438  0.0908
10643SOL     OW32506   4.381   0.448   9.883  0.6042  0.0362  0.1325
10643SOL    HW132507   4.414   0.359   9.876 -0.1946 -0.2551 -0.0630
10643SOL    HW232508   4.314   0.454   9.815 -0.1662  0.4163  0.9018
10644SOL     OW32509   7.986   0.035   5.660  0.6023  0.1855  0.1725
10644SOL    HW132510   7.897   0.071   5.658  0.1241 -0.6673  2.9410
10644SOL    HW232511   7.995  -0.009   5.575 -0.4795  2.7548 -1.4083
10645SOL     OW32512   2.574   8.381   8.143  0.5027  0.0482  0.3483
10645SOL    HW132513   2.631   8.433   8.200  2.5261 -1.1343 -0.4912
10645SOL    HW232514   2.630   8.353   8.071 -0.8474 -2.0891  0.0084
10646SOL     OW32515   7.256   1.663   8.191  0.0436  0.2478 -0.0665
10646SOL    HW132516   7.336   1.715   8.191 -0.4993  1.1689 -1.6366
10646SOL    HW232517   7.282   1.579   8.154 -0.0046  1.1723 -2.3873
10647SOL     OW32518   1.813   4.947   2.977 -0.0969 -1.0407  0.3179
10647SOL    HW132519   1.843   5.018   2.919  0.3211 -1.2992  0.2152
10647SOL    HW232520   1.719   4.960   2.983 -0.0496 -0.5828  0.1502
10648SOL     OW32521   7.982   9.359   3.417 -0.1941 -0.0575  0.1659
10648SOL    HW132522   7.998   9.422   3.487 -1.1081 -0.8941  1.1571
10648SOL    HW232523   7.887   9.348   3.415 -0.4118  1.6221 -2.7495
10649SOL     OW32524   9.902   5.240   6.136  0.5441 -0.4451  0.1646
10649SOL    HW132525   9.948   5.307   6.086  3.3796 -2.6003 -0.3605
10649SOL    HW232526   9.897   5.276   6.225  1.2779  0.7836 -0.2675
10650SOL     OW32527   1.795   8.255   7.842 -0.1768  0.7978 -0.5043
10650SOL    HW132528   1.733   8.217   7.780  0.5468  1.3810 -1.6306
10650SOL    HW232529   1.747   8.261   7.924 -0.5373 -1.8714 -0.4440
10651SOL     OW32530   3.014   3.320   5.295  0.3332  0.0666  0.2239
10651SOL    HW132531   3.033   3.379   5.369 -0.3767  1.2115 -0.4760
10651SOL    HW232532   2.918   3.317   5.291  0.3644 -0.7426 -0.0716
10652SOL     OW32533   7.243   0.439   7.720 -0.7976  0.3509  0.1115
10652SOL    HW132534   7.207   0.484   7.644 -0.1199 -0.3237 -0.6342
10652SOL    HW232535   7.296   0.505   7.764  2.3107 -0.1912 -2.3788
10653SOL     OW32536   0.333   4.319   9.362  0.8910  0.0129 -0.0282
10653SOL    HW132537   0.335   4.361   9.448 -0.8067 -0.9982  0.5432
10653SOL    HW232538   0.241   4.316   9.338  1.2524 -0.5541 -1.4722
10654SOL     OW32539   9.596   6.053   1.907  0.1708 -0.1516 -0.3088
10654SOL    HW132540   9.675   6.019   1.868  0.9142  0.1332  0.8894
10654SOL    HW232541   9.579   5.996   1.982 -0.5797 -0.0275 -0.3752
10655SOL     OW32542   9.820   1.881   9.469  0.5022  0.0345  0.4176
10655SOL    HW132543   9.783   1.879   9.381 -1.8146 -1.4245  1.3515
10655SOL    HW232544   9.901   1.932   9.460 -0.1547  0.7209 -2.3381
10656SOL     OW32545   0.320   1.549   4.577 -0.6715 -0.0309 -0.1047
10656SOL    HW132546   0.348   1.461   4.602  0.6255  0.0480 -1.1313
10656SOL    HW232547   0.301   1.542   4.484 -0.2662  0.8330 -0.2607
10657SOL     OW32548   6.438   5.957   0.168  0.1974 -0.2063  0.1716
10657SOL    HW132549   6.503   5.912   0.222 -0.1984 -0.8691  0.1050
10657SOL    HW232550   6.387   5.887   0.127 -0.3092  0.2990 -0.0863
10658SOL     OW32551   3.925   5.596   4.590 -0.4246 -0.1770 -0.2542
10658SOL    HW132552   3.970   5.650   4.525  0.4697 -0.2687  0.2817
10658SOL    HW232553   3.984   5.523   4.606  0.3159  0.8249  2.1079
10659SOL     OW32554   9.049   6.240   0.143  0.5112  0.0886  0.1220
10659SOL    HW132555   9.029   6.234   0.049 -1.0286 -0.3773  0.4403
10659SOL    HW232556   9.116   6.308   0.149  0.1038  0.6501 -1.2551
10660SOL     OW32557   7.696   1.807   0.183 -0.0665  0.2858  0.2223
10660SOL    HW132558   7.703   1.780   0.091 -0.5004 -1.9896  0.7902
10660SOL    HW232559   7.605   1.835   0.192 -0.0595  0.3875 -0.0275
10661SOL     OW32560   7.777   7.878   0.531  0.5003  0.5548  0.2037
10661SOL    HW132561   7.841   7.823   0.577  0.7514 -0.1764 -0.9701
10661SOL    HW232562   7.697   7.870   0.583  0.7208 -0.4105  0.4188
10662SOL     OW32563   8.257   4.748   3.191 -0.4165 -0.2717 -0.1526
10662SOL    HW132564   8.312   4.670   3.193  0.0212  0.0455  0.5184
10662SOL    HW232565   8.318   4.819   3.173 -0.1906  0.3877  2.7513
10663SOL     OW32566   3.663   5.676   4.391 -0.1986 -0.4860  0.0918
10663SOL    HW132567   3.677   5.607   4.456 -0.5467 -1.3692 -0.7623
10663SOL    HW232568   3.741   5.731   4.397  0.7020 -1.7025 -0.1423
10664SOL     OW32569   0.773   9.509   8.111 -0.2649  0.1221 -0.4261
10664SOL    HW132570   0.811   9.457   8.181  0.5215  0.6954 -0.4095
10664SOL    HW232571   0.763   9.597   8.148  0.0489  0.4020 -0.9731
10665SOL     OW32572   1.593   1.092   6.582 -0.1679 -0.3703  0.4816
10665SOL    HW132573   1.653   1.018   6.590  0.7355 -0.1263 -2.7085
10665SOL    HW232574   1.637   1.152   6.522 -2.6120  0.8771 -0.2046
10666SOL     OW32575   6.519   7.493   9.403 -0.0999  0.0080  0.1286
10666SOL    HW132576   6.584   7.452   9.461 -0.1531 -0.2787 -0.0131
10666SOL    HW232577   6.485   7.567   9.454 -0.9419 -0.8942  0.9052
10667SOL     OW32578   9.609   1.507   6.294 -0.0231 -0.2364  0.2856
10667SOL    HW132579   9.654   1.449   6.356  0.6888 -0.0868 -0.0798
10667SOL    HW232580   9.648   1.593   6.309  1.1575 -0.4565 -1.3016
10668SOL     OW32581   2.518   2.700   5.088  0.1678  0.7550  0.8568
10668SOL    HW132582   2.611   2.705   5.065  0.0152  1.8067  0.4400
10668SOL    HW232583   2.517   2.689   5.183  0.7089  0.6606  0.8548
10669SOL     OW32584   7.477   4.498   4.930  0.4483  0.0009 -0.4015
10669SOL    HW132585   7.444   4.448   4.856  0.3191 -0.6493  0.0850
10669SOL    HW232586   7.439   4.455   5.007  1.3594  0.0574  0.0961
10670SOL     OW32587   7.740   0.306   1.345 -0.3611  0.3979  0.9329
10670SOL    HW132588   7.667   0.364   1.369 -2.1202 -0.4676 -1.7726
10670SOL    HW232589   7.796   0.360   1.289  0.0518  0.5350  1.4779
10671SOL     OW32590   2.302   2.947   6.503 -0.0369 -0.2392 -0.0808
10671SOL    HW132591   2.371   2.890   6.468  1.2965  0.1420  1.7602
10671SOL    HW232592   2.261   2.896   6.573 -0.3518  0.2176  0.0737
10672SOL     OW32593   9.677   6.498   3.085  0.1669 -0.0191 -0.5110
10672SOL    HW132594   9.649   6.407   3.075  0.4530 -0.3236  1.1435
10672SOL    HW232595   9.730   6.516   3.007  0.4055 -1.3855 -0.6842
10673SOL     OW32596   0.109   1.853   6.671  0.1723 -0.1324 -0.5473
10673SOL    HW132597   0.113   1.917   6.742  2.8579 -0.1602 -0.5538
10673SOL    HW232598   0.119   1.904   6.591 -1.3522 -0.2524 -0.8435
10674SOL     OW32599   2.734   9.377   0.746 -0.5420 -0.1510 -0.4437
10674SOL    HW132600   2.742   9.398   0.839 -0.6120  0.7037 -0.6238
10674SOL    HW232601   2.640   9.385   0.727 -0.4942 -0.0577 -0.6463
10675SOL     OW32602   5.947   6.009   7.549  0.5433 -0.4487  0.2140
10675SOL    HW132603   5.915   5.970   7.631  2.1219 -0.3342  0.9282
10675SOL    HW232604   5.990   5.937   7.504  1.1827 -0.1369  0.3115
10676SOL     OW32605   6.767   5.519   6.864 -0.0335  1.1208  0.1210
10676SOL    HW132606   6.832   5.563   6.809 -0.9160  4.0757  1.2792
10676SOL    HW232607   6.811   5.439   6.893  1.3397  0.7072 -2.7929
10677SOL     OW32608   3.655   5.323   7.077  0.5048  0.6540 -0.6034
10677SOL    HW132609   3.740   5.290   7.107 -0.0805  0.0215  0.4440
10677SOL    HW232610   3.635   5.395   7.136  1.0353  1.8758 -1.8741
10678SOL     OW32611   3.730   9.736   3.022  0.0869  0.7313 -0.7507
10678SOL    HW132612   3.751   9.828   3.040  1.7270  0.5581 -1.5858
10678SOL    HW232613   3.814   9.691   3.027 -0.5442 -0.5677 -1.3449
10679SOL     OW32614   5.210   0.226   1.687  0.4092 -0.0504  0.4357
10679SOL    HW132615   5.199   0.137   1.721  1.1720  0.2392  1.4898
10679SOL    HW232616   5.131   0.272   1.715  1.1763  0.2757  2.2109
10680SOL     OW32617   1.155   5.761   6.839  0.8491 -0.4391 -0.1430
10680SOL    HW132618   1.137   5.670   6.863 -0.3265 -0.2323 -0.1803
10680SOL    HW232619   1.193   5.799   6.919  0.4007 -0.7082  0.2062
10681SOL     OW32620   3.683   8.950   6.779 -0.2216  0.3179  0.0148
10681SOL    HW132621   3.666   9.036   6.818  0.0792  0.9266 -1.1403
10681SOL    HW232622   3.609   8.936   6.719 -0.0619 -0.0370 -0.1015
10682SOL     OW32623   6.364   9.110   6.535 -0.4624 -0.5065 -0.2064
10682SOL    HW132624   6.292   9.077   6.481  0.1971 -0.2154 -1.2945
10682SOL    HW232625   6.392   9.190   6.491  0.3501 -0.4716  0.3590
10683SOL     OW32626   7.977   5.160   6.857  0.3527 -0.4518 -0.1772
10683SOL    HW132627   7.976   5.158   6.761 -0.6916 -2.5986 -0.1880
10683SOL    HW232628   7.946   5.248   6.879 -0.6626 -0.3348 -1.8331
10684SOL     OW32629   1.832   3.750   8.013  0.1074 -0.0322 -0.6546
10684SOL    HW132630   1.888   3.828   8.007 -1.4511  1.1824 -0.1221
10684SOL    HW232631   1.836   3.724   8.105  1.0329 -0.9400 -0.9278
10685SOL     OW32632   8.678   8.733   0.515 -0.2112  0.0547  0.6086
10685SOL    HW132633   8.695   8.736   0.610 -1.2992 -1.0520  0.8608
10685SOL    HW232634   8.591   8.771   0.505  0.1016  0.6074 -0.0075
10686SOL     OW32635   6.017   8.378   8.242 -0.4880  0.6550  0.0496
10686SOL    HW132636   5.930   8.352   8.213 -1.4558  0.5162  2.8499
10686SOL    HW232637   6.004   8.459   8.291  0.6764 -0.1640  1.8206
10687SOL     OW32638   7.966   6.141   6.050  0.1977  0.1540 -0.2374
10687SOL    HW132639   7.959   6.132   5.955  1.6284  1.1860 -0.4681
10687SOL    HW232640   8.060   6.137   6.068  0.0591  1.4503  0.9595
10688SOL     OW32641   4.550   3.889   7.539 -0.0330 -0.7112 -0.4176
10688SOL    HW132642   4.595   3.930   7.466  0.7257 -0.5044  0.1576
10688SOL    HW232643   4.480   3.837   7.498 -0.7213  0.7640 -1.1921
10689SOL     OW32644   1.973   6.421   1.943  0.4500  0.2620  0.1548
10689SOL    HW132645   1.964   6.410   1.848 -1.5666  2.4780 -0.0044
10689SOL    HW232646   1.929   6.345   1.980  0.8291 -0.3807 -0.6715
10690SOL     OW32647   8.069   9.234   3.755  0.0571  0.1606  0.0472
10690SOL    HW132648   8.055   9.205   3.665 -0.6643  1.1103 -0.1589
10690SOL    HW232649   7.992   9.203   3.802  0.1345  0.2071  0.2055
10691SOL     OW32650   1.141   0.737   8.423 -0.2204  0.1168 -0.4385
10691SOL    HW132651   1.083   0.776   8.357  0.3110  1.4290 -0.1600
10691SOL    HW232652   1.085   0.720   8.498 -0.1763  1.9070  0.0392
10692SOL     OW32653   0.901   0.024   6.724  0.2630 -0.4175 -0.4762
10692SOL    HW132654   0.875   0.006   6.633  0.4330  0.1311 -0.6356
10692SOL    HW232655   0.831  -0.014   6.776 -0.1897 -0.1284 -0.8629
10693SOL     OW32656   3.875   7.601   1.578 -0.1660  0.2341 -0.4957
10693SOL    HW132657   3.967   7.584   1.597  0.3103  1.2635 -1.7008
10693SOL    HW232658   3.846   7.525   1.528  0.9127  1.2008 -2.7129
10694SOL     OW32659   2.769   5.588   7.175 -0.7883 -0.0405 -0.0547
10694SOL    HW132660   2.701   5.618   7.235  0.1150 -0.3010  1.1514
10694SOL    HW232661   2.774   5.494   7.190  0.5824  0.1287  0.7103
10695SOL     OW32662   3.740   1.898   7.925  0.6966  0.1337  0.1062
10695SOL    HW132663   3.658   1.886   7.972  0.8678  0.8143  0.5818
10695SOL    HW232664   3.781   1.811   7.926 -0.8226 -0.6849 -1.7048
10696SOL     OW32665   2.986   2.257   6.625 -0.2184 -0.0274  0.3674
10696SOL    HW132666   2.941   2.332   6.585 -0.4871 -1.1841 -1.6275
10696SOL    HW232667   3.066   2.246   6.572 -0.3208 -1.3006  0.4452
10697SOL     OW32668   8.694   2.477   2.108 -0.0945  0.0742  0.0178
10697SOL    HW132669   8.785   2.454   2.089 -0.1146 -0.4010  0.4740
10697SOL    HW232670   8.645   2.396   2.096 -0.3125  0.0946  0.7014
10698SOL     OW32671   6.858   0.301   1.518  0.1597 -0.0931 -0.4132
10698SOL    HW132672   6.873   0.361   1.591 -0.2882 -0.7402  0.2263
10698SOL    HW232673   6.924   0.233   1.529 -0.6270 -0.7951  0.0590
10699SOL     OW32674   8.920   4.630   3.303  0.1467 -0.5056  0.4432
10699SOL    HW132675   8.838   4.586   3.324  1.3023 -1.7948  2.5629
10699SOL    HW232676   8.988   4.571   3.334  1.8163  1.9344  1.7730
10700SOL     OW32677   3.222   9.440   5.903  0.1524  0.0394  0.4805
10700SOL    HW132678   3.264   9.417   5.986  1.5936 -0.2828 -0.3200
10700SOL    HW232679   3.293   9.447   5.840 -0.9780 -0.4017 -0.9118
10701SOL     OW32680   5.184   2.898   0.250 -0.3789  0.1996 -0.1139
10701SOL    HW132681   5.122   2.825   0.242 -0.8753  0.6254 -0.2228
10701SOL    HW232682   5.133   2.975   0.224  0.7066  0.3268 -2.0864
10702SOL     OW32683   6.303   4.871   3.882  0.3012  0.7709 -0.0290
10702SOL    HW132684   6.388   4.880   3.839  0.3047  1.2418  0.0786
10702SOL    HW232685   6.274   4.782   3.858 -0.8182  1.8412 -3.1074
10703SOL     OW32686   9.564   7.326   5.839  0.4987  0.0272  0.1918
10703SOL    HW132687   9.518   7.242   5.843  2.6079 -1.1799  0.7068
10703SOL    HW232688   9.521   7.373   5.768 -0.1134 -1.9102 -0.8047
10704SOL     OW32689   2.678   5.426   5.047  0.1722  0.3523 -0.3525
10704SOL    HW132690   2.741   5.497   5.062 -1.7486  1.8906  0.8600
10704SOL    HW232691   2.686   5.370   5.124  0.3422  0.3096 -0.4000
10705SOL     OW32692   1.681   3.346   0.321 -0.3320  0.0327 -0.6045
10705SOL    HW132693   1.700   3.439   0.304 -2.2731  0.5128 -0.4213
10705SOL    HW232694   1.649   3.344   0.411 -0.4577 -0.8073 -0.6633
10706SOL     OW32695   6.450   0.055   7.539  0.0235 -0.3458  0.7433
10706SOL    HW132696   6.390   0.040   7.466 -0.7526  0.9932  1.0613
10706SOL    HW232697   6.537   0.036   7.503 -0.3065  0.5927 -0.6384
10707SOL     OW32698   3.452   5.739   9.571  0.4164 -0.1358 -0.1319
10707SOL    HW132699   3.462   5.652   9.533  3.0960 -0.0137  0.1099
10707SOL    HW232700   3.463   5.725   9.665 -0.9001  0.2762  0.1089
10708SOL     OW32701   5.070   3.519   5.725  0.3797  0.3767 -0.7337
10708SOL    HW132702   5.063   3.485   5.814 -0.0561 -0.5244 -1.0975
10708SOL    HW232703   5.158   3.493   5.696  0.4752  0.5627 -0.6114
10709SOL     OW32704   1.950   0.752   7.794  0.5453  0.4608  0.4189
10709SOL    HW132705   1.861   0.767   7.764  0.6776 -0.0166 -0.2324
10709SOL    HW232706   1.940   0.712   7.880  0.1325  0.3765  0.3338
10710SOL     OW32707   2.583   2.642   0.704 -0.1209  0.5454  0.2592
10710SOL    HW132708   2.630   2.564   0.675  0.1357  0.3606  1.1492
10710SOL    HW232709   2.630   2.715   0.665 -1.3543  0.2375 -2.0260
10711SOL     OW32710   0.390   9.360   7.307 -0.0177  0.3290  0.6528
10711SOL    HW132711   0.390   9.417   7.383  0.4887 -1.1690  1.8314
10711SOL    HW232712   0.362   9.416   7.235  1.5904  2.3491  1.4976
10712SOL     OW32713   2.992   2.142   8.185 -0.7082 -0.0899 -0.3621
10712SOL    HW132714   2.969   2.063   8.136  0.0123  0.1056 -1.0446
10712SOL    HW232715   2.990   2.212   8.120 -1.2448  0.4466  0.2200
10713SOL     OW32716   9.138   9.017   9.043 -0.0260  0.3413 -0.0228
10713SOL    HW132717   9.113   9.104   9.012 -0.7527  0.4371  0.7841
10713SOL    HW232718   9.084   9.004   9.121 -0.0134 -0.8891 -0.2139
10714SOL     OW32719   3.126   3.001   9.924  0.0950  0.3017 -0.2484
10714SOL    HW132720   3.120   3.094   9.902  0.8059  0.5770  0.6669
10714SOL    HW232721   3.211   2.992   9.966  0.6551 -1.0543 -1.5989
10715SOL     OW32722   7.293   1.176   2.186 -0.0751 -0.0868  0.0458
10715SOL    HW132723   7.344   1.117   2.242  0.6321 -0.3166 -0.8240
10715SOL    HW232724   7.202   1.156   2.209  0.1464 -1.3735 -0.0708
10716SOL     OW32725   4.588   4.304   1.991 -0.6844  0.2491  0.0420
10716SOL    HW132726   4.666   4.261   1.957 -0.3577 -0.0904  1.1723
10716SOL    HW232727   4.534   4.320   1.914 -0.9453 -2.4176 -0.4158
10717SOL     OW32728   0.489   5.538   1.447  0.4204 -0.0333  0.3385
10717SOL    HW132729   0.399   5.555   1.475  0.2762 -0.5961  0.2295
10717SOL    HW232730   0.481   5.512   1.356  0.6576 -0.4027  0.4204
10718SOL     OW32731   3.398   1.616   8.172 -0.5846  0.0166 -0.6387
10718SOL    HW132732   3.400   1.688   8.235  1.4919  1.6243 -2.3699
10718SOL    HW232733   3.426   1.539   8.222 -0.2797  0.9618  0.6831
10719SOL     OW32734   8.391   2.506   4.709  0.5348  0.1283 -0.2551
10719SOL    HW132735   8.430   2.556   4.638 -0.0521 -0.9351 -1.3586
10719SOL    HW232736   8.432   2.420   4.702 -0.7732 -0.4967 -0.3869
10720SOL     OW32737   9.596   9.874   7.908 -0.2950 -0.1767  0.6380
10720SOL    HW132738   9.686   9.861   7.879 -0.1463  0.3116  0.8642
10720SOL    HW232739   9.573   9.793   7.954 -0.9524 -1.4664 -1.8183
10721SOL     OW32740   6.451   8.728   9.118  0.5198  0.0723 -0.2769
10721SOL    HW132741   6.523   8.784   9.088  0.1945  0.0897 -1.0544
10721SOL    HW232742   6.426   8.764   9.202 -0.0427  1.4384 -0.9986
10722SOL     OW32743   8.156   4.117   2.818 -0.2403  0.1290 -0.2379
10722SOL    HW132744   8.168   4.210   2.837 -2.6096  0.6389 -0.9042
10722SOL    HW232745   8.091   4.088   2.882 -1.7941 -0.2695 -1.9330
10723SOL     OW32746   4.077   3.200   6.430 -0.0509  0.0481 -0.1368
10723SOL    HW132747   4.034   3.115   6.422 -0.3008  0.2851 -1.6344
10723SOL    HW232748   4.020   3.261   6.382 -0.6075  1.3755  2.0355
10724SOL     OW32749   2.434   1.540   4.539  0.0329  0.2899  0.4010
10724SOL    HW132750   2.505   1.477   4.544  2.0506  2.3487 -0.4601
10724SOL    HW232751   2.425   1.574   4.628  0.2121  0.1025  0.4902
10725SOL     OW32752   1.856   4.820   1.236  0.2036 -0.9312  0.2632
10725SOL    HW132753   1.870   4.730   1.266 -1.7612 -0.6433  2.2696
10725SOL    HW232754   1.922   4.871   1.284  2.9836 -1.4329 -2.6551
10726SOL     OW32755   0.731   6.730   2.409  0.2677  0.4523  0.4655
10726SOL    HW132756   0.741   6.635   2.420 -0.6618  0.4652  1.6040
10726SOL    HW232757   0.695   6.740   2.320 -0.1549 -0.3015  0.5442
10727SOL     OW32758   0.510   0.090   8.603  0.1398  0.5533  0.0483
10727SOL    HW132759   0.478   0.136   8.526  0.5729  1.0122  0.1357
10727SOL    HW232760   0.603   0.075   8.586 -0.1613 -1.0963 -0.3648
10728SOL     OW32761   5.720   6.207   5.721  0.4049 -0.1793  0.8675
10728SOL    HW132762   5.636   6.178   5.684  0.6916  0.6302 -0.5040
10728SOL    HW232763   5.701   6.228   5.812 -1.0395  0.5807  0.4181
10729SOL     OW32764   5.179   3.571   9.879  0.0302  0.9341 -0.0200
10729SOL    HW132765   5.164   3.476   9.875 -0.3959  0.9863  0.3186
10729SOL    HW232766   5.143   3.604   9.797  2.6132  0.4929 -1.4436
10730SOL     OW32767   5.125   3.664   6.957  0.1623 -0.1277  0.0989
10730SOL    HW132768   5.135   3.594   7.022  0.1393  1.2456  1.6535
10730SOL    HW232769   5.142   3.622   6.873  1.0810 -1.7838  1.0680
10731SOL     OW32770   8.522   2.724   3.318 -0.0826 -0.2706  0.0445
10731SOL    HW132771   8.428   2.711   3.311 -0.1540  0.1526  0.2108
10731SOL    HW232772   8.541   2.798   3.261 -0.0699  0.5720  1.1245
10732SOL     OW32773   1.086   1.853   5.464  0.2625  0.0840 -0.6234
10732SOL    HW132774   1.028   1.786   5.427  2.0780 -0.7014 -2.2041
10732SOL    HW232775   1.045   1.936   5.440 -0.4191 -0.4498 -1.3756
10733SOL     OW32776   6.380   0.305   9.205 -0.4069 -0.4341  0.5436
10733SOL    HW132777   6.370   0.209   9.201 -0.6839 -0.3701 -0.6484
10733SOL    HW232778   6.335   0.330   9.285 -0.2812 -1.3124  0.9008
10734SOL     OW32779   4.715   4.399   3.942  0.3078 -0.1144 -0.6989
10734SOL    HW132780   4.798   4.420   3.898 -0.6081  1.6594 -1.6788
10734SOL    HW232781   4.657   4.371   3.871  0.0239 -1.3499 -0.0142
10735SOL     OW32782   2.435   4.508   0.667  0.3826 -0.6459  0.2307
10735SOL    HW132783   2.379   4.473   0.736  0.4004  0.9712  1.1052
10735SOL    HW232784   2.385   4.495   0.587 -2.2032  2.4249  1.1714
10736SOL     OW32785   7.923   8.493   9.265  0.1678  0.0952 -0.0717
10736SOL    HW132786   7.926   8.399   9.246 -1.9055  0.0868 -0.6981
10736SOL    HW232787   7.869   8.499   9.344 -1.8773  0.8397 -1.4415
10737SOL     OW32788   9.775   1.692   4.494 -0.0511 -0.0530 -0.0115
10737SOL    HW132789   9.791   1.744   4.416 -0.6888  1.4511  0.8080
10737SOL    HW232790   9.682   1.669   4.489 -0.2313  0.4940  0.5123
10738SOL     OW32791   1.345   7.913   2.941  0.3122  0.3579 -0.1853
10738SOL    HW132792   1.265   7.896   2.992 -0.1929  1.7756 -0.4505
10738SOL    HW232793   1.355   7.835   2.886  0.9642 -1.2982  2.1233
10739SOL     OW32794   6.824   5.482   8.390  0.6277 -0.0199  0.4339
10739SOL    HW132795   6.839   5.391   8.417 -1.5038 -1.1339 -1.7213
10739SOL    HW232796   6.789   5.525   8.468  0.3851 -1.4254  1.1297
10740SOL     OW32797   1.133   9.759   7.554 -0.4010  0.2769  0.4782
10740SOL    HW132798   1.128   9.778   7.460 -0.5989  0.4597  0.5256
10740SOL    HW232799   1.226   9.740   7.569 -0.6344 -1.4014 -0.0654
10741SOL     OW32800   7.691   4.081   2.524  0.1083  0.0056 -0.3248
10741SOL    HW132801   7.754   4.024   2.566  1.3839  1.4843 -0.1259
10741SOL    HW232802   7.667   4.035   2.443  2.3027 -0.1306 -0.9638
10742SOL     OW32803   8.120   1.466   2.836 -0.7746 -0.1221 -0.1830
10742SOL    HW132804   8.195   1.440   2.782 -1.7537 -0.1935 -1.5546
10742SOL    HW232805   8.159   1.504   2.914  0.6968  0.0828 -0.9860
10743SOL     OW32806   7.016   3.722   4.712 -0.1235 -0.1600 -0.0035
10743SOL    HW132807   6.964   3.794   4.749  0.5199 -0.5179  1.7137
10743SOL    HW232808   6.954   3.672   4.659 -0.5924  1.6102 -1.1979
10744SOL     OW32809   3.717   7.812   5.366  0.7212  0.2320  0.2903
10744SOL    HW132810   3.712   7.797   5.460  0.8379 -0.1542  0.2360
10744SOL    HW232811   3.629   7.795   5.333  1.1941 -1.9517  0.0018
10745SOL     OW32812   4.110   5.501   8.642 -0.1504 -0.3346  0.3627
10745SOL    HW132813   4.107   5.559   8.567  1.9962 -0.8267 -0.1513
10745SOL    HW232814   4.098   5.413   8.606 -0.6741 -0.4587  0.8088
10746SOL     OW32815   5.599   3.794   0.180 -0.3326  0.1811  0.0248
10746SOL    HW132816   5.690   3.772   0.164 -0.0430  1.1895  0.2609
10746SOL    HW232817   5.550   3.733   0.124  0.4176 -1.3416  0.9664
10747SOL     OW32818   2.956   5.204   8.250  0.3679  0.0893 -0.1053
10747SOL    HW132819   2.944   5.256   8.329 -1.2193  1.7186 -1.3321
10747SOL    HW232820   2.904   5.125   8.264 -0.1289  0.4989  0.3584
10748SOL     OW32821   5.627   5.308   0.664  0.1400  0.3655 -0.4903
10748SOL    HW132822   5.680   5.383   0.639 -0.2442  0.9201  0.2893
10748SOL    HW232823   5.682   5.259   0.726  0.8094 -0.6085 -1.8078
10749SOL     OW32824   0.212   4.287   3.579 -0.2691  1.1029 -0.3910
10749SOL    HW132825   0.138   4.324   3.628 -1.8098 -0.2523 -1.5917
10749SOL    HW232826   0.246   4.360   3.528 -1.2304  1.5906 -0.3577
10750SOL     OW32827   1.409   5.872   0.472  0.5394  0.7182 -0.1186
10750SOL    HW132828   1.414   5.915   0.557  1.1185  1.2267 -0.3989
10750SOL    HW232829   1.329   5.907   0.432  0.7068  1.1142 -0.1137
10751SOL     OW32830   8.554   0.785   1.238 -0.1809  0.3737  0.6385
10751SOL    HW132831   8.565   0.870   1.281 -0.6007  0.8909 -0.2364
10751SOL    HW232832   8.643   0.751   1.229 -0.0214  0.6495  1.1309
10752SOL     OW32833   8.145   8.480   3.430  0.4304  0.3032 -0.2584
10752SOL    HW132834   8.240   8.487   3.426  0.3614  1.1271 -0.6288
10752SOL    HW232835   8.129   8.390   3.459  1.3213  0.3055  0.2687
10753SOL     OW32836   5.112   6.670   3.166 -0.4606  0.0437  0.7325
10753SOL    HW132837   5.176   6.638   3.103 -0.4910  0.9945  0.1980
10753SOL    HW232838   5.068   6.591   3.197 -1.3301 -0.3927 -1.3975
10754SOL     OW32839   1.083   8.118   9.313  0.2438  0.0041 -0.3633
10754SOL    HW132840   1.130   8.101   9.231 -0.6038 -0.8370 -0.6912
10754SOL    HW232841   1.036   8.036   9.331  1.3919 -0.2688  1.6316
10755SOL     OW32842   0.908   9.766   9.113  0.3225 -0.1061  0.2105
10755SOL    HW132843   0.843   9.811   9.167 -0.2985  0.0126 -0.6328
10755SOL    HW232844   0.895   9.673   9.133  1.7813  0.0311  2.1576
10756SOL     OW32845   6.590   1.245   0.246 -0.4039  0.5284 -0.5633
10756SOL    HW132846   6.644   1.316   0.210 -0.2747  0.4412 -0.5429
10756SOL    HW232847   6.507   1.287   0.267 -0.0269  0.8792  0.3020
10757SOL     OW32848   3.441   8.609   9.786 -0.2803  0.5733 -0.0579
10757SOL    HW132849   3.499   8.657   9.845  0.4892 -0.0276 -0.3176
10757SOL    HW232850   3.364   8.588   9.840 -0.7280  2.2245  0.0188
10758SOL     OW32851   8.369   3.544   8.851  0.2608  0.4760  0.3005
10758SOL    HW132852   8.300   3.568   8.913 -1.4225 -2.0568 -0.4800
10758SOL    HW232853   8.442   3.516   8.907 -0.5065  0.0953  1.1455
10759SOL     OW32854   7.219   4.420   9.396  0.1401  0.3286 -0.3311
10759SOL    HW132855   7.167   4.366   9.454 -0.3818  0.9039 -0.2588
10759SOL    HW232856   7.280   4.358   9.355 -0.0988 -0.2260  0.1308
10760SOL     OW32857   1.731   1.881   4.057  0.0821  0.2725  0.5537
10760SOL    HW132858   1.727   1.855   4.149 -0.1267  0.1305  0.5043
10760SOL    HW232859   1.815   1.927   4.049  0.2588 -0.0149  0.7360
10761SOL     OW32860   5.243   4.868   2.910  0.1499 -0.1948  0.2274
10761SOL    HW132861   5.280   4.839   2.826 -0.6279  0.3808 -0.3334
10761SOL    HW232862   5.318   4.898   2.960  0.4591  1.0621 -0.9309
10762SOL     OW32863   2.161   3.146   5.577 -0.0264 -0.7330 -0.2577
10762SOL    HW132864   2.202   3.201   5.510 -2.5919 -1.4249 -2.5512
10762SOL    HW232865   2.114   3.208   5.633  2.2469 -0.1379  1.1521
10763SOL     OW32866   4.200   9.540   8.156 -0.7170  0.4532 -0.5438
10763SOL    HW132867   4.111   9.572   8.171 -1.4205 -1.9886  1.1199
10763SOL    HW232868   4.196   9.499   8.069 -0.4167  2.5733 -1.6470
10764SOL     OW32869   1.352   1.312   7.797 -0.5588 -0.2590 -0.4814
10764SOL    HW132870   1.293   1.374   7.753 -0.0816  0.3678 -0.2504
10764SOL    HW232871   1.439   1.338   7.767 -0.3458 -0.7319 -0.2641
10765SOL     OW32872   2.907   7.252   9.800 -0.6356  0.6533  0.3069
10765SOL    HW132873   2.974   7.224   9.738 -2.5701 -2.4220 -0.5783
10765SOL    HW232874   2.844   7.301   9.746 -1.7272 -1.0344 -0.0271
10766SOL     OW32875   8.051   5.909   5.647  0.5427  0.7126  0.0911
10766SOL    HW132876   8.009   5.823   5.646 -0.5951  1.2487 -1.2221
10766SOL    HW232877   8.111   5.905   5.722  0.6732 -1.2774 -0.0526
10767SOL     OW32878   0.299   9.359   6.681 -0.3564  0.3658  0.1137
10767SOL    HW132879   0.213   9.375   6.721 -1.0251  0.3895 -1.2722
10767SOL    HW232880   0.314   9.265   6.692 -1.4113  0.0129 -1.2031
10768SOL     OW32881   4.191   1.232   9.058  0.0497 -0.3241 -0.3558
10768SOL    HW132882   4.271   1.191   9.090  0.8157 -0.6018 -2.4422
10768SOL    HW232883   4.131   1.158   9.045  0.7964 -0.6495 -2.3484
10769SOL     OW32884   3.289   4.159   4.052  0.6530  0.3747 -0.0652
10769SOL    HW132885   3.239   4.199   4.124 -0.4167  0.0609 -0.6040
10769SOL    HW232886   3.345   4.230   4.020 -0.6941  1.2636 -0.5379
10770SOL     OW32887   0.770   2.574   1.233  0.4104  0.3457 -0.0990
10770SOL    HW132888   0.860   2.547   1.249  0.8996  1.6698 -0.4937
10770SOL    HW232889   0.746   2.531   1.151  0.5159 -0.3742  0.2403
10771SOL     OW32890   0.566   2.177   7.196  0.7746 -0.2975  0.2565
10771SOL    HW132891   0.554   2.177   7.101  3.1241 -1.0223 -0.0965
10771SOL    HW232892   0.529   2.094   7.225  0.2761 -0.1886 -0.0642
10772SOL     OW32893   4.302   3.321   8.106 -0.3704  0.4680  0.1688
10772SOL    HW132894   4.262   3.246   8.061 -1.4689  1.1944 -0.1196
10772SOL    HW232895   4.358   3.361   8.039  0.4042 -0.2315  0.3975
10773SOL     OW32896   2.056   2.823   0.571  0.0512  0.2892 -0.3133
10773SOL    HW132897   1.967   2.825   0.607  0.5596 -0.7399  1.1056
10773SOL    HW232898   2.112   2.810   0.648  1.4155  0.7349 -1.2047
10774SOL     OW32899   9.694   0.219   4.478 -0.0837 -0.0193 -0.0863
10774SOL    HW132900   9.617   0.163   4.481 -0.0567 -0.0344  0.6724
10774SOL    HW232901   9.766   0.162   4.507 -0.1040  0.4650  0.9571
10775SOL     OW32902   8.009   0.272   2.761 -0.1507  0.1673  0.2625
10775SOL    HW132903   7.942   0.320   2.811 -1.4503 -1.5287  0.2342
10775SOL    HW232904   7.977   0.182   2.759  0.7095 -0.1476 -2.2278
10776SOL     OW32905   4.239   0.713   9.117  0.0984  0.3909 -0.8169
10776SOL    HW132906   4.259   0.660   9.194  0.1508  1.1863 -0.2662
10776SOL    HW232907   4.196   0.653   9.056  3.0629 -1.1191 -1.5817
10777SOL     OW32908   4.375   0.169   6.462  0.2925 -0.6297  0.2863
10777SOL    HW132909   4.312   0.098   6.470  0.4234 -0.8530 -0.5716
10777SOL    HW232910   4.344   0.236   6.523 -1.5703 -0.1418 -1.1165
10778SOL     OW32911   1.047   9.275   3.337 -0.3822  0.1377 -0.4521
10778SOL    HW132912   0.974   9.334   3.360 -1.4619 -0.6031 -1.8582
10778SOL    HW232913   1.009   9.213   3.275  1.2132 -0.9087 -0.4263
10779SOL     OW32914   6.887   9.893   8.560 -0.0152 -0.1396  0.5920
10779SOL    HW132915   6.853   9.848   8.482 -1.1612  0.1489  0.9155
10779SOL    HW232916   6.832   9.863   8.632 -0.0723  0.9167  1.0073
10780SOL     OW32917   6.785   5.967   4.397 -0.1901  0.1021 -0.1088
10780SOL    HW132918   6.870   5.956   4.355 -0.2781  1.6770 -0.7565
10780SOL    HW232919   6.738   5.885   4.379  0.7380 -0.2966 -0.7866
10781SOL     OW32920   1.491   7.586   4.775 -0.2854  0.5412 -0.1108
10781SOL    HW132921   1.529   7.654   4.719 -1.1431  0.2375 -1.0668
10781SOL    HW232922   1.453   7.635   4.848  0.5492  0.9598  0.0619
10782SOL     OW32923   5.353   8.532   7.164 -0.0754  0.3910  0.1675
10782SOL    HW132924   5.397   8.603   7.118 -0.2974 -0.8985 -2.1660
10782SOL    HW232925   5.262   8.561   7.171  0.0885  0.8616  0.3574
10783SOL     OW32926   5.433   4.015   8.735 -0.1775  0.1136  0.4459
10783SOL    HW132927   5.441   4.109   8.723  1.8655  0.1386  1.6539
10783SOL    HW232928   5.392   3.984   8.654 -2.8722  2.2253  0.8701
10784SOL     OW32929   8.381   5.957   6.831 -0.2849 -0.3856  0.1520
10784SOL    HW132930   8.350   6.048   6.827 -1.5627 -0.7160  1.6500
10784SOL    HW232931   8.355   5.919   6.747 -1.2153  0.2063  0.1607
10785SOL     OW32932   7.302   0.276   6.394 -0.9820 -0.1599 -0.5530
10785SOL    HW132933   7.325   0.300   6.304  0.4989  0.9038  0.0734
10785SOL    HW232934   7.287   0.181   6.390  1.4138 -0.5698 -1.5148
10786SOL     OW32935   8.419   9.936   8.197  0.1279  0.0965  0.1586
10786SOL    HW132936   8.418  10.023   8.238  0.1765  0.7783 -1.2074
10786SOL    HW232937   8.391   9.953   8.107 -2.4237 -1.6928  0.5233
10787SOL     OW32938   6.049   6.087   4.430  0.1940 -0.5609 -0.2150
10787SOL    HW132939   6.119   6.099   4.366 -0.6227 -0.4062 -1.1249
10787SOL    HW232940   6.078   6.015   4.485  0.5803 -1.2545 -1.2859
10788SOL     OW32941   2.642   7.648   9.624  0.1482 -0.4089 -0.3599
10788SOL    HW132942   2.624   7.684   9.537  0.3893 -2.2004 -1.1931
10788SOL    HW232943   2.700   7.712   9.665 -0.8704  1.0186 -1.0690
10789SOL     OW32944   9.372   5.637   9.877  0.2071 -0.0736 -0.0825
10789SOL    HW132945   9.314   5.575   9.832  0.6971  0.1103 -0.9964
10789SOL    HW232946   9.355   5.623   9.970 -0.2002 -1.0863 -0.2965
10790SOL     OW32947   8.585   7.030   1.613 -0.2542  0.0639 -0.7159
10790SOL    HW132948   8.551   7.119   1.615  0.2645  0.2531 -0.0591
10790SOL    HW232949   8.554   6.990   1.694 -1.1266 -0.6063 -1.3611
10791SOL     OW32950   7.785   3.408   2.750 -0.3487  0.1109 -0.0657
10791SOL    HW132951   7.873   3.400   2.715  0.0262 -2.2006  1.2203
10791SOL    HW232952   7.783   3.494   2.791  0.5695  1.0741 -1.9214
10792SOL     OW32953   1.606   3.609   4.104 -0.0737 -0.2116  0.6031
10792SOL    HW132954   1.688   3.595   4.056 -1.4257  0.7191 -2.1506
10792SOL    HW232955   1.595   3.704   4.105 -1.6527 -0.3677 -0.0704
10793SOL     OW32956   6.650   3.820   4.645  0.0135  0.7053  0.0435
10793SOL    HW132957   6.640   3.810   4.550 -0.1795  1.2340  0.0050
10793SOL    HW232958   6.685   3.736   4.674 -0.3385  0.3849 -0.4378
10794SOL     OW32959   9.790   4.514   9.513  0.2776 -0.4377 -0.6255
10794SOL    HW132960   9.787   4.442   9.450  1.6110 -0.1443 -1.0605
10794SOL    HW232961   9.715   4.569   9.490 -1.2575 -2.0795  0.2460
10795SOL     OW32962   3.156   3.011   0.380 -0.0672  0.1100  0.2983
10795SOL    HW132963   3.217   3.051   0.442 -0.5325 -0.0192  0.8551
10795SOL    HW232964   3.069   3.029   0.418 -0.5675  2.3583 -1.6531
10796SOL     OW32965   6.210   7.094   4.188  0.3078 -0.0673  0.0546
10796SOL    HW132966   6.196   7.108   4.281 -0.2616  0.3247 -0.0850
10796SOL    HW232967   6.123   7.081   4.151  0.6513 -2.0011 -0.1668
10797SOL     OW32968   0.760   2.192   8.165  0.3398 -0.0219 -0.1812
10797SOL    HW132969   0.723   2.181   8.078  1.9142 -0.3879 -0.8403
10797SOL    HW232970   0.789   2.283   8.168  0.3559 -0.0296 -0.0699
10798SOL     OW32971   2.882   6.858   4.759  0.5911 -0.4148  0.0471
10798SOL    HW132972   2.919   6.774   4.785  1.5412  0.9505  3.7733
10798SOL    HW232973   2.958   6.913   4.739  0.1846  0.4510  0.8182
10799SOL     OW32974   8.380   7.463   8.960 -0.5251 -0.2542  0.2836
10799SOL    HW132975   8.287   7.443   8.948 -0.5542 -0.2452  0.4842
10799SOL    HW232976   8.403   7.418   9.041 -0.5632  0.4291  0.6793
10800SOL     OW32977   7.706   4.046   3.438 -0.4616  0.0575  0.5419
10800SOL    HW132978   7.740   3.977   3.495 -0.1989 -0.5968 -0.3948
10800SOL    HW232979   7.695   4.004   3.353  0.9871  1.5203 -0.4096
10801SOL     OW32980   4.411   3.412   3.627 -0.0564  0.3261  0.2093
10801SOL    HW132981   4.428   3.400   3.534  2.7528 -3.5590  0.9813
10801SOL    HW232982   4.357   3.338   3.652 -0.7094  1.2542  1.7147
10802SOL     OW32983   5.515   4.831   6.507  0.0513 -0.3748  0.4273
10802SOL    HW132984   5.569   4.798   6.578 -1.4100  0.9798  2.2736
10802SOL    HW232985   5.509   4.925   6.523  0.2237  0.0887 -1.9185
10803SOL     OW32986   2.236   1.026   8.887  0.0316  1.0276 -0.0925
10803SOL    HW132987   2.284   1.107   8.870  2.6202 -0.0286  1.5615
10803SOL    HW232988   2.242   1.014   8.981 -1.2313 -0.5579 -0.1828
10804SOL     OW32989   4.331   6.251   6.508 -0.2561  0.1921 -0.8771
10804SOL    HW132990   4.390   6.309   6.460 -0.1852  2.1391  1.4006
10804SOL    HW232991   4.246   6.263   6.466 -0.1136  1.5219 -0.8325
10805SOL     OW32992   7.442   4.513   4.361 -0.5226  0.1409  0.2520
10805SOL    HW132993   7.520   4.480   4.405 -0.7593 -0.4916  0.2197
10805SOL    HW232994   7.459   4.498   4.268 -0.8133 -0.3073  0.2675
10806SOL     OW32995   5.502   5.003   9.287 -0.4317  0.3665  0.1248
10806SOL    HW132996   5.496   4.963   9.200  0.2054 -1.6488  0.9491
10806SOL    HW232997   5.565   5.074   9.276 -0.7170  0.4570 -1.1533
10807SOL     OW32998   2.824   5.361   1.151  0.1164  0.0866  0.1360
10807SOL    HW132999   2.799   5.272   1.175  0.5008  0.0769  0.5132
10807SOL    HW233000   2.755   5.390   1.092 -1.8865  0.7711  2.6466
10808SOL     OW33001   8.333   7.800   8.198 -0.1351 -0.5885  0.2930
10808SOL    HW133002   8.337   7.761   8.285  2.5806 -1.2358 -0.0250
10808SOL    HW233003   8.334   7.894   8.213 -2.4842 -0.6148  0.9715
10809SOL     OW33004   4.648   3.595   2.746  0.0480  0.0001 -0.1125
10809SOL    HW133005   4.718   3.649   2.784  0.0528  0.7426 -1.1269
10809SOL    HW233006   4.572   3.610   2.802 -0.2209  1.8417 -0.9093
10810SOL     OW33007   0.751   6.685   3.253 -0.3420 -0.6026  0.3729
10810SOL    HW133008   0.837   6.719   3.278 -0.3997 -0.0647 -0.1468
10810SOL    HW233009   0.710   6.756   3.205 -0.9984 -0.9357  0.4265
10811SOL     OW33010   0.507   0.500   0.706  0.5904  0.4860  0.3611
10811SOL    HW133011   0.489   0.580   0.755 -2.9073 -0.0818  0.2791
10811SOL    HW233012   0.466   0.430   0.757 -0.9028 -0.4803 -1.9666
10812SOL     OW33013   9.449   8.477   3.208 -0.5007 -0.0287  0.1869
10812SOL    HW133014   9.492   8.476   3.123 -0.7957 -0.8640  0.0431
10812SOL    HW233015   9.463   8.390   3.244 -1.9062 -0.2705  0.2089
10813SOL     OW33016   8.063   3.727   5.119  0.5530 -0.1998 -0.4176
10813SOL    HW133017   8.027   3.815   5.110  2.9265  0.7552 -1.3411
10813SOL    HW233018   8.118   3.731   5.198  0.1261 -1.0823 -0.0538
10814SOL     OW33019   0.725   3.102   3.536  0.7279 -0.5385  0.6345
10814SOL    HW133020   0.816   3.091   3.507  0.5714 -1.1338  0.3480
10814SOL    HW233021   0.692   3.013   3.545 -0.4740 -0.3488 -1.3402
10815SOL     OW33022   9.080   3.678   1.653 -0.0551  0.2300 -0.2468
10815SOL    HW133023   8.997   3.632   1.657  0.9125 -1.6035  0.0331
10815SOL    HW233024   9.108   3.668   1.562 -1.0370  2.6212 -0.8819
10816SOL     OW33025   6.035   4.592   0.817  0.7980  0.0852 -0.4519
10816SOL    HW133026   6.010   4.575   0.726 -0.8409  2.3473 -0.5121
10816SOL    HW233027   6.097   4.664   0.812  1.5873 -0.5355  0.1717
10817SOL     OW33028   8.720   5.926   3.383  0.0844 -0.2473  0.0887
10817SOL    HW133029   8.752   5.957   3.468  2.1693 -0.5226 -0.5433
10817SOL    HW233030   8.653   5.990   3.358  1.8779  1.8677  0.3602
10818SOL     OW33031   2.885   5.956   9.817 -0.3836 -0.3459  0.3398
10818SOL    HW133032   2.925   6.037   9.848 -1.2898  0.0664  0.4754
10818SOL    HW233033   2.823   5.984   9.749  1.6810 -1.2314 -2.0726
10819SOL     OW33034   7.533   1.413   9.798 -0.0273  0.2111  0.6210
10819SOL    HW133035   7.473   1.342   9.776  0.2382  0.3761 -0.7570
10819SOL    HW233036   7.620   1.379   9.776  0.0502  1.1531 -0.7198
10820SOL     OW33037   0.270   0.544   1.344  0.3635  0.1368 -0.2676
10820SOL    HW133038   0.271   0.560   1.438 -1.4530 -1.4944  0.0867
10820SOL    HW233039   0.251   0.630   1.305 -2.5162  0.2599  1.1216
10821SOL     OW33040   0.288   3.229   9.609  0.2097 -0.0862 -0.4785
10821SOL    HW133041   0.282   3.135   9.624 -1.2223 -0.0216 -0.4250
10821SOL    HW233042   0.306   3.238   9.516  1.2416 -0.4156 -0.3177
10822SOL     OW33043   4.322   7.587   9.220  0.1510 -0.2343 -0.1285
10822SOL    HW133044   4.326   7.683   9.221 -3.1689  0.0279 -0.1295
10822SOL    HW233045   4.372   7.562   9.142 -0.2767  1.6370 -1.0660
10823SOL     OW33046   1.394   6.920   4.010  0.3294  0.2446 -0.1026
10823SOL    HW133047   1.454   6.989   4.037  1.0260 -1.0437  1.8984
10823SOL    HW233048   1.310   6.964   3.997  0.8818  1.5528  0.6059
10824SOL     OW33049   1.096   1.900   8.621  0.4419  0.1266 -0.2753
10824SOL    HW133050   1.072   1.889   8.713  1.5517  2.7874  0.4340
10824SOL    HW233051   1.031   1.849   8.573 -0.6974 -0.6400  1.9291
10825SOL     OW33052  -0.001   1.579   0.833  0.0011 -0.6592  0.1583
10825SOL    HW133053   0.014   1.601   0.925 -0.4430 -0.8356  0.2736
10825SOL    HW233054   0.073   1.522   0.809  1.4682  1.3104 -0.2915
10826SOL     OW33055   8.682   4.232   4.240  0.6388 -0.1817  0.1568
10826SOL    HW133056   8.592   4.245   4.209 -1.0694 -0.9114  4.1561
10826SOL    HW233057   8.734   4.226   4.160 -2.7997  0.5111 -2.3781
10827SOL     OW33058   6.767   1.175   6.265  0.1558  0.2734  0.2135
10827SOL    HW133059   6.758   1.269   6.280  1.6525  0.5877 -0.5944
10827SOL    HW233060   6.743   1.164   6.172 -1.7713 -0.4557  0.7534
10828SOL     OW33061   8.558   4.032   5.994 -0.8568 -0.5132  0.0514
10828SOL    HW133062   8.472   4.055   5.960 -1.8538 -0.7517  2.2561
10828SOL    HW233063   8.589   3.963   5.936 -1.7107  0.1913 -1.3180
10829SOL     OW33064   5.755   9.886   9.998  0.4001 -0.0779  0.9498
10829SOL    HW133065   5.798   9.880   9.913 -0.0322  0.4044  0.6902
10829SOL    HW233066   5.692   9.958   9.989 -0.5277 -0.8138  1.2876
10830SOL     OW33067   9.975   2.598   1.443 -0.0913  0.1469 -0.5269
10830SOL    HW133068   9.931   2.519   1.412  0.2148 -0.4514  0.5370
10830SOL    HW233069   9.903   2.655   1.471 -0.3007 -1.8549  3.7547
10831SOL     OW33070   1.482   1.188   3.504 -0.9557 -0.1292  0.0769
10831SOL    HW133071   1.426   1.114   3.528 -0.0314 -0.6276  0.7795
10831SOL    HW233072   1.548   1.151   3.446 -0.7351  0.2337  0.0917
10832SOL     OW33073  10.006   0.018   8.760 -0.0912 -0.0921  0.0763
10832SOL    HW133074  10.017  -0.036   8.838  1.0336  0.4960  0.3393
10832SOL    HW233075   9.911   0.019   8.745 -0.2261 -1.1639  0.7424
10833SOL     OW33076   1.306   7.829   6.173  0.2811  0.4315  0.0057
10833SOL    HW133077   1.234   7.787   6.220 -0.2142  0.1644 -0.9739
10833SOL    HW233078   1.356   7.873   6.242 -1.2928  1.3433  0.6273
10834SOL     OW33079   1.331   1.404   3.420 -0.0623 -0.4199 -1.0462
10834SOL    HW133080   1.246   1.369   3.395  0.5451 -1.5972 -1.5548
10834SOL    HW233081   1.374   1.331   3.465 -0.4526  1.0819  1.9793
10835SOL     OW33082   1.973   2.588   5.172  0.4153  0.0696 -0.3173
10835SOL    HW133083   1.927   2.611   5.091  0.0726  0.7962  0.0725
10835SOL    HW233084   2.037   2.658   5.183 -0.7023  0.9316  0.9446
10836SOL     OW33085   7.572   4.217   6.793  0.0017 -0.1117 -0.2869
10836SOL    HW133086   7.511   4.219   6.867 -0.7976 -1.5499 -0.8526
10836SOL    HW233087   7.658   4.200   6.833  0.2547  2.7781  0.5960
10837SOL     OW33088   4.565   6.702   8.819  0.3257 -0.0020  0.0833
10837SOL    HW133089   4.487   6.724   8.769 -0.9129 -1.6780  1.1909
10837SOL    HW233090   4.533   6.650   8.892  2.3065  0.6776  1.5129
10838SOL     OW33091   2.895   5.781   1.687 -0.2840 -0.1312  0.2892
10838SOL    HW133092   2.953   5.793   1.762  0.3132 -0.8627 -0.0393
10838SOL    HW233093   2.953   5.754   1.616 -1.0481 -1.1541  0.0248
10839SOL     OW33094   5.647   5.801   2.654  0.3185  0.0918  0.8326
10839SOL    HW133095   5.575   5.851   2.617 -0.2562 -1.2147  0.1470
10839SOL    HW233096   5.605   5.738   2.713  0.7896 -1.3288 -0.3030
10840SOL     OW33097   8.905   1.628   1.235  0.4258 -0.3716  0.3701
10840SOL    HW133098   8.865   1.592   1.155 -2.2248 -1.7676  2.1631
10840SOL    HW233099   8.868   1.716   1.242  0.3417 -0.3954  0.2318
10841SOL     OW33100   8.078   8.045   8.173 -0.0076 -0.9281  0.3022
10841SOL    HW133101   8.021   8.005   8.106  0.1700 -1.1633  0.2903
10841SOL    HW233102   8.167   8.031   8.140  0.0397  0.1030 -0.0524
10842SOL     OW33103   1.794   5.213   1.678  0.1661  0.1726 -0.0585
10842SOL    HW133104   1.859   5.165   1.728  0.2156 -0.2756 -0.5415
10842SOL    HW233105   1.712   5.167   1.694  0.0187  0.5680  0.3265
10843SOL     OW33106   7.874   9.353   5.423 -0.3229  0.7310  0.1460
10843SOL    HW133107   7.826   9.276   5.454 -1.0411  1.5195  1.0600
10843SOL    HW233108   7.943   9.366   5.488 -0.2508  0.9021  0.0358
10844SOL     OW33109   0.431   0.840   9.528  0.2036 -0.5303 -0.1541
10844SOL    HW133110   0.394   0.846   9.616  1.5858  1.7581  0.3710
10844SOL    HW233111   0.393   0.915   9.482  1.3361 -0.3005 -0.7384
10845SOL     OW33112   7.861   4.354   7.933 -0.0202 -0.9507  0.2782
10845SOL    HW133113   7.913   4.435   7.930 -0.1841 -0.7849  1.2479
10845SOL    HW233114   7.856   4.325   7.843 -0.8894  0.7249 -0.2502
10846SOL     OW33115   3.300   7.792   4.132  0.0315  0.1683  0.5568
10846SOL    HW133116   3.342   7.766   4.213 -0.4717 -0.3710  0.6555
10846SOL    HW233117   3.212   7.820   4.158  0.0532  0.5263  0.2626
10847SOL     OW33118   7.093   1.086   1.533 -0.0575 -0.4305 -0.0056
10847SOL    HW133119   7.155   1.050   1.595  0.5162  2.9868  1.6270
10847SOL    HW233120   7.062   1.167   1.573 -1.9915  0.4249 -2.8645
10848SOL     OW33121   2.081   5.409   9.759 -0.2949  0.2957 -0.1020
10848SOL    HW133122   2.109   5.318   9.764 -2.3787 -0.3468  3.2001
10848SOL    HW233123   1.992   5.406   9.723 -0.8785  0.8240  1.2242
10849SOL     OW33124   3.067   2.240   7.602  0.1167 -0.5251  0.4821
10849SOL    HW133125   3.023   2.241   7.517  1.8771 -0.6436 -0.4897
10849SOL    HW233126   3.044   2.155   7.640 -2.1197  0.2412  0.9713
10850SOL     OW33127   1.289   7.770   0.943  0.0617  0.4407  0.1463
10850SOL    HW133128   1.314   7.729   0.860  1.2121  1.0002  0.1901
10850SOL    HW233129   1.299   7.864   0.928  2.4413  0.4935  1.4990
10851SOL     OW33130   9.534   7.384   6.478 -0.0835  0.0936  0.0855
10851SOL    HW133131   9.521   7.478   6.490  1.7414  0.2871  1.0154
10851SOL    HW233132   9.516   7.369   6.385  3.6948  2.2523 -1.2446
10852SOL     OW33133   6.537   9.772   3.065  0.7287 -0.6250  0.0246
10852SOL    HW133134   6.535   9.860   3.103  0.6459 -0.6075 -0.0181
10852SOL    HW233135   6.447   9.740   3.076  0.2112  0.0644 -1.7221
10853SOL     OW33136   3.730   5.868   9.157  0.5362 -0.0755 -0.3478
10853SOL    HW133137   3.770   5.947   9.120  0.5696 -0.3461 -0.9063
10853SOL    HW233138   3.796   5.833   9.217 -1.0289  2.6035  3.2809
10854SOL     OW33139   4.420   6.444   4.527 -0.0180 -0.1414 -0.3165
10854SOL    HW133140   4.509   6.434   4.560 -0.3678 -0.5878  0.4858
10854SOL    HW233141   4.432   6.479   4.438  1.0410 -2.5594 -1.2039
10855SOL     OW33142   6.085   2.020   6.030 -0.0784  0.1909 -0.5289
10855SOL    HW133143   6.141   2.067   6.091 -0.9026 -1.2332  1.4160
10855SOL    HW233144   6.133   1.940   6.009  0.2494  0.7072 -1.9222
10856SOL     OW33145   8.787   2.957   1.496 -0.5041 -0.6345  0.7045
10856SOL    HW133146   8.728   2.982   1.426 -1.3676 -0.2622  1.5516
10856SOL    HW233147   8.740   2.889   1.545 -0.0013 -0.7438  1.0553
10857SOL     OW33148   6.939   5.157   5.968 -0.1102 -0.1403 -0.1388
10857SOL    HW133149   6.952   5.236   5.915 -2.9474  0.2135 -0.4688
10857SOL    HW233150   6.931   5.086   5.904  1.9041 -0.6913  0.1369
10858SOL     OW33151   8.020   3.438   6.438 -0.2535  0.0988  0.1319
10858SOL    HW133152   8.004   3.430   6.344  0.6754 -0.8169  0.0365
10858SOL    HW233153   8.070   3.519   6.448 -0.8993  0.5343 -0.0767
10859SOL     OW33154   4.042   9.161   2.135  0.3695  0.2182 -0.1989
10859SOL    HW133155   4.075   9.140   2.222 -0.6034  0.4278  0.2343
10859SOL    HW233156   3.958   9.115   2.130  0.8958 -0.6693 -1.4341
10860SOL     OW33157   2.790   2.868   3.012 -0.0414  0.0687 -0.0556
10860SOL    HW133158   2.788   2.829   3.099 -0.1011  0.4353  0.1075
10860SOL    HW233159   2.825   2.956   3.025 -2.6066  1.1776  0.0258
10861SOL     OW33160   9.501   4.332   9.532  0.1345 -0.1023  0.2537
10861SOL    HW133161   9.427   4.275   9.552  0.2064  0.1429  1.3009
10861SOL    HW233162   9.499   4.399   9.600 -0.0708  1.2878 -1.0752
10862SOL     OW33163   4.675   8.205   6.363 -0.3486 -0.2958 -0.4203
10862SOL    HW133164   4.693   8.288   6.407  0.1997 -0.9388  0.6197
10862SOL    HW233165   4.584   8.184   6.386 -0.5820  0.1458 -0.9215
10863SOL     OW33166   3.119   1.656   0.069  0.1497 -0.3204 -0.1456
10863SOL    HW133167   3.165   1.712   0.006 -2.7636  1.3669 -0.9363
10863SOL    HW233168   3.091   1.580   0.019 -1.6779  0.7562 -0.8453
10864SOL     OW33169   9.524   7.231   1.524 -0.1465 -0.1685 -0.6575
10864SOL    HW133170   9.552   7.209   1.435 -0.4636  0.1560 -0.8397
10864SOL    HW233171   9.503   7.324   1.519  1.2566  0.2195  0.1140
10865SOL     OW33172   6.083   6.715   9.727  0.0451 -0.3651 -0.0340
10865SOL    HW133173   5.999   6.669   9.724 -0.4727 -0.2811  4.7744
10865SOL    HW233174   6.148   6.646   9.733 -0.2208 -0.5163  1.4468
10866SOL     OW33175   0.557   8.912   3.543 -0.6535 -0.0122 -0.2991
10866SOL    HW133176   0.468   8.892   3.573 -0.8607 -1.1506 -1.5754
10866SOL    HW233177   0.607   8.833   3.565 -0.4299 -0.1802 -1.3681
10867SOL     OW33178   4.321   9.579   1.806 -0.1868  0.1203 -0.2865
10867SOL    HW133179   4.329   9.671   1.784 -1.1669 -0.1684 -2.0384
10867SOL    HW233180   4.257   9.576   1.877 -0.0737  0.7852 -0.1501
10868SOL     OW33181   8.568   0.898   6.156  0.5714  0.6326  0.1001
10868SOL    HW133182   8.512   0.821   6.152  0.0026  1.0154  0.5795
10868SOL    HW233183   8.601   0.899   6.246  1.1697  0.5394 -0.1131
10869SOL     OW33184   2.721   7.112   1.692  0.6631  0.0354 -0.0820
10869SOL    HW133185   2.673   7.194   1.679 -0.5739 -0.7539 -0.7628
10869SOL    HW233186   2.653   7.047   1.708  1.4851 -1.1727 -1.2544
10870SOL     OW33187   8.344   8.784   9.593 -0.0768 -0.5942  0.5807
10870SOL    HW133188   8.264   8.775   9.644 -0.6803 -1.3089 -0.4567
10870SOL    HW233189   8.367   8.695   9.568  0.5251 -0.3110  0.1049
10871SOL     OW33190   8.899   1.026   5.802 -0.8782  0.0947 -0.0510
10871SOL    HW133191   8.945   0.993   5.879  0.3885 -0.7606 -1.1310
10871SOL    HW233192   8.902   1.121   5.811  1.1523  0.0734 -0.0709
10872SOL     OW33193   6.160   4.766   4.219 -0.1923  0.8000  0.2793
10872SOL    HW133194   6.159   4.709   4.142 -2.5938  0.7229  0.2877
10872SOL    HW233195   6.176   4.707   4.292 -0.1454  0.5249  0.0490
10873SOL     OW33196   3.618   8.340   1.303  0.3742 -0.1239 -0.0440
10873SOL    HW133197   3.645   8.417   1.252 -2.1201 -0.1743 -1.6508
10873SOL    HW233198   3.648   8.265   1.252 -0.1586 -0.1764 -0.2935
10874SOL     OW33199   8.798   4.379   0.412  0.0477 -0.3804 -0.5983
10874SOL    HW133200   8.868   4.336   0.364 -0.8382  0.9235 -3.2764
10874SOL    HW233201   8.722   4.323   0.399 -0.3778  0.3626 -1.4491
10875SOL     OW33202   0.143   8.335   1.389  0.1345  0.2754  0.0370
10875SOL    HW133203   0.145   8.239   1.386 -0.9048  0.2562 -0.1869
10875SOL    HW233204   0.214   8.362   1.330  0.9403 -0.3479  0.6934
10876SOL     OW33205   8.158   9.132   7.768 -0.1870  0.0791 -0.4861
10876SOL    HW133206   8.101   9.103   7.697 -1.6563  1.9135 -0.1414
10876SOL    HW233207   8.109   9.113   7.848  0.9221 -0.8600 -0.0047
10877SOL     OW33208   4.090   6.197   0.563  0.3588  0.6744  0.7286
10877SOL    HW133209   4.038   6.120   0.541  0.4072  0.6921  0.5498
10877SOL    HW233210   4.116   6.183   0.654  1.1979 -0.0012  0.4066
10878SOL     OW33211   8.441   9.358   2.262  0.4113 -0.3418 -0.3206
10878SOL    HW133212   8.379   9.308   2.209  1.5657 -0.0610 -1.9818
10878SOL    HW233213   8.491   9.292   2.310  0.9031 -0.7128 -1.3362
10879SOL     OW33214   0.735   9.455   4.907  0.4304  0.2161  0.0587
10879SOL    HW133215   0.733   9.386   4.974  1.4097 -0.5265 -0.6519
10879SOL    HW233216   0.770   9.412   4.829  0.9752  1.4905 -0.4273
10880SOL     OW33217   9.183   7.713   2.258  0.3347 -0.3516 -0.3398
10880SOL    HW133218   9.213   7.623   2.244 -2.8609 -1.6716  0.4730
10880SOL    HW233219   9.125   7.708   2.334 -0.6821  2.2257 -0.8387
10881SOL     OW33220   0.932   0.109   3.363  0.0349  0.3079 -0.2406
10881SOL    HW133221   0.991   0.075   3.430  0.2575  1.5761  0.2320
10881SOL    HW233222   0.846   0.073   3.386 -0.2024  1.9229  1.6771
10882SOL     OW33223   7.907   2.199   4.926  0.4449  0.2736 -0.0724
10882SOL    HW133224   7.972   2.145   4.973  0.3325 -0.1232 -0.3629
10882SOL    HW233225   7.953   2.281   4.907  0.4342  0.5154  0.8898
10883SOL     OW33226   6.820   5.767   8.736 -0.5563  0.5524 -0.8198
10883SOL    HW133227   6.865   5.852   8.738 -1.7441  1.2133 -1.4519
10883SOL    HW233228   6.819   5.739   8.827  0.1208  1.0656 -0.6417
10884SOL     OW33229   2.291   8.909   8.625 -0.1004  0.7431  0.1954
10884SOL    HW133230   2.361   8.946   8.680  1.5664 -0.4916 -0.9829
10884SOL    HW233231   2.215   8.905   8.683  1.7005 -0.9831  2.6436
10885SOL     OW33232   1.460   8.052   5.206  0.2490  0.2920  0.1008
10885SOL    HW133233   1.477   8.005   5.288  1.4113  0.6800  0.1063
10885SOL    HW233234   1.510   8.005   5.140  0.0057  0.4863 -0.2284
10886SOL     OW33235   3.700   1.753   7.369 -0.6473  0.7362  0.2433
10886SOL    HW133236   3.707   1.664   7.334 -0.0304  1.2166 -0.9168
10886SOL    HW233237   3.726   1.810   7.296 -1.2019  1.8819  0.9044
10887SOL     OW33238   3.562   5.470   3.419 -0.0515 -0.4643 -0.7398
10887SOL    HW133239   3.519   5.534   3.361 -0.7374 -2.4167 -2.5457
10887SOL    HW233240   3.624   5.522   3.470 -0.6909  1.6595 -1.9689
10888SOL     OW33241   6.163   9.142   3.379 -0.6040 -0.8260 -0.2766
10888SOL    HW133242   6.183   9.179   3.293  1.0198 -2.1797 -0.5370
10888SOL    HW233243   6.163   9.217   3.438  3.2182 -0.3112 -0.6720
10889SOL     OW33244   6.184   2.616   4.823  0.2490  0.4337  0.0962
10889SOL    HW133245   6.189   2.707   4.796  0.8806  0.3648 -0.0464
10889SOL    HW233246   6.103   2.609   4.872 -0.0601  0.9536 -0.3328
10890SOL     OW33247   1.438   6.639   8.780 -0.3247 -0.4177 -0.2984
10890SOL    HW133248   1.360   6.690   8.758  0.0573  0.0160 -0.6793
10890SOL    HW233249   1.497   6.653   8.706  0.1742 -0.6142  0.0566
10891SOL     OW33250   6.877   5.246   9.809  0.3444 -0.3739 -1.1267
10891SOL    HW133251   6.837   5.159   9.805  0.5637 -0.6085  0.8392
10891SOL    HW233252   6.824   5.293   9.873  1.5577  0.2208 -0.5490
10892SOL     OW33253   8.957   2.049   9.320 -0.1243 -0.5063 -0.2159
10892SOL    HW133254   9.028   2.020   9.377  0.2115  1.1533  0.2622
10892SOL    HW233255   8.885   2.071   9.380 -0.4185 -0.5011 -0.5661
10893SOL     OW33256   6.477   5.196   8.830  0.5269  0.3227 -0.2538
10893SOL    HW133257   6.420   5.257   8.878  2.6632  1.3127  1.1884
10893SOL    HW233258   6.423   5.118   8.819 -1.4961  1.5897 -0.0149
10894SOL     OW33259   3.512   5.355   0.906  0.1169  0.0839 -0.3972
10894SOL    HW133260   3.603   5.374   0.932  0.5967 -1.1844 -1.0769
10894SOL    HW233261   3.496   5.414   0.832  0.9077 -0.7181 -1.2263
10895SOL     OW33262   8.375   8.896   1.026 -0.0637 -0.3025  0.2187
10895SOL    HW133263   8.321   8.817   1.028  0.5078 -0.7793 -1.5009
10895SOL    HW233264   8.449   8.875   1.084 -0.5243 -0.5368  0.7376
10896SOL     OW33265   3.436   2.199   2.283 -0.3908 -0.4510 -0.2920
10896SOL    HW133266   3.406   2.150   2.206  1.5529  0.0101 -1.3980
10896SOL    HW233267   3.369   2.182   2.349 -2.5618 -0.2621 -2.2933
10897SOL     OW33268   9.431   3.155   2.619  1.1293  0.0145  0.2051
10897SOL    HW133269   9.347   3.122   2.649  1.6560 -0.0240  1.6976
10897SOL    HW233270   9.418   3.173   2.525 -0.7695  0.8267  0.5893
10898SOL     OW33271   5.075   1.169   1.865 -0.0560  0.0965  0.1049
10898SOL    HW133272   5.024   1.191   1.788  0.6742 -1.7440 -0.9650
10898SOL    HW233273   5.132   1.245   1.879 -1.2697  1.0883 -0.2147
10899SOL     OW33274   8.222   7.712   9.136 -0.1858  0.0375 -0.4767
10899SOL    HW133275   8.214   7.643   9.070 -0.7043 -0.3082 -0.0532
10899SOL    HW233276   8.297   7.764   9.106  0.4913 -0.9550 -0.5752
10900SOL     OW33277   7.129   7.998   9.449  0.4740  0.4433  0.1996
10900SOL    HW133278   7.144   7.973   9.358 -0.7905  0.7676 -0.1179
10900SOL    HW233279   7.035   7.987   9.462  0.8555 -1.3527  2.0198
10901SOL     OW33280   2.859   7.957   7.035 -0.1150  0.5159  0.2513
10901SOL    HW133281   2.791   7.920   6.978  0.4686 -0.1365 -0.0437
10901SOL    HW233282   2.940   7.944   6.986  0.4863 -0.6258  1.4957
10902SOL     OW33283   5.882   2.319   5.684 -0.1695  0.3940  0.7315
10902SOL    HW133284   5.938   2.353   5.753  1.3178  1.6421 -1.0028
10902SOL    HW233285   5.925   2.239   5.655 -1.6157 -0.9951  2.2066
10903SOL     OW33286   7.833   3.512   9.247 -0.5001  0.0231 -0.1711
10903SOL    HW133287   7.871   3.429   9.218  1.4389  1.3993 -1.8616
10903SOL    HW233288   7.779   3.489   9.322  1.6741 -2.4837  0.7744
10904SOL     OW33289   8.362   5.781   0.942 -0.1229  0.3929  0.2333
10904SOL    HW133290   8.376   5.728   0.863  0.3917 -1.2329  1.3727
10904SOL    HW233291   8.438   5.840   0.944  0.8789 -0.8589  0.5002
10905SOL     OW33292   3.455   4.709   5.410  0.2999 -0.3292 -0.3621
10905SOL    HW133293   3.368   4.736   5.439  0.4273 -1.0038  0.6720
10905SOL    HW233294   3.504   4.694   5.490  2.7496  4.1252 -0.6740
10906SOL     OW33295   1.339   6.970   3.323  0.0852  0.3202 -0.2082
10906SOL    HW133296   1.328   6.911   3.249 -0.0372  0.6872 -0.4833
10906SOL    HW233297   1.417   7.022   3.302 -0.2153  0.7384 -0.2912
10907SOL     OW33298   6.467   5.563   4.189 -0.2747 -0.0554 -0.3303
10907SOL    HW133299   6.379   5.584   4.220 -0.4592 -0.0323 -0.8566
10907SOL    HW233300   6.470   5.467   4.189 -1.0265 -0.1305 -2.2333
10908SOL     OW33301   4.572   1.586   9.369  0.0205  0.0366  0.5451
10908SOL    HW133302   4.585   1.657   9.306 -2.1115  0.0560  0.0140
10908SOL    HW233303   4.601   1.508   9.322 -0.8590  0.1478 -0.2271
10909SOL     OW33304   8.589   1.570   4.186 -0.5266  0.2945 -0.1682
10909SOL    HW133305   8.630   1.603   4.106 -0.3791  0.7212  0.0798
10909SOL    HW233306   8.550   1.647   4.227 -1.3026 -0.0560 -0.2346
10910SOL     OW33307   1.872   1.297   8.517  0.1327  0.5595  0.2599
10910SOL    HW133308   1.954   1.302   8.566  0.5911  0.1738 -0.4487
10910SOL    HW233309   1.821   1.230   8.562 -0.1657  1.4125  1.2264
10911SOL     OW33310   5.722   8.906   2.347  0.4361  0.3038 -0.2427
10911SOL    HW133311   5.713   8.998   2.370  0.5829  0.3213 -0.2563
10911SOL    HW233312   5.816   8.890   2.346  0.3876 -0.2065  1.1840
10912SOL     OW33313   1.695   5.524   4.051  0.0050 -0.3945 -0.3190
10912SOL    HW133314   1.650   5.474   4.119 -0.4410  0.6693  0.1916
10912SOL    HW233315   1.666   5.614   4.065  0.0115 -0.1309 -1.8272
10913SOL     OW33316   2.715   9.139   9.158 -0.0884  0.3293  0.3896
10913SOL    HW133317   2.686   9.126   9.067 -1.6640  1.2966  0.7085
10913SOL    HW233318   2.687   9.059   9.203  0.7253 -0.1673  0.0297
10914SOL     OW33319   7.983   5.597   8.897 -0.0812 -0.0385  0.5507
10914SOL    HW133320   7.944   5.582   8.984 -0.7841 -0.4917  0.1672
10914SOL    HW233321   7.991   5.692   8.891 -1.2076  0.0765  0.6180
10915SOL     OW33322   9.869   1.277   8.082  0.3333 -0.2080  0.2322
10915SOL    HW133323   9.941   1.248   8.137  0.1921 -1.8931 -0.4305
10915SOL    HW233324   9.866   1.215   8.010 -2.7115 -1.1526  0.9995
10916SOL     OW33325   8.849   3.688   1.377  0.3622 -0.1424 -0.2504
10916SOL    HW133326   8.944   3.679   1.374  0.4259  0.6732 -0.7193
10916SOL    HW233327   8.816   3.605   1.342  0.8910 -0.4774  0.0290
10917SOL     OW33328   0.604   1.451   6.449 -0.6125  0.5297 -0.4658
10917SOL    HW133329   0.622   1.425   6.539 -2.8305  0.8519  0.1253
10917SOL    HW233330   0.690   1.462   6.409  0.4099 -0.8414  1.2461
10918SOL     OW33331   6.969   9.053   0.332 -0.3808 -1.0919 -0.5021
10918SOL    HW133332   7.044   9.006   0.368 -0.8783 -0.1913  1.8971
10918SOL    HW233333   6.892   9.007   0.367 -0.9019 -0.4409 -0.7517
10919SOL     OW33334   2.152   2.312   7.470  0.0711  0.4489 -0.2797
10919SOL    HW133335   2.161   2.376   7.399  1.2572  0.2325 -0.3512
10919SOL    HW233336   2.239   2.308   7.509  0.0587 -1.1886 -0.3438
10920SOL     OW33337   9.533   8.369   0.356  0.2504  0.4360 -0.6582
10920SOL    HW133338   9.543   8.464   0.348 -1.1139  0.4929 -2.1973
10920SOL    HW233339   9.456   8.358   0.412  1.5486  0.1767  1.1463
10921SOL     OW33340   7.554   4.185   9.558 -0.1771  0.5841 -0.2026
10921SOL    HW133341   7.472   4.162   9.601  0.5077 -0.6202  0.5073
10921SOL    HW233342   7.537   4.174   9.465 -1.8409  3.7122 -0.4107
10922SOL     OW33343   6.408   1.740   8.231 -0.1819 -0.0090  0.2377
10922SOL    HW133344   6.481   1.800   8.250  1.9594 -1.9796 -1.2164
10922SOL    HW233345   6.409   1.678   8.304  1.5683 -1.7186 -1.1408
10923SOL     OW33346   8.497   5.386   5.543  0.3441 -0.2533 -0.1435
10923SOL    HW133347   8.450   5.409   5.463 -0.1779 -1.0361 -0.0694
10923SOL    HW233348   8.585   5.421   5.529 -0.0073  0.4771 -0.6418
10924SOL     OW33349   4.731   9.008   3.117 -0.5599  0.3899 -0.4252
10924SOL    HW133350   4.736   9.016   3.022 -0.2039  1.0820 -0.3551
10924SOL    HW233351   4.789   9.077   3.150 -1.3490  0.7224  0.2976
10925SOL     OW33352   8.185   0.288   5.102 -0.0818 -0.7548  0.0804
10925SOL    HW133353   8.242   0.358   5.133 -0.9426  0.9507 -1.9657
10925SOL    HW233354   8.123   0.275   5.173 -0.1803  0.8974  0.3442
10926SOL     OW33355   0.596   9.212   8.535 -0.3686  0.3235  0.6354
10926SOL    HW133356   0.583   9.118   8.523  1.8859  0.0904 -0.7318
10926SOL    HW233357   0.516   9.243   8.576 -1.6954 -1.9808 -0.0370
10927SOL     OW33358   8.972   8.103   0.843  0.6360  0.0388  0.6139
10927SOL    HW133359   8.904   8.057   0.793 -1.2655  3.2643 -0.0731
10927SOL    HW233360   8.940   8.101   0.933 -0.6618  1.8308  0.2441
10928SOL     OW33361   1.274   3.265   5.030 -0.0016 -0.3225 -0.5525
10928SOL    HW133362   1.185   3.300   5.022 -0.8789 -2.2482  0.0530
10928SOL    HW233363   1.294   3.229   4.944 -0.6211 -1.6042 -0.1846
10929SOL     OW33364   0.537   3.617   7.723 -0.2727 -0.0483  0.2018
10929SOL    HW133365   0.447   3.607   7.692 -0.1076 -0.1838 -0.2463
10929SOL    HW233366   0.543   3.562   7.801  0.0691 -1.9425 -1.0935
10930SOL     OW33367   2.493   0.595   7.283  0.4281  0.1503  0.2556
10930SOL    HW133368   2.484   0.571   7.191 -0.5596  2.8669 -0.4633
10930SOL    HW233369   2.406   0.582   7.320  0.7057 -0.4910  0.6888
10931SOL     OW33370   4.430   2.159   8.162  0.0577 -0.0655 -0.3622
10931SOL    HW133371   4.425   2.089   8.097  0.0848  0.4521 -0.9336
10931SOL    HW233372   4.385   2.233   8.121 -1.8178 -0.3299  1.0292
10932SOL     OW33373   0.514   9.179   9.871 -0.1045  0.2457  0.4421
10932SOL    HW133374   0.594   9.151   9.915 -0.5748 -1.2974  0.3577
10932SOL    HW233375   0.511   9.127   9.791 -1.0855  0.4572  0.3276
10933SOL     OW33376   6.199   6.226   9.893  0.0108 -0.2921 -0.3521
10933SOL    HW133377   6.283   6.217   9.937 -0.0105  1.2942  0.0770
10933SOL    HW233378   6.142   6.161   9.934 -0.0189  1.1451  2.0553
10934SOL     OW33379   9.856   6.695   2.639  0.3777  0.1318  0.0147
10934SOL    HW133380   9.849   6.789   2.650 -1.0839  0.0159  0.2900
10934SOL    HW233381   9.872   6.661   2.727  3.0419  0.2306 -0.3433
10935SOL     OW33382   3.312   2.140   7.377  0.0068 -0.1456  0.0436
10935SOL    HW133383   3.341   2.049   7.384  1.7355  0.3532 -0.0575
10935SOL    HW233384   3.355   2.184   7.450  2.0090  1.2224 -1.8457
10936SOL     OW33385   1.202   0.053   1.206 -0.1661  0.5088 -0.2200
10936SOL    HW133386   1.166   0.017   1.125 -0.5266  0.7767 -0.1769
10936SOL    HW233387   1.193   0.148   1.196 -1.1534  0.5081  0.5710
10937SOL     OW33388   3.877   8.275   7.596  1.0036 -0.0298  0.2611
10937SOL    HW133389   3.839   8.272   7.684 -0.1589  0.5603 -0.2040
10937SOL    HW233390   3.890   8.184   7.572  0.7309 -0.2128  0.7878
10938SOL     OW33391   6.545   6.346   4.322  0.2884 -0.1434 -0.2611
10938SOL    HW133392   6.633   6.320   4.292  0.8204  1.2571 -0.0122
10938SOL    HW233393   6.560   6.384   4.408 -0.5408  0.3290 -0.3221
10939SOL     OW33394   6.221   4.986   3.110 -0.1473  0.1853  0.2935
10939SOL    HW133395   6.139   4.947   3.141 -1.3836  0.7758 -1.9566
10939SOL    HW233396   6.281   4.913   3.101 -1.0164 -0.5487  0.2904
10940SOL     OW33397   8.058   8.595   1.185 -0.2421  0.1358  0.4291
10940SOL    HW133398   7.994   8.663   1.163  0.5528  0.8028  0.0935
10940SOL    HW233399   8.020   8.514   1.151 -0.3837  0.6994 -0.8222
10941SOL     OW33400   8.119   8.837   4.834  0.0220  0.7086  0.0284
10941SOL    HW133401   8.115   8.744   4.810 -1.0725  0.5858  0.6090
10941SOL    HW233402   8.211   8.853   4.852  0.0553 -0.6703  1.3531
10942SOL     OW33403   9.160   7.265   9.471  0.4785 -0.5731 -0.4501
10942SOL    HW133404   9.130   7.224   9.390 -0.5587 -2.1042  0.6725
10942SOL    HW233405   9.157   7.359   9.452 -0.3749 -0.8776 -1.9743
10943SOL     OW33406   4.742   3.665   8.521 -0.0744 -0.0243 -0.5278
10943SOL    HW133407   4.812   3.727   8.498  1.3227 -0.7115  1.5572
10943SOL    HW233408   4.787   3.581   8.530 -1.6056 -0.9810 -1.3879
10944SOL     OW33409   9.139   3.505   3.956 -0.1021 -0.3549 -0.5139
10944SOL    HW133410   9.125   3.448   4.032 -1.9857  0.6308 -0.0699
10944SOL    HW233411   9.086   3.466   3.887 -0.1959  0.0265 -0.6575
10945SOL     OW33412   9.648   6.045   5.061  0.2916  0.2995 -0.0410
10945SOL    HW133413   9.649   5.962   5.109 -0.6230 -0.2054 -0.8595
10945SOL    HW233414   9.576   6.036   4.998  0.1531  1.7245 -0.1298
10946SOL     OW33415   9.347   5.037   5.055  0.2954  0.1215 -0.0822
10946SOL    HW133416   9.322   5.074   4.971 -1.0213  3.4548  1.6127
10946SOL    HW233417   9.437   5.067   5.069  0.8809 -1.2712 -0.6589
10947SOL     OW33418   9.094   4.154   6.930 -0.3623 -0.0331 -0.0166
10947SOL    HW133419   9.175   4.191   6.896 -0.6268  0.0623 -0.5498
10947SOL    HW233420   9.088   4.188   7.019 -0.3243  0.7641 -0.3097
10948SOL     OW33421   4.081   3.475   4.406 -0.8040 -0.0467 -0.4153
10948SOL    HW133422   4.126   3.558   4.422  1.4927 -1.6426  2.1826
10948SOL    HW233423   4.024   3.493   4.331  0.4644  3.5176 -0.7028
10949SOL     OW33424   4.733   2.416   9.901  0.0373 -0.4540  0.1689
10949SOL    HW133425   4.719   2.360   9.825 -2.3326  0.5959 -0.2531
10949SOL    HW233426   4.827   2.434   9.900  0.5089 -2.6160 -0.9166
10950SOL     OW33427   3.092   9.957   5.146 -0.4305 -0.4685 -0.1516
10950SOL    HW133428   3.175   9.915   5.169 -0.1329  1.2956  2.3227
10950SOL    HW233429   3.096  10.043   5.186 -2.6297  0.4908 -1.7656
10951SOL     OW33430   1.588   6.540   0.266 -0.9623 -0.1931  0.1155
10951SOL    HW133431   1.583   6.617   0.324 -0.4582 -0.0726 -0.0025
10951SOL    HW233432   1.660   6.488   0.302  0.6303  0.8020 -1.5125
10952SOL     OW33433   8.068   0.808   2.165 -0.9213 -0.1836 -0.1171
10952SOL    HW133434   8.079   0.872   2.235 -0.2330  0.4312 -0.7786
10952SOL    HW233435   8.063   0.859   2.085 -1.3051 -0.9067 -0.5732
10953SOL     OW33436   9.881   2.236   2.773  0.0838  0.3474 -0.1289
10953SOL    HW133437   9.845   2.258   2.688 -0.4011  0.7432  0.1714
10953SOL    HW233438   9.906   2.144   2.766  1.5323  0.7867 -1.1997
10954SOL     OW33439   7.539   5.854   9.085  0.0194  0.4209 -0.1712
10954SOL    HW133440   7.543   5.950   9.084 -2.1298  0.5827  0.1007
10954SOL    HW233441   7.549   5.830   9.177 -0.3002  0.4649 -0.1226
10955SOL     OW33442   5.067   9.815   3.240 -0.1455 -0.4382 -0.4555
10955SOL    HW133443   5.038   9.782   3.325  1.1417  0.1419  0.2364
10955SOL    HW233444   5.082   9.908   3.255  3.0446 -0.8684 -0.4397
10956SOL     OW33445   2.810   0.920   0.445 -0.0765 -0.0768 -0.0751
10956SOL    HW133446   2.755   0.961   0.512  1.5454  1.6570  0.2741
10956SOL    HW233447   2.750   0.899   0.374 -1.1752  2.0533  0.1421
10957SOL     OW33448   2.065   3.040   8.009 -0.0672 -0.3981  0.1856
10957SOL    HW133449   2.127   2.967   8.006 -1.1066 -1.2735 -1.5715
10957SOL    HW233450   1.979   2.999   8.012 -0.6306  0.7848  1.2621
10958SOL     OW33451   1.136   2.042   7.368  0.0998 -0.1444 -0.0963
10958SOL    HW133452   1.148   2.086   7.284 -0.9744 -1.7363 -1.1585
10958SOL    HW233453   1.049   2.071   7.398  0.6607  0.7558  0.7104
10959SOL     OW33454   4.007   4.155   9.785  0.4311  0.0931  0.0830
10959SOL    HW133455   4.007   4.116   9.698 -0.5363 -1.5114  0.7496
10959SOL    HW233456   3.949   4.231   9.776  1.0692  0.4875 -0.8748
10960SOL     OW33457   2.188   8.629   6.936 -0.0141  0.6058  0.3511
10960SOL    HW133458   2.161   8.645   7.027 -0.2147  0.9914  0.2267
10960SOL    HW233459   2.202   8.717   6.900 -0.7194  0.4872 -0.2240
10961SOL     OW33460   2.182   4.672   7.431  0.2409 -0.3577  0.0351
10961SOL    HW133461   2.132   4.752   7.415 -0.3325 -0.6820  0.2170
10961SOL    HW233462   2.165   4.651   7.523  0.5244 -0.6024  0.0322
10962SOL     OW33463   0.195   1.217   3.176 -0.8048  0.0282  0.0062
10962SOL    HW133464   0.267   1.246   3.231 -1.4201  3.1525 -0.6381
10962SOL    HW233465   0.238   1.171   3.103  0.1988 -1.4000  1.4284
10963SOL     OW33466   2.347   0.012   9.804  0.1436  0.0765  0.1487
10963SOL    HW133467   2.355  -0.072   9.848 -1.7004  0.3035  1.0057
10963SOL    HW233468   2.387   0.075   9.863  1.0955 -0.1069 -0.2783
10964SOL     OW33469   5.553   4.361   1.536  0.2635  0.9451 -0.0088
10964SOL    HW133470   5.465   4.382   1.504  0.4732  0.0016 -1.2900
10964SOL    HW233471   5.599   4.445   1.538 -0.7461  1.4913  0.9857
10965SOL     OW33472   3.167   8.984   4.221  0.5871 -0.0663 -0.4664
10965SOL    HW133473   3.091   9.024   4.262  0.0601 -0.6297 -0.8851
10965SOL    HW233474   3.227   9.057   4.206  0.5447  0.2381  0.7408
10966SOL     OW33475   3.900   9.740   1.723 -0.2540  0.6742  0.3366
10966SOL    HW133476   3.929   9.829   1.702  0.3626  0.0023 -1.9157
10966SOL    HW233477   3.804   9.746   1.726 -0.2357  1.3468 -0.1909
10967SOL     OW33478   2.683   5.790   2.247  0.1474 -0.3791  0.0128
10967SOL    HW133479   2.612   5.757   2.302  0.3441  0.3393  0.7288
10967SOL    HW233480   2.762   5.748   2.282  0.0739 -1.2631 -0.8531
10968SOL     OW33481   4.405   3.850   0.465  0.1440  0.1599 -0.0467
10968SOL    HW133482   4.496   3.877   0.460  0.0339  0.3983 -0.9796
10968SOL    HW233483   4.399   3.774   0.407 -0.1166 -0.2366  0.4954
10969SOL     OW33484   0.756   3.354   6.891 -0.0105 -0.2897  0.1471
10969SOL    HW133485   0.795   3.426   6.841  0.6823  0.2497  1.3989
10969SOL    HW233486   0.831   3.307   6.927 -0.4804 -0.0334  1.5187
10970SOL     OW33487   2.644   6.940   6.637  0.2061  0.1037 -0.9394
10970SOL    HW133488   2.626   7.007   6.704  0.8843  0.0367 -0.6906
10970SOL    HW233489   2.731   6.907   6.658 -0.6842 -1.9092 -0.1731
10971SOL     OW33490   9.747   6.608   2.158  0.3890  0.8814 -0.2722
10971SOL    HW133491   9.715   6.663   2.229  0.0931 -1.0233  1.1707
10971SOL    HW233492   9.841   6.600   2.173  0.1393 -0.6158  0.8125
10972SOL     OW33493   5.410   4.754   5.219 -0.4040  0.3262  0.3377
10972SOL    HW133494   5.443   4.729   5.305  0.7958 -2.0902 -0.7161
10972SOL    HW233495   5.470   4.823   5.190  0.8279 -0.6753  0.4124
10973SOL     OW33496   3.336   2.603   2.234 -0.1797  0.4770 -0.3240
10973SOL    HW133497   3.319   2.587   2.327  0.5596 -1.0744 -0.4273
10973SOL    HW233498   3.284   2.681   2.214 -0.7838  0.5273  1.2484
10974SOL     OW33499   7.908   4.844   2.371  0.3821  0.1404  0.3397
10974SOL    HW133500   7.912   4.788   2.293 -1.2572  1.2598 -0.6027
10974SOL    HW233501   7.826   4.819   2.415 -0.1610  1.4661  0.1309
10975SOL     OW33502   1.867   2.893   1.237  0.0241  0.4186 -0.0545
10975SOL    HW133503   1.840   2.885   1.145 -0.6082 -1.4442  0.2592
10975SOL    HW233504   1.955   2.856   1.239 -0.0298  0.3019  0.1199
10976SOL     OW33505   4.739   4.964   7.152 -0.2300 -0.4296  0.0449
10976SOL    HW133506   4.743   4.885   7.206  0.3473 -0.9355 -0.7164
10976SOL    HW233507   4.818   5.012   7.173  0.5352 -1.1357 -1.0729
10977SOL     OW33508   2.412   0.750   0.521 -0.3650  0.5591  0.3282
10977SOL    HW133509   2.438   0.711   0.605 -0.0397  0.0871  0.0114
10977SOL    HW233510   2.384   0.839   0.544 -1.1496  0.1467  1.0670
10978SOL     OW33511   5.439   0.812   2.295  0.3722 -0.1639  0.1793
10978SOL    HW133512   5.480   0.844   2.375 -0.1159 -1.2913  0.9142
10978SOL    HW233513   5.510   0.810   2.230  0.5942  1.5125  0.3404
10979SOL     OW33514   7.426   4.901   3.526 -0.4415  0.5076 -0.0586
10979SOL    HW133515   7.382   4.818   3.544 -0.6869  0.8882  1.2143
10979SOL    HW233516   7.459   4.891   3.437 -1.2190 -0.6190 -0.2565
10980SOL     OW33517   1.455   5.448   1.015  0.1350 -0.7082 -0.3727
10980SOL    HW133518   1.524   5.384   1.035 -1.2277 -1.5504  2.2131
10980SOL    HW233519   1.457   5.509   1.089 -0.4970  0.5514 -1.3506
10981SOL     OW33520   5.322   2.142   5.398 -0.2839 -0.1673 -0.0216
10981SOL    HW133521   5.268   2.221   5.405  0.0523  0.1309 -0.7092
10981SOL    HW233522   5.383   2.149   5.472  1.1520  1.3355 -1.2560
10982SOL     OW33523   7.603   0.164   7.767 -0.0467 -0.1120 -0.0824
10982SOL    HW133524   7.609   0.163   7.863  1.0629  1.5211 -0.0843
10982SOL    HW233525   7.674   0.107   7.738  0.3020  0.2370  0.0725
10983SOL     OW33526   1.612   0.423   2.854 -0.1358 -0.2974 -0.4073
10983SOL    HW133527   1.683   0.447   2.794  0.0788  0.5359  0.1578
10983SOL    HW233528   1.639   0.339   2.891  1.3672  0.7367  0.9808
10984SOL     OW33529   6.343   6.594   5.612  0.1765 -0.1578 -0.3452
10984SOL    HW133530   6.383   6.643   5.540  1.0552 -1.3341 -0.6894
10984SOL    HW233531   6.281   6.536   5.568 -0.3689  0.1583 -0.0020
10985SOL     OW33532   2.868   6.771   6.061 -0.4447 -0.3876 -0.2330
10985SOL    HW133533   2.903   6.692   6.101 -2.1053 -0.4117  1.3154
10985SOL    HW233534   2.918   6.843   6.100  0.1883 -0.5730 -0.6764
10986SOL     OW33535   0.067   5.277   2.087 -0.0296  0.9906  0.5622
10986SOL    HW133536   0.152   5.262   2.044 -0.4938 -0.3955  0.0805
10986SOL    HW233537   0.011   5.310   2.018 -0.2291  0.6603  0.5626
10987SOL     OW33538   0.556   8.147   6.406  0.4225  0.0744  0.1614
10987SOL    HW133539   0.537   8.057   6.377  0.4349 -0.8656  2.7594
10987SOL    HW233540   0.471   8.183   6.429  0.6693 -0.5642  2.3380
10988SOL     OW33541   5.104   7.948   7.966 -0.2645 -0.0071 -0.1407
10988SOL    HW133542   5.094   7.953   8.061  1.8531  1.0511  0.0710
10988SOL    HW233543   5.025   7.991   7.932 -0.5167  0.6024  1.1594
10989SOL     OW33544   7.574   9.892   1.955 -0.2404 -0.3273 -0.1245
10989SOL    HW133545   7.664   9.865   1.939 -0.1841 -1.1370  1.4050
10989SOL    HW233546   7.526   9.811   1.971 -1.3954  0.0400 -1.5134
10990SOL     OW33547   6.931   1.381   2.605  0.8339 -0.2536 -0.5615
10990SOL    HW133548   6.977   1.323   2.545  2.2908  0.9217 -0.6539
10990SOL    HW233549   6.957   1.469   2.576 -0.8982  0.4357 -0.1176
10991SOL     OW33550   6.545   1.745   3.978  0.8247  0.4794 -0.2195
10991SOL    HW133551   6.596   1.741   4.059 -0.0614 -0.2945  0.3219
10991SOL    HW233552   6.568   1.664   3.932  1.0164  0.7221 -0.5515
10992SOL     OW33553   4.598   1.941   8.315 -0.0241  0.1076  0.1707
10992SOL    HW133554   4.674   1.919   8.369 -0.5433 -2.1666  0.0556
10992SOL    HW233555   4.535   1.978   8.376  0.6174  0.6658  0.5132
10993SOL     OW33556   6.881   7.909   0.417  0.1103  0.1362 -0.6868
10993SOL    HW133557   6.933   7.830   0.427  1.6910  1.1410 -0.7160
10993SOL    HW233558   6.825   7.892   0.342 -1.2468 -1.8065  0.6759
10994SOL     OW33559   2.159   2.869   4.491 -0.1972  0.3086 -0.6150
10994SOL    HW133560   2.117   2.939   4.442 -0.2642  0.7858  0.1151
10994SOL    HW233561   2.126   2.878   4.580  1.1986  0.5045 -0.0932
10995SOL     OW33562   6.317   4.885   2.827 -0.1665 -0.3599 -0.2495
10995SOL    HW133563   6.368   4.958   2.793  0.7736 -0.6549  0.4739
10995SOL    HW233564   6.235   4.925   2.857 -0.2770  0.1561 -1.2098
10996SOL     OW33565   0.393   2.883   9.628 -0.5461  0.3876  0.3250
10996SOL    HW133566   0.374   2.804   9.678  1.6300 -0.4979 -0.1125
10996SOL    HW233567   0.351   2.868   9.543 -1.2007  0.2817  0.6635
10997SOL     OW33568   7.436   9.876   0.966  0.0903  0.0713 -0.0064
10997SOL    HW133569   7.349   9.901   0.936 -0.1576 -0.7125  0.0463
10997SOL    HW233570   7.432   9.886   1.061  0.1735  0.3845 -0.0350
10998SOL     OW33571   9.224   4.953   8.061 -0.2229 -0.1182 -0.3433
10998SOL    HW133572   9.203   5.026   8.003 -0.7527  0.1974  0.2354
10998SOL    HW233573   9.142   4.904   8.069 -0.8203  1.1219  1.9291
10999SOL     OW33574   5.255   3.027   6.652 -0.0513  0.3444 -0.2262
10999SOL    HW133575   5.322   3.032   6.721 -0.2345 -0.2245 -0.0103
10999SOL    HW233576   5.210   2.945   6.667  0.0966  0.0687 -1.2094
11000SOL     OW33577   8.625   8.739   7.135  0.3377  0.0127  0.1887
11000SOL    HW133578   8.595   8.827   7.114 -0.4939 -0.5138 -0.9317
11000SOL    HW233579   8.614   8.690   7.053  1.8048 -0.8646  0.4819
11001SOL     OW33580   4.639   2.825   8.415  0.0323  0.1001 -0.2539
11001SOL    HW133581   4.604   2.892   8.474  0.2652 -1.3038  1.6137
11001SOL    HW233582   4.721   2.797   8.457 -1.2416 -3.0380  0.5075
11002SOL     OW33583   0.474   6.043   0.283 -0.0999  0.4134 -0.4672
11002SOL    HW133584   0.396   5.998   0.250 -0.9838  1.3504  0.2514
11002SOL    HW233585   0.543   6.021   0.221 -0.8242 -0.7897 -0.8926
11003SOL     OW33586   8.952   8.287   2.417  0.2110  0.3146 -0.3829
11003SOL    HW133587   8.991   8.233   2.348 -3.2078 -0.1281 -2.1937
11003SOL    HW233588   8.934   8.225   2.488  0.4591 -0.0016 -0.5957
11004SOL     OW33589   6.942   7.374   7.073  0.2756  0.0535  0.3975
11004SOL    HW133590   7.030   7.382   7.035  0.1096 -2.1693 -0.6281
11004SOL    HW233591   6.957   7.332   7.158  0.1770 -0.7802  0.0063
11005SOL     OW33592   4.978   9.839   8.409 -0.6119  0.9302 -0.8123
11005SOL    HW133593   4.945   9.895   8.478 -0.5036 -0.2391  0.2132
11005SOL    HW233594   5.024   9.768   8.454  1.8770  1.5806 -2.1075
11006SOL     OW33595   3.515   9.570   4.206 -0.2913 -0.2996 -0.0533
11006SOL    HW133596   3.475   9.564   4.292  1.0488  0.8889  0.7071
11006SOL    HW233597   3.448   9.609   4.150 -1.8965 -2.9380 -0.1168
11007SOL     OW33598   8.085   1.513   9.519 -0.1044 -0.2365 -0.0950
11007SOL    HW133599   8.062   1.509   9.611 -2.0272 -0.9888 -0.5494
11007SOL    HW233600   8.060   1.427   9.484  1.4181 -0.2892 -1.1385
11008SOL     OW33601   1.721   1.584   0.161 -1.0209 -0.4429 -0.4840
11008SOL    HW133602   1.657   1.568   0.231  1.4317 -1.9260  1.6271
11008SOL    HW233603   1.763   1.666   0.186 -0.7492 -0.5130 -0.7150
11009SOL     OW33604   2.399   0.184   8.955 -0.2189  0.8243  0.7863
11009SOL    HW133605   2.435   0.237   9.026 -0.7334  1.3821  0.6404
11009SOL    HW233606   2.434   0.097   8.969 -1.3710  0.5972  2.5325
11010SOL     OW33607   8.412   2.466   4.353  0.4747  0.8625 -0.0907
11010SOL    HW133608   8.458   2.403   4.409  1.8930 -0.0883 -2.2051
11010SOL    HW233609   8.357   2.413   4.296  0.3931  1.6444 -0.7578
11011SOL     OW33610   0.895   5.242   1.784 -0.2869  0.0166  0.0534
11011SOL    HW133611   0.945   5.229   1.704 -1.3026  2.9587 -1.1950
11011SOL    HW233612   0.811   5.200   1.766  0.9887 -3.5608  1.5637
11012SOL     OW33613   1.284   7.671   3.502 -0.4460  0.2707  0.1814
11012SOL    HW133614   1.338   7.646   3.427 -0.3939 -0.1228  0.3440
11012SOL    HW233615   1.249   7.757   3.480 -0.4165  0.1631 -0.2857
11013SOL     OW33616   6.022   3.565   9.401  0.4936 -0.4635  0.7184
11013SOL    HW133617   5.946   3.584   9.345 -0.3938  0.6301  2.1991
11013SOL    HW233618   6.004   3.478   9.438 -0.4283  0.0702  1.5898
11014SOL     OW33619   9.846   6.274   6.362  0.5947 -0.2252 -0.0273
11014SOL    HW133620   9.883   6.254   6.448  1.3166 -2.2195 -0.7442
11014SOL    HW233621   9.752   6.269   6.374  0.6938 -0.5372  0.6510
11015SOL     OW33622   8.298   9.924   0.045  0.3382  0.4934 -0.5348
11015SOL    HW133623   8.384   9.918   0.004  1.6036  0.0949  1.9301
11015SOL    HW233624   8.283  10.018   0.056  0.0496  0.5955 -1.7135
11016SOL     OW33625   5.834   7.682   2.179 -0.2676 -0.6226  0.4524
11016SOL    HW133626   5.892   7.639   2.242  0.4909  0.7723  0.7542
11016SOL    HW233627   5.863   7.650   2.094  1.6770  0.7760  0.5120
11017SOL     OW33628   7.764   6.165   7.551 -0.1066  0.3697 -0.0297
11017SOL    HW133629   7.709   6.237   7.522  0.1314  0.1427 -1.0576
11017SOL    HW233630   7.730   6.087   7.507 -1.0647 -0.3965  1.9016
11018SOL     OW33631   2.419   4.720   8.583 -0.5264 -0.0924 -0.1875
11018SOL    HW133632   2.324   4.719   8.574 -0.4995 -1.1298 -0.4221
11018SOL    HW233633   2.434   4.749   8.673 -1.1244 -1.5064  0.3996
11019SOL     OW33634   1.832   9.943   3.701  0.2144  0.0086 -0.9105
11019SOL    HW133635   1.821  10.016   3.762 -1.0410  0.0078 -1.1110
11019SOL    HW233636   1.809   9.866   3.752 -1.0291  0.0264 -1.4070
11020SOL     OW33637   3.052   5.465   1.208 -0.4353  0.1020 -0.1809
11020SOL    HW133638   2.968   5.423   1.186  0.1684 -1.7351  0.8120
11020SOL    HW233639   3.047   5.551   1.166 -3.3124  0.5548  0.8502
11021SOL     OW33640   5.669   1.177   0.767 -0.2472 -0.2217  0.0899
11021SOL    HW133641   5.719   1.098   0.790 -1.4670 -0.8876  0.5549
11021SOL    HW233642   5.584   1.144   0.739 -1.0624  0.9773  1.0654
11022SOL     OW33643   1.330   7.780   8.359 -0.2988 -0.2881  0.2048
11022SOL    HW133644   1.413   7.826   8.341 -1.2654  0.9949 -1.1873
11022SOL    HW233645   1.357   7.700   8.404  1.4906  1.5945  2.8204
11023SOL     OW33646   4.875   9.237   1.469 -0.2315  0.0595 -0.1350
11023SOL    HW133647   4.910   9.324   1.453  3.3682 -0.6974  2.3883
11023SOL    HW233648   4.834   9.243   1.555  0.0878 -0.7045  0.0811
11024SOL     OW33649   6.888   4.139   5.922 -0.1702  0.1946  0.3476
11024SOL    HW133650   6.841   4.108   6.000  0.1216  0.2218  0.5349
11024SOL    HW233651   6.862   4.078   5.853  0.7740 -0.7834  0.8169
11025SOL     OW33652   2.998   6.635   0.325  0.0363 -0.1643  0.1908
11025SOL    HW133653   3.062   6.611   0.393 -2.3710 -2.1141  1.9861
11025SOL    HW233654   2.969   6.552   0.288 -1.7712  0.5782 -0.2105
11026SOL     OW33655   7.005   9.159   8.171 -0.2539  0.0734  0.1122
11026SOL    HW133656   7.096   9.175   8.147 -0.1176 -0.7869  0.0218
11026SOL    HW233657   6.991   9.212   8.250  0.4822 -0.1963  0.4268
11027SOL     OW33658   4.411   0.857   1.222  0.8984  0.0044 -0.0858
11027SOL    HW133659   4.402   0.952   1.231 -0.1325 -0.1181  0.2939
11027SOL    HW233660   4.323   0.823   1.236  1.0312 -0.9306 -1.3585
11028SOL     OW33661   1.774   8.857   2.116  0.1991 -0.1500 -0.1527
11028SOL    HW133662   1.801   8.945   2.089  1.2494 -0.5517 -0.4656
11028SOL    HW233663   1.797   8.801   2.042  0.7659 -0.8842  0.5621
11029SOL     OW33664   5.014   8.917   4.096 -0.2676  0.4131  0.3233
11029SOL    HW133665   5.097   8.943   4.135  0.2308  1.3910 -1.2910
11029SOL    HW233666   5.034   8.901   4.004 -1.2606 -2.4358  0.4822
11030SOL     OW33667   6.060   3.714   3.364  0.2733  0.0538  0.2191
11030SOL    HW133668   6.153   3.713   3.342 -0.0904 -1.6666 -1.4866
11030SOL    HW233669   6.038   3.807   3.368  1.3888  0.5396 -2.5666
11031SOL     OW33670   5.421   3.441   2.875  0.6225  0.0817  0.2314
11031SOL    HW133671   5.344   3.384   2.882  2.3913 -3.0873 -2.9582
11031SOL    HW233672   5.400   3.502   2.803  0.7184 -0.1301  0.0232
11032SOL     OW33673   9.196   8.344   8.526 -0.1050  0.3174  0.3599
11032SOL    HW133674   9.159   8.271   8.575 -0.6828  0.5636  0.2992
11032SOL    HW233675   9.122   8.403   8.511  0.7054  1.8512  2.0427
11033SOL     OW33676   9.368   5.863   2.224  0.3193  0.2328 -0.2758
11033SOL    HW133677   9.415   5.805   2.284  0.7775  0.4482 -0.4271
11033SOL    HW233678   9.412   5.851   2.139  0.0106  0.3247 -0.4502
11034SOL     OW33679   3.003   1.497   7.176  0.0878  0.5636 -0.0179
11034SOL    HW133680   2.941   1.529   7.241  0.9275 -0.5929  1.4442
11034SOL    HW233681   3.068   1.567   7.168  2.6352 -0.9251  4.1117
11035SOL     OW33682   7.586   9.982   7.249 -0.1091 -0.2716 -0.1074
11035SOL    HW133683   7.578  10.040   7.173  1.3837 -0.0086 -0.1096
11035SOL    HW233684   7.646   9.913   7.220 -1.1308 -1.3253  0.1969
11036SOL     OW33685   4.895   0.207   8.429  0.0328  0.4491 -0.3367
11036SOL    HW133686   4.859   0.196   8.341 -0.2185 -0.2003 -0.1583
11036SOL    HW233687   4.919   0.119   8.456 -1.0809  0.4458  0.7465
11037SOL     OW33688   0.871   3.549   4.317 -0.3117 -0.0116 -0.5433
11037SOL    HW133689   0.918   3.478   4.360 -0.9903  1.0211  2.1702
11037SOL    HW233690   0.779   3.522   4.319 -0.6548  1.1273  1.0964
11038SOL     OW33691   7.852   9.868   9.148 -0.1875 -0.2767  0.0652
11038SOL    HW133692   7.878   9.872   9.055 -0.0725 -1.3519  0.0407
11038SOL    HW233693   7.758   9.883   9.147 -0.0644  0.4959 -0.1512
11039SOL     OW33694   0.733   4.962   9.920  0.1134  0.0363 -0.2256
11039SOL    HW133695   0.744   4.918  10.004 -0.1769 -1.5963 -1.0100
11039SOL    HW233696   0.774   4.904   9.856 -0.3510  0.8701 -1.3223
11040SOL     OW33697   8.021   4.576   9.238 -0.0447  0.1812  0.2384
11040SOL    HW133698   8.004   4.505   9.176 -0.5896  1.9137 -1.7219
11040SOL    HW233699   7.936   4.593   9.278  0.1302 -0.3800  0.8674
11041SOL     OW33700   2.662   1.862   0.830 -0.1621  0.6271  0.2849
11041SOL    HW133701   2.722   1.888   0.899  0.9810  0.4345 -0.6093
11041SOL    HW233702   2.619   1.943   0.803  1.3556  1.1843 -0.5867
11042SOL     OW33703   6.092   7.403   0.065  0.4822  0.4817  0.1016
11042SOL    HW133704   6.123   7.459  -0.005 -0.7313  1.4688  0.3208
11042SOL    HW233705   6.121   7.445   0.146 -0.8831  1.1296  0.2884
11043SOL     OW33706   6.621   0.555   2.747  0.2061 -0.4988 -0.5299
11043SOL    HW133707   6.548   0.495   2.730 -0.0661 -0.4006  0.2970
11043SOL    HW233708   6.652   0.579   2.659  1.6018 -3.3880 -0.9434
11044SOL     OW33709   9.895   2.501   5.756 -0.0411  0.5888 -0.1138
11044SOL    HW133710   9.946   2.435   5.710  1.2886  1.4868  0.0113
11044SOL    HW233711   9.812   2.505   5.708  0.6816  0.3401 -1.4288
11045SOL     OW33712   4.090   3.134   4.811 -0.0034  0.7716  0.3864
11045SOL    HW133713   4.080   3.166   4.900  0.2272  1.9505  0.0149
11045SOL    HW233714   4.181   3.107   4.804 -0.1761  0.0845  0.6753
11046SOL     OW33715   3.948   0.178   2.577  0.2472  0.1821 -0.0884
11046SOL    HW133716   3.859   0.208   2.592 -0.0642  0.1269 -1.6079
11046SOL    HW233717   4.004   0.239   2.624 -0.5283  1.1362 -0.3936
11047SOL     OW33718   6.530   3.477   0.443  0.3795 -0.3225 -0.4602
11047SOL    HW133719   6.551   3.508   0.355 -1.2376  0.5664 -0.5619
11047SOL    HW233720   6.564   3.545   0.502  2.5494 -1.4792 -0.2576
11048SOL     OW33721   1.161   4.860   9.912  0.0057 -0.2227  0.6003
11048SOL    HW133722   1.088   4.918   9.932  0.1696  0.8225 -1.5777
11048SOL    HW233723   1.232   4.889   9.971 -0.4649  0.5965  0.7796
11049SOL     OW33724   0.185   0.816   9.647 -0.9182 -0.7787  0.3859
11049SOL    HW133725   0.203   0.731   9.689 -1.4537 -1.0190  0.1313
11049SOL    HW233726   0.174   0.795   9.554 -0.3789 -0.3330  0.2182
11050SOL     OW33727   1.437   7.529   2.608 -0.4501  0.6547  0.2844
11050SOL    HW133728   1.374   7.543   2.537 -0.3382 -1.7484 -0.3850
11050SOL    HW233729   1.453   7.435   2.607 -0.3599  0.5206  3.4480
11051SOL     OW33730   8.814   2.291   5.878  0.1251 -0.4746 -0.3077
11051SOL    HW133731   8.873   2.242   5.820  1.6885  1.6751 -0.6518
11051SOL    HW233732   8.750   2.330   5.819 -0.7887 -1.5994 -0.0914
11052SOL     OW33733   4.488   5.500   3.704 -0.1943 -0.4003  0.8396
11052SOL    HW133734   4.562   5.558   3.685  0.8291 -1.7327  0.6073
11052SOL    HW233735   4.411   5.556   3.696  0.5129  0.2899 -2.3412
11053SOL     OW33736   4.237   6.982   0.054  0.3981 -0.2388 -0.2325
11053SOL    HW133737   4.310   6.933   0.016  0.6387  0.3073 -0.4950
11053SOL    HW233738   4.277   7.061   0.090 -0.0043 -0.1470  0.0226
11054SOL     OW33739   5.763   5.116   9.039 -0.3047  0.1417  0.3301
11054SOL    HW133740   5.755   5.053   8.968  1.9679 -1.2601  1.1992
11054SOL    HW233741   5.826   5.181   9.008  0.7045 -0.4807  1.0197
11055SOL     OW33742   6.333   5.080   1.667  0.0427 -0.2319  0.1149
11055SOL    HW133743   6.322   5.001   1.616  1.5964 -0.2697 -0.1986
11055SOL    HW233744   6.289   5.061   1.751 -3.2706  0.1263 -1.3659
11056SOL     OW33745   1.784   3.159   2.161  0.0892 -0.4727 -0.2078
11056SOL    HW133746   1.763   3.196   2.075  0.4303 -0.0255 -0.1025
11056SOL    HW233747   1.879   3.152   2.162  0.1968  0.7448  0.6179
11057SOL     OW33748   7.819   6.021   0.623 -0.0719  0.0367  0.7592
11057SOL    HW133749   7.891   6.080   0.645 -0.4363  0.4515  0.8487
11057SOL    HW233750   7.863   5.941   0.591  0.4155  0.5983 -0.0117
11058SOL     OW33751   9.777   8.191   4.008 -0.2081  0.5302 -0.4651
11058SOL    HW133752   9.746   8.256   3.944  0.0722  0.7505 -0.3798
11058SOL    HW233753   9.872   8.190   3.996 -0.3550 -1.2812 -1.8183
11059SOL     OW33754   2.539   1.497   5.198  0.2957 -0.5274 -0.1253
11059SOL    HW133755   2.589   1.482   5.119 -1.2260  0.1352 -1.2683
11059SOL    HW233756   2.466   1.435   5.194 -0.4436  0.2826  0.1416
11060SOL     OW33757   7.900   0.127   1.086  0.2190 -0.6407  0.1957
11060SOL    HW133758   7.963   0.110   1.157  1.0966  0.7127 -0.2219
11060SOL    HW233759   7.902   0.222   1.074 -1.3113 -0.6497 -0.4016
11061SOL     OW33760   8.089   6.840   3.337 -0.7442 -0.4489  0.2805
11061SOL    HW133761   8.185   6.832   3.341 -0.5599 -0.3540 -2.3015
11061SOL    HW233762   8.058   6.791   3.413  1.3231 -0.9824  0.8522
11062SOL     OW33763   6.098   6.167   0.317 -1.0331  1.1064  0.0170
11062SOL    HW133764   6.083   6.149   0.224 -2.7252 -2.3077  0.7636
11062SOL    HW233765   6.011   6.186   0.352 -2.1413 -5.2832  2.0185
11063SOL     OW33766   4.559   1.269   5.231  0.1942 -0.3418 -0.6301
11063SOL    HW133767   4.599   1.356   5.238  0.3621 -0.5557  2.7187
11063SOL    HW233768   4.466   1.287   5.217  0.2021  0.4044  0.1985
11064SOL     OW33769   0.057   6.801   6.846 -0.0635  0.0870 -0.4925
11064SOL    HW133770   0.114   6.725   6.832 -0.7105 -0.4053 -0.5050
11064SOL    HW233771   0.029   6.794   6.937  0.3912  0.6776 -0.3030
11065SOL     OW33772   5.453   5.193   2.151 -0.1361 -0.4476  0.1001
11065SOL    HW133773   5.424   5.118   2.204  0.5717 -2.7500 -2.5389
11065SOL    HW233774   5.413   5.178   2.065  0.6472  1.8542 -0.7289
11066SOL     OW33775   8.928   5.570   7.665 -0.0954 -0.1932 -0.1406
11066SOL    HW133776   9.009   5.607   7.632 -0.2102 -2.2049 -3.0296
11066SOL    HW233777   8.950   5.539   7.753  2.5483 -1.4145 -1.1321
11067SOL     OW33778   7.018   7.128   4.791  0.4296 -0.2863 -0.1066
11067SOL    HW133779   7.042   7.150   4.881 -0.2420  1.1738 -0.2653
11067SOL    HW233780   6.928   7.159   4.782  0.9385  0.8108 -1.6962
11068SOL     OW33781   3.874   0.419   2.281 -0.4155  0.4381  0.2201
11068SOL    HW133782   3.879   0.493   2.342 -2.2604 -1.0153  2.3246
11068SOL    HW233783   3.942   0.358   2.312 -1.0082 -0.0804  0.5231
11069SOL     OW33784   2.409   2.003   3.599 -0.3864 -0.3449 -0.3320
11069SOL    HW133785   2.357   2.071   3.556  0.8492  0.1293 -1.1303
11069SOL    HW233786   2.465   2.052   3.660  2.5437 -0.1774 -2.8690
11070SOL     OW33787   8.353   9.617   8.456 -0.8173  0.1095  0.6199
11070SOL    HW133788   8.355   9.536   8.506 -1.1190 -0.7547 -0.7191
11070SOL    HW233789   8.291   9.600   8.384  1.5948  0.3170 -1.6681
11071SOL     OW33790   1.877   0.931   8.476  0.2358  0.7749 -0.5906
11071SOL    HW133791   1.811   0.895   8.417  0.1205  0.3208 -0.1932
11071SOL    HW233792   1.879   0.869   8.549 -0.3053  1.8233  0.3294
11072SOL     OW33793   7.813   1.076   1.040  0.7306  0.0007 -0.0271
11072SOL    HW133794   7.837   1.166   1.060  0.3248  0.5998 -1.9824
11072SOL    HW233795   7.895   1.033   1.017  0.8721 -0.0260  0.5231
11073SOL     OW33796   3.734   8.245   7.827  0.5198  0.0721  0.0908
11073SOL    HW133797   3.710   8.263   7.917  0.5250 -0.6756  0.2433
11073SOL    HW233798   3.663   8.190   7.793 -0.8231  2.4061 -1.1590
11074SOL     OW33799   7.974   7.710   3.769 -0.2031 -0.1859  0.0369
11074SOL    HW133800   7.958   7.723   3.862  2.1342  0.1582  0.4573
11074SOL    HW233801   7.978   7.615   3.759  0.0175 -0.2166  0.3913
11075SOL     OW33802   9.866   2.735   4.133 -0.3773 -0.2457 -0.0591
11075SOL    HW133803   9.858   2.730   4.038  1.1706 -0.3481 -0.2099
11075SOL    HW233804   9.779   2.715   4.165 -0.4181 -2.5624 -1.3897
11076SOL     OW33805   9.849   6.513   2.866 -0.2265  0.1660  0.1233
11076SOL    HW133806   9.847   6.419   2.850 -0.4333  0.3978 -1.3039
11076SOL    HW233807   9.939   6.530   2.895 -0.4020 -0.5716  1.1746
11077SOL     OW33808   8.298   0.057   3.313  0.2359  0.3528  0.2507
11077SOL    HW133809   8.203   0.071   3.309  0.1935  0.4906  1.3340
11077SOL    HW233810   8.322   0.030   3.224 -1.2238 -2.2591  0.5437
11078SOL     OW33811   3.176   9.533   2.361  0.0631 -0.2410  0.6902
11078SOL    HW133812   3.086   9.522   2.329  0.9846 -1.0018 -1.8847
11078SOL    HW233813   3.205   9.616   2.323  0.7235 -0.4029  0.8347
11079SOL     OW33814   9.841   9.985   3.931 -0.2776 -0.3282  0.2279
11079SOL    HW133815   9.863   9.922   4.000  0.8273  1.1583  1.2930
11079SOL    HW233816   9.853   9.935   3.849 -1.4794 -2.0765  1.0539
11080SOL     OW33817   9.086   7.724   0.423 -0.4893 -0.4219 -0.2356
11080SOL    HW133818   9.170   7.687   0.397 -0.5682 -1.4055  0.8422
11080SOL    HW233819   9.095   7.740   0.517 -1.0440  0.7525 -0.3725
11081SOL     OW33820   0.347   5.331   7.323 -0.2963 -0.2777  0.7048
11081SOL    HW133821   0.284   5.260   7.314  0.5078 -0.9414  0.1935
11081SOL    HW233822   0.295   5.411   7.312 -1.0349 -0.8101  0.2336
11082SOL     OW33823   0.093   2.971   7.000  0.2706  0.3385 -0.7987
11082SOL    HW133824   0.006   2.933   7.014 -0.6284  2.5981  0.4179
11082SOL    HW233825   0.085   3.017   6.916 -0.6472  2.7117  0.5014
11083SOL     OW33826   7.617   8.628   4.751 -0.0998 -0.0647 -0.3101
11083SOL    HW133827   7.694   8.573   4.739  0.0171  0.5241 -2.9065
11083SOL    HW233828   7.645   8.696   4.812  1.6727  0.4756 -1.6418
11084SOL     OW33829   0.499   4.266   6.989  0.3433 -0.6429  0.0205
11084SOL    HW133830   0.587   4.229   6.993  0.1073 -1.2052  0.1240
11084SOL    HW233831   0.469   4.247   6.900  0.3914 -0.2923 -0.0727
11085SOL     OW33832   1.395   3.555   8.912  0.7370  0.2831 -0.2521
11085SOL    HW133833   1.415   3.522   8.999  0.6275 -0.1259 -0.3796
11085SOL    HW233834   1.463   3.621   8.895  0.4705  0.7103  0.3303
11086SOL     OW33835   7.468   0.587   2.344 -0.3731 -0.7913 -0.8950
11086SOL    HW133836   7.392   0.529   2.354 -1.6003  0.6905 -1.2409
11086SOL    HW233837   7.452   0.632   2.261  1.5103 -1.2935 -1.5793
11087SOL     OW33838   2.477   1.285   7.584 -0.1979 -0.2752 -0.1116
11087SOL    HW133839   2.424   1.271   7.663  1.5821 -0.1460  1.1487
11087SOL    HW233840   2.480   1.199   7.542 -0.7996 -0.4444  0.1696
11088SOL     OW33841   6.817   3.540   9.930 -0.1720  0.0145  0.2633
11088SOL    HW133842   6.772   3.477   9.987 -0.2845  1.2975  1.6575
11088SOL    HW233843   6.910   3.522   9.944 -0.1832  0.7229  1.3732
11089SOL     OW33844   6.597   3.657   9.508 -0.1515  0.2851  0.6273
11089SOL    HW133845   6.618   3.619   9.594 -0.5392 -0.9065  0.2098
11089SOL    HW233846   6.527   3.720   9.526 -0.1308  0.1496  1.1986
11090SOL     OW33847   9.252   8.805   5.728  0.1644  0.5801  0.7939
11090SOL    HW133848   9.290   8.801   5.640 -2.0683 -0.5841 -0.2007
11090SOL    HW233849   9.275   8.893   5.759  1.7919  0.6940 -0.5444
11091SOL     OW33850   5.438   4.342   1.221  0.7693  0.0701 -0.2307
11091SOL    HW133851   5.475   4.277   1.282  1.1783 -0.1982 -0.7551
11091SOL    HW233852   5.515   4.386   1.184  0.5547 -0.1782 -0.9903
11092SOL     OW33853   3.712   7.754   4.192  0.8987 -0.1443  0.3060
11092SOL    HW133854   3.618   7.764   4.175  0.4861 -1.4126  1.6288
11092SOL    HW233855   3.752   7.832   4.153 -0.8164  0.9304  0.5934
11093SOL     OW33856   8.125   1.138   5.806  0.6872 -0.3223  0.1851
11093SOL    HW133857   8.175   1.144   5.724  1.8019 -1.8107  0.7102
11093SOL    HW233858   8.177   1.186   5.870  0.2701  0.0719  0.2342
11094SOL     OW33859   2.492   8.106   0.964 -0.9680 -0.0348  0.0840
11094SOL    HW133860   2.586   8.092   0.957 -0.9299  0.1303  0.2508
11094SOL    HW233861   2.453   8.027   0.926 -0.7654  0.0691 -0.3490
11095SOL     OW33862   7.396   1.648   3.624  0.2506  0.0227 -0.2718
11095SOL    HW133863   7.328   1.672   3.560  1.4792  1.5819 -1.0588
11095SOL    HW233864   7.391   1.717   3.690 -0.0610 -0.8102  0.5870
11096SOL     OW33865   5.182   6.393   8.791 -0.2772  0.4177  0.6107
11096SOL    HW133866   5.235   6.388   8.712 -2.1430  0.6168 -0.7002
11096SOL    HW233867   5.109   6.333   8.775 -0.6706  0.4134  2.2126
11097SOL     OW33868   2.344   7.238   6.763  0.0731 -0.8254 -0.4706
11097SOL    HW133869   2.325   7.161   6.817 -1.6125 -0.4487 -0.4685
11097SOL    HW233870   2.276   7.237   6.695  2.0201 -1.1961 -2.5592
11098SOL     OW33871   1.878   1.927   5.845 -0.4054 -0.2515  0.4394
11098SOL    HW133872   1.833   2.006   5.873  0.6789  0.6858 -0.3755
11098SOL    HW233873   1.948   1.915   5.908 -0.4273 -0.4434  0.4297
11099SOL     OW33874   4.664   8.422   6.571  0.1434  0.6120  0.2875
11099SOL    HW133875   4.676   8.465   6.656 -0.2316 -0.4688  0.8978
11099SOL    HW233876   4.586   8.464   6.535  0.0309  0.7474  0.6805
11100SOL     OW33877   6.956   0.442   1.799  0.7352 -0.6407  0.0335
11100SOL    HW133878   6.918   0.530   1.801  0.1929 -0.8806  0.3229
11100SOL    HW233879   6.896   0.388   1.850 -0.2576 -1.7028 -2.1113
11101SOL     OW33880   3.039   0.521   8.277 -0.3488 -0.5897 -0.3115
11101SOL    HW133881   3.018   0.462   8.349  1.3381  0.1297  0.8404
11101SOL    HW233882   3.122   0.561   8.302 -1.0348  1.6944 -1.3948
11102SOL     OW33883   7.619   0.274   2.789 -0.1359  0.0585  0.4450
11102SOL    HW133884   7.571   0.229   2.858 -0.5608  0.8788  0.6941
11102SOL    HW233885   7.575   0.248   2.708  0.4467 -1.0114  0.4549
11103SOL     OW33886   9.080   9.654   8.766 -0.2379  0.3268  0.0202
11103SOL    HW133887   9.057   9.569   8.729  1.9727  0.0196 -0.7946
11103SOL    HW233888   9.115   9.635   8.853  0.6681  0.3355 -0.3339
11104SOL     OW33889   7.625   1.550   3.080  0.0963 -0.3098  0.0886
11104SOL    HW133890   7.583   1.630   3.113 -0.9756 -0.4850 -0.7839
11104SOL    HW233891   7.700   1.583   3.029 -1.1181  0.2637 -1.4092
11105SOL     OW33892   9.582   3.783   8.636  0.0192  0.4277 -0.0692
11105SOL    HW133893   9.493   3.750   8.623  1.2538 -3.5782  0.3591
11105SOL    HW233894   9.580   3.872   8.600 -3.9625  0.3228 -0.5560
11106SOL     OW33895   2.338   9.018   0.774 -0.1490 -0.1510 -0.5169
11106SOL    HW133896   2.417   9.048   0.819 -0.8048 -1.0181  1.2959
11106SOL    HW233897   2.266   9.060   0.820 -0.8006  0.3325 -1.9115
11107SOL     OW33898   8.325   0.144   5.616 -0.3208 -0.1042  0.1121
11107SOL    HW133899   8.294   0.228   5.583  1.6286  1.6923  2.4554
11107SOL    HW233900   8.280   0.133   5.700 -0.6798 -1.5181 -0.2458
11108SOL     OW33901   0.979   9.310   9.046  0.6690 -0.1102 -0.6691
11108SOL    HW133902   0.892   9.274   9.066  0.4931 -0.1492 -1.4420
11108SOL    HW233903   1.038   9.235   9.050  0.5053 -0.2659 -1.0587
11109SOL     OW33904   1.905   9.805   1.176 -0.0972 -0.3811  0.0132
11109SOL    HW133905   1.993   9.772   1.196 -0.8556 -1.2129  2.4455
11109SOL    HW233906   1.919   9.882   1.121  2.2121  0.1334  1.2064
11110SOL     OW33907   4.924   6.349   1.790  0.1143  0.1564  0.1310
11110SOL    HW133908   4.852   6.402   1.756  0.3998  0.9264  0.7038
11110SOL    HW233909   5.003   6.399   1.770  0.4115 -0.1896  0.4273
11111SOL     OW33910   2.326   6.003   9.827  0.1943  0.8358  0.0522
11111SOL    HW133911   2.313   5.936   9.760  1.4484  1.1682 -0.5526
11111SOL    HW233912   2.242   6.049   9.831  0.0111  0.6476 -1.1187
11112SOL     OW33913   4.204   8.090   9.007 -0.0037 -0.3109  0.3450
11112SOL    HW133914   4.185   8.169   9.059 -0.7610 -0.4157  0.2402
11112SOL    HW233915   4.224   8.123   8.919  0.7834 -0.1678  0.5673
11113SOL     OW33916   9.815   2.579   5.443 -0.1518 -0.0708  0.1213
11113SOL    HW133917   9.876   2.570   5.370 -0.2636 -1.0563  0.1397
11113SOL    HW233918   9.754   2.506   5.433 -1.5661  1.1012 -0.1122
11114SOL     OW33919   2.235   6.313   7.918  0.0924  0.0359 -0.1695
11114SOL    HW133920   2.181   6.377   7.872  0.6132  1.1011  0.6588
11114SOL    HW233921   2.320   6.315   7.875  0.5491  0.9597  0.7359
11115SOL     OW33922   5.218   6.686   9.400 -0.2725 -0.2591  0.1169
11115SOL    HW133923   5.270   6.698   9.321 -0.4768  1.7041  0.2461
11115SOL    HW233924   5.141   6.637   9.370  0.9100 -1.9333 -0.3358
11116SOL     OW33925   9.634   4.698   0.059  0.2530 -0.5901  0.9923
11116SOL    HW133926   9.694   4.767   0.031 -1.5215  0.8546  0.5456
11116SOL    HW233927   9.680   4.617   0.039  1.5365  0.4467 -0.5356
11117SOL     OW33928   4.726   4.362   0.178 -0.2911  0.1351  0.4564
11117SOL    HW133929   4.770   4.312   0.247  0.1406  1.7321  1.3814
11117SOL    HW233930   4.653   4.405   0.222  0.2755  1.5603  0.0464
11118SOL     OW33931   5.936   0.505   3.074 -1.0862 -0.2590  0.5842
11118SOL    HW133932   5.932   0.589   3.027 -2.1305  0.0660  1.2027
11118SOL    HW233933   6.026   0.475   3.063 -0.7691  0.8123  0.1149
11119SOL     OW33934   8.701   4.943   7.406  0.3998  0.3237  0.0581
11119SOL    HW133935   8.663   5.001   7.339  0.0095 -0.7344 -0.6633
11119SOL    HW233936   8.692   4.855   7.369  2.0823 -0.1096  0.6002
11120SOL     OW33937   7.695   7.455   0.566 -0.2860 -0.7733  0.2730
11120SOL    HW133938   7.683   7.514   0.640  0.1850 -1.3049  0.7818
11120SOL    HW233939   7.736   7.377   0.603  0.2021 -0.9456 -0.5943
11121SOL     OW33940   9.114   3.756   9.401  0.1916  0.2545 -0.3127
11121SOL    HW133941   9.027   3.721   9.384  1.1131 -2.1638 -0.3432
11121SOL    HW233942   9.152   3.770   9.314 -0.1026  1.2678 -0.2983
11122SOL     OW33943   8.888   5.158   0.639 -0.2177  0.7171 -0.4664
11122SOL    HW133944   8.804   5.198   0.659 -0.5813 -0.5522  0.6940
11122SOL    HW233945   8.895   5.163   0.544 -2.1322 -0.1271 -0.7049
11123SOL     OW33946   3.432   6.141   9.030  0.1331  0.3586  0.7525
11123SOL    HW133947   3.391   6.124   9.115 -0.5596 -2.3032 -0.0199
11123SOL    HW233948   3.359   6.150   8.970  0.6477  1.0811  0.2189
11124SOL     OW33949   3.035   8.915   2.011 -0.4021 -0.0907  0.6559
11124SOL    HW133950   3.077   8.995   2.043 -0.3480  0.2240 -0.1909
11124SOL    HW233951   2.949   8.944   1.979  1.1429  0.4576 -3.5909
11125SOL     OW33952   9.176   6.840   0.802  0.4574  0.2153 -0.1502
11125SOL    HW133953   9.140   6.929   0.809  1.7519  0.7552 -0.1876
11125SOL    HW233954   9.107   6.791   0.757 -0.2473  1.2078 -0.2032
11126SOL     OW33955   1.045   1.401   7.201  0.1308 -0.4226 -0.2992
11126SOL    HW133956   1.036   1.317   7.156 -0.2507 -1.2524  1.2624
11126SOL    HW233957   0.969   1.405   7.259  0.2126  0.9532 -0.2587
11127SOL     OW33958   0.252   6.469   4.728  0.1452 -0.0792 -0.0603
11127SOL    HW133959   0.157   6.455   4.738  0.2103 -0.4611  0.0382
11127SOL    HW233960   0.278   6.510   4.810  0.6550 -3.0952  1.4352
11128SOL     OW33961   6.403   1.444   3.719  0.5213  0.1854 -0.6124
11128SOL    HW133962   6.362   1.359   3.736 -0.1036  0.4208 -0.9326
11128SOL    HW233963   6.360   1.504   3.780  0.7620  0.3368 -0.5886
11129SOL     OW33964   3.760   9.528   2.064  0.0556  0.1709  0.0918
11129SOL    HW133965   3.812   9.577   2.127  0.1205 -1.0102  0.9632
11129SOL    HW233966   3.670   9.537   2.095  0.0483 -0.1123  0.1546
11130SOL     OW33967   4.757   2.656   1.126  0.0172  0.3857 -0.0838
11130SOL    HW133968   4.829   2.592   1.130 -0.4842 -0.3829 -1.9954
11130SOL    HW233969   4.800   2.741   1.121  0.7262  0.1263  1.2735
11131SOL     OW33970   9.891   1.964   2.751 -0.0801 -0.2332  0.2796
11131SOL    HW133971   9.951   1.931   2.818 -0.1708  1.2114  1.1217
11131SOL    HW233972   9.942   1.962   2.670 -0.0660 -2.3013  0.2851
11132SOL     OW33973   3.711   2.128   2.300 -0.0644  0.4262 -0.0377
11132SOL    HW133974   3.750   2.211   2.328  2.3573 -0.8864  0.7452
11132SOL    HW233975   3.617   2.147   2.294  0.5478  3.6838 -1.6612
11133SOL     OW33976   5.685   4.130   5.187  0.0813  0.0750  0.2071
11133SOL    HW133977   5.681   4.174   5.272  0.0363 -0.8245  0.6842
11133SOL    HW233978   5.619   4.173   5.134 -0.0818  0.4630  0.7201
11134SOL     OW33979   9.548   2.802   8.323  0.2595  0.6140  0.4406
11134SOL    HW133980   9.484   2.873   8.330  0.2422  0.6753 -0.2390
11134SOL    HW233981   9.585   2.812   8.235  1.2676  0.6398  0.8481
11135SOL     OW33982   6.633   8.100   5.079  0.2801 -0.2332 -0.1002
11135SOL    HW133983   6.697   8.039   5.043  0.3427  0.2344 -0.7810
11135SOL    HW233984   6.663   8.187   5.052 -0.7223 -0.0199 -0.5662
11136SOL     OW33985   2.808   0.196   0.214 -0.2297  0.6642  0.2257
11136SOL    HW133986   2.878   0.166   0.156  0.9351 -0.8212  2.2580
11136SOL    HW233987   2.752   0.120   0.226 -0.4371  0.9266  1.0288
11137SOL     OW33988   1.842   6.525   6.752  0.0922 -0.0281 -0.1932
11137SOL    HW133989   1.819   6.528   6.845  0.4719 -2.0092  0.0209
11137SOL    HW233990   1.916   6.585   6.743 -0.4631  0.8008  0.6024
11138SOL     OW33991   7.570   8.774   5.101  0.1016  0.5437  0.2929
11138SOL    HW133992   7.489   8.786   5.150 -0.5536  0.2569 -0.6999
11138SOL    HW233993   7.605   8.863   5.091 -1.2556  0.9587 -1.1914
11139SOL     OW33994   0.747   6.299   2.620 -0.7524 -0.1804  0.9735
11139SOL    HW133995   0.672   6.357   2.608 -1.3757 -1.1602 -0.0381
11139SOL    HW233996   0.764   6.263   2.533 -0.1784 -1.2553  1.5073
11140SOL     OW33997   7.088   7.685   8.120  0.4082  0.7097 -0.8322
11140SOL    HW133998   7.036   7.660   8.043 -1.4972 -1.8731  1.0959
11140SOL    HW233999   7.029   7.740   8.172  0.9080  0.6849 -0.2279
11141SOL     OW34000   5.519   7.339   5.494 -1.1870 -0.0868 -0.0908
11141SOL    HW134001   5.587   7.373   5.435 -0.6597 -0.3491  0.3649
11141SOL    HW234002   5.550   7.254   5.521 -0.8998  0.4758  1.4239
11142SOL     OW34003   7.866   3.591   8.844  0.2432 -0.1367 -0.0168
11142SOL    HW134004   7.785   3.558   8.884 -1.3269  2.1593 -1.0954
11142SOL    HW234005   7.863   3.560   8.754  0.0515  0.7131 -0.3168
11143SOL     OW34006   0.822   3.306   6.075 -0.3134 -0.0522 -0.2752
11143SOL    HW134007   0.752   3.356   6.032 -0.8922  0.5405  1.2797
11143SOL    HW234008   0.898   3.365   6.074 -0.8898  0.7918  1.2231
11144SOL     OW34009   7.033   8.889   8.479 -0.1532 -0.4038 -0.1762
11144SOL    HW134010   6.984   8.826   8.427  2.1676 -1.9384 -0.6675
11144SOL    HW234011   7.053   8.843   8.560  1.3485 -0.2841 -0.4394
11145SOL     OW34012   1.782   1.412   0.428  0.3047 -0.0878 -0.3341
11145SOL    HW134013   1.766   1.322   0.458 -0.4944  0.4753  0.9986
11145SOL    HW234014   1.696   1.444   0.401  0.6950  0.0759 -1.4176
11146SOL     OW34015   5.910   0.174   4.942  0.8946  0.2939  0.1785
11146SOL    HW134016   5.859   0.230   5.001 -1.9164 -1.1747 -0.6938
11146SOL    HW234017   5.930   0.097   4.994  1.4238  0.4549  0.2204
11147SOL     OW34018   0.876   2.343   2.762  0.3498  0.1797  0.0486
11147SOL    HW134019   0.906   2.288   2.835  0.7739  0.6544  0.2367
11147SOL    HW234020   0.826   2.283   2.706  1.5147 -0.5959 -0.1843
11148SOL     OW34021   6.533   7.147   2.067  0.0823 -0.0092 -0.2703
11148SOL    HW134022   6.580   7.118   1.988 -2.0157 -0.5551 -1.3912
11148SOL    HW234023   6.517   7.241   2.052  1.5156  0.4065  0.5408
11149SOL     OW34024   9.428   6.540   1.122 -0.7728  0.4482 -0.2602
11149SOL    HW134025   9.511   6.565   1.163 -0.4471  0.2870 -0.8177
11149SOL    HW234026   9.382   6.623   1.109 -1.4427  0.4307  1.5694
11150SOL     OW34027   1.218   7.965   5.710  0.4168 -0.0115  0.1265
11150SOL    HW134028   1.256   7.886   5.749 -0.6334  0.6226  2.5974
11150SOL    HW234029   1.179   7.934   5.628 -0.8587 -2.2916  1.4826
11151SOL     OW34030   8.917   4.092   6.623  0.3241 -0.1203  0.0670
11151SOL    HW134031   8.954   4.114   6.709  1.0023  0.6376 -0.4070
11151SOL    HW234032   8.994   4.075   6.568 -0.0825  0.2204 -0.6111
11152SOL     OW34033   4.319   3.320   6.891  0.3089  0.2368 -0.3251
11152SOL    HW134034   4.408   3.348   6.871  0.2808  0.7456  0.2387
11152SOL    HW234035   4.272   3.327   6.808  0.8819 -0.3966 -0.7104
11153SOL     OW34036   9.188   8.330   0.748  0.4329 -0.0256  0.4727
11153SOL    HW134037   9.143   8.252   0.779  1.0139 -0.3636  0.4729
11153SOL    HW234038   9.183   8.392   0.821 -1.2133  0.4603  0.0062
11154SOL     OW34039   3.922   5.632   0.890  0.1236 -0.1422 -0.7926
11154SOL    HW134040   3.845   5.685   0.909 -0.0750 -0.5357 -0.4811
11154SOL    HW234041   3.982   5.651   0.962  0.3094  0.1459 -1.0223
11155SOL     OW34042   1.647   7.817   2.964  0.2358  0.2138  0.0191
11155SOL    HW134043   1.663   7.892   2.906  0.3025 -0.2074 -0.5202
11155SOL    HW234044   1.585   7.850   3.029  0.0821  0.6685 -0.3494
11156SOL     OW34045   6.624   4.942   4.840 -0.2223 -0.4217 -0.0319
11156SOL    HW134046   6.719   4.954   4.838 -0.2124  0.0352  1.5303
11156SOL    HW234047   6.612   4.850   4.862 -0.1398 -0.4075  0.0746
11157SOL     OW34048   6.657   8.505   3.061  0.0462 -0.6567 -0.2333
11157SOL    HW134049   6.691   8.545   2.981 -1.1527  1.2684  0.1512
11157SOL    HW234050   6.566   8.534   3.066 -0.3897 -2.0879  0.9921
11158SOL     OW34051   6.125   0.233   4.049 -0.0534 -0.0691  0.2528
11158SOL    HW134052   6.174   0.268   3.975  0.4054 -0.8226  0.1954
11158SOL    HW234053   6.073   0.162   4.012 -0.0083 -0.2887  0.6057
11159SOL     OW34054   5.157   0.221   2.925 -0.3464  0.1544 -0.6304
11159SOL    HW134055   5.242   0.191   2.894 -0.2454 -0.4726  0.2185
11159SOL    HW234056   5.095   0.158   2.888 -0.3613  0.1569 -0.6094
11160SOL     OW34057   5.039   7.176   2.716 -0.1396 -0.2817  0.0975
11160SOL    HW134058   5.034   7.150   2.624  1.5368  0.6939 -0.3159
11160SOL    HW234059   5.111   7.240   2.719 -1.4520  1.2302  1.7270
11161SOL     OW34060   4.796   5.242   8.198 -0.1326 -0.9122 -0.3303
11161SOL    HW134061   4.882   5.215   8.166  0.1943  0.0597 -0.3141
11161SOL    HW234062   4.734   5.189   8.147  0.4714 -2.0175  0.0496
11162SOL     OW34063   6.205   4.299   6.837 -0.4676  0.3184  0.4692
11162SOL    HW134064   6.110   4.303   6.829 -0.3408  2.1436 -0.7180
11162SOL    HW234065   6.220   4.263   6.924 -2.2614  0.9877  1.1015
11163SOL     OW34066   0.676   3.669   5.718 -0.0271  0.1081  0.0230
11163SOL    HW134067   0.673   3.711   5.632 -1.3453 -1.6527 -0.8550
11163SOL    HW234068   0.620   3.724   5.773  0.1935  0.8126 -0.4370
11164SOL     OW34069   2.367   9.595   1.452  0.2539  0.0990 -0.2391
11164SOL    HW134070   2.316   9.541   1.512  1.5039 -0.6906  0.1243
11164SOL    HW234071   2.384   9.676   1.501 -1.1203  0.6347 -0.5792
11165SOL     OW34072   0.133   3.439   6.474  0.4743  0.0871 -0.4749
11165SOL    HW134073   0.094   3.525   6.488  1.5304  0.2685  1.6623
11165SOL    HW234074   0.071   3.394   6.416 -0.1155  2.2345 -1.6133
11166SOL     OW34075   1.917   8.096   5.830  0.2825 -0.2995  0.1645
11166SOL    HW134076   1.938   8.096   5.924 -1.6078 -0.6080  0.6269
11166SOL    HW234077   1.861   8.173   5.818 -0.7075 -1.0882 -0.3923
11167SOL     OW34078   3.837   5.382   0.182  0.5412  0.5121  0.6377
11167SOL    HW134079   3.765   5.436   0.150 -1.1742 -0.5914  2.4747
11167SOL    HW234080   3.883   5.438   0.245 -0.4914  0.2826  1.6228
11168SOL     OW34081   9.069   2.198   3.660 -0.3995 -0.6182  0.0749
11168SOL    HW134082   9.129   2.156   3.722  0.0818  0.6019  0.4518
11168SOL    HW234083   9.124   2.227   3.588 -0.8182 -1.1195 -0.4581
11169SOL     OW34084   4.160   8.405   6.700 -0.2545 -0.8477 -0.3810
11169SOL    HW134085   4.118   8.483   6.665  2.0026  0.1097 -1.0945
11169SOL    HW234086   4.175   8.349   6.624 -0.3874 -1.2692 -0.1020
11170SOL     OW34087   4.303   2.551   3.276 -0.8429 -0.5291 -0.2220
11170SOL    HW134088   4.213   2.538   3.244 -0.7300 -0.6203 -0.5099
11170SOL    HW234089   4.296   2.546   3.371 -1.3192  0.5332 -0.1780
11171SOL     OW34090   4.635   4.466   5.154  0.2951 -0.2082  0.1355
11171SOL    HW134091   4.667   4.540   5.102  1.6555 -0.9504 -0.1329
11171SOL    HW234092   4.680   4.474   5.238 -0.2838 -0.1931  0.4451
11172SOL     OW34093   7.534   6.129   9.077 -0.0680  0.1131  0.5251
11172SOL    HW134094   7.588   6.141   8.999  0.7602  0.1318  1.0890
11172SOL    HW234095   7.444   6.134   9.045  0.2597  0.4768 -0.3709
11173SOL     OW34096   0.695   3.029   4.829 -0.1448  0.0581  0.2141
11173SOL    HW134097   0.693   3.123   4.844 -0.2281  0.1509 -0.3597
11173SOL    HW234098   0.603   3.003   4.826 -0.1373  0.1087 -0.5270
11174SOL     OW34099   6.733   6.327   1.844  0.1449 -0.1843  0.0603
11174SOL    HW134100   6.781   6.356   1.767  0.2206 -0.9742 -0.2010
11174SOL    HW234101   6.641   6.334   1.819  0.1757 -1.4428 -0.5105
11175SOL     OW34102   6.847   5.047   2.919 -0.4014  0.7242  0.3552
11175SOL    HW134103   6.910   5.018   2.854 -0.8508 -2.1367  1.0630
11175SOL    HW234104   6.847   5.143   2.912  0.7167  0.5949 -2.6798
11176SOL     OW34105   8.928   9.019   1.323  0.1039  0.1243 -0.2263
11176SOL    HW134106   8.982   9.044   1.249  0.8892 -0.7684  0.0286
11176SOL    HW234107   8.838   9.035   1.294  0.4785  1.5232 -0.6923
11177SOL     OW34108   2.522   3.636   6.515  0.2632 -0.1751  0.4250
11177SOL    HW134109   2.603   3.614   6.561  0.4870  0.9525  0.5882
11177SOL    HW234110   2.453   3.603   6.573  0.5658  0.3148  1.0788
11178SOL     OW34111   0.862   1.759   5.141  0.9023  0.3520  0.6225
11178SOL    HW134112   0.891   1.740   5.052 -0.3149  0.9516  0.0897
11178SOL    HW234113   0.797   1.829   5.132 -2.0775 -2.0771  1.5583
11179SOL     OW34114   1.254   2.157   1.414 -0.5129 -0.1530  0.2697
11179SOL    HW134115   1.259   2.249   1.440 -0.3871 -0.1629  0.2815
11179SOL    HW234116   1.273   2.157   1.320 -1.5125 -0.0568  0.0522
11180SOL     OW34117   7.498   8.238   3.785 -0.4419  0.3876  0.3841
11180SOL    HW134118   7.574   8.292   3.806  0.3157 -0.1225 -0.9397
11180SOL    HW234119   7.500   8.229   3.689 -1.1750 -1.0738  0.4710
11181SOL     OW34120   7.547   2.672   5.947  0.1357  0.5912 -0.0085
11181SOL    HW134121   7.533   2.608   5.877 -2.1051  0.8997  0.0906
11181SOL    HW234122   7.555   2.619   6.026  1.6579  0.3018 -0.3173
11182SOL     OW34123   5.357   6.743   7.295 -0.1733 -0.2733  0.1822
11182SOL    HW134124   5.289   6.738   7.228 -1.2715 -0.2681  1.2546
11182SOL    HW234125   5.415   6.812   7.265 -0.1093 -0.8973 -1.2156
11183SOL     OW34126   6.004   5.396   0.241 -0.2411  0.3995  0.5399
11183SOL    HW134127   6.075   5.419   0.181 -0.0287  3.1434  1.6993
11183SOL    HW234128   6.046   5.337   0.305  0.2633 -0.1849 -0.3067
11184SOL     OW34129   3.262   4.317   8.374  0.2306  0.4645 -0.0245
11184SOL    HW134130   3.353   4.289   8.385  0.7560  2.3567  0.7995
11184SOL    HW234131   3.240   4.360   8.456 -0.3472  2.8300 -1.3459
11185SOL     OW34132   7.355   7.543   4.590 -0.5944 -0.8605  0.5434
11185SOL    HW134133   7.445   7.566   4.615 -0.7027  0.2753 -0.0765
11185SOL    HW234134   7.365   7.477   4.521 -0.1980  0.1785 -0.4201
11186SOL     OW34135   6.110   3.426   2.170 -0.6595 -0.0653 -0.4941
11186SOL    HW134136   6.130   3.439   2.077 -1.5169  1.2285 -0.5254
11186SOL    HW234137   6.048   3.496   2.191  1.1345  1.0257  1.5781
11187SOL     OW34138   4.035   8.420   9.875 -0.2287  0.3914  0.0418
11187SOL    HW134139   4.018   8.386   9.963  1.3826  0.8303  0.5527
11187SOL    HW234140   4.096   8.493   9.888 -1.6316  1.8774 -1.2617
11188SOL     OW34141   1.636   7.186   7.597 -0.0531 -0.5482 -0.2461
11188SOL    HW134142   1.637   7.250   7.667 -1.5952 -0.5250 -0.2029
11188SOL    HW234143   1.712   7.131   7.613  2.8001  2.6469 -1.6542
11189SOL     OW34144   3.962   5.913   0.671 -0.0032  0.3906  0.7636
11189SOL    HW134145   3.927   5.912   0.760 -0.3830 -2.1030  0.6586
11189SOL    HW234146   4.044   5.865   0.677 -0.8630 -1.3540 -0.4705
11190SOL     OW34147   4.672   1.440   1.447  0.3809  0.3190 -0.1984
11190SOL    HW134148   4.638   1.462   1.534  0.1710 -0.7836  0.0083
11190SOL    HW234149   4.622   1.497   1.387  1.1574  1.7428  0.4499
11191SOL     OW34150   4.483   9.880   7.599  0.1332 -0.2925 -0.3896
11191SOL    HW134151   4.537   9.948   7.640  1.4953 -1.3370 -0.3695
11191SOL    HW234152   4.523   9.797   7.627 -0.5743 -1.0776 -1.6048
11192SOL     OW34153   7.938   6.836   8.399 -0.3785 -0.3649  0.6270
11192SOL    HW134154   8.002   6.884   8.452  0.0014 -0.6539  0.4310
11192SOL    HW234155   7.963   6.745   8.408 -1.1837 -0.5428  1.1079
11193SOL     OW34156   8.675   1.445   8.442 -0.4834  0.1691  0.0538
11193SOL    HW134157   8.660   1.412   8.354  0.3038  0.5467 -0.2369
11193SOL    HW234158   8.650   1.373   8.500  0.5413 -0.6823 -0.5325
11194SOL     OW34159   0.741   1.463   3.037 -0.2691 -0.0372  0.5896
11194SOL    HW134160   0.690   1.414   2.973 -0.3475 -0.9542  1.3374
11194SOL    HW234161   0.831   1.432   3.025 -0.0925  0.6163  0.1674
11195SOL     OW34162   2.152   2.256   7.999 -0.3853  0.3548  0.0647
11195SOL    HW134163   2.129   2.239   8.091 -0.1627 -0.3694 -0.0026
11195SOL    HW234164   2.077   2.224   7.949 -0.2577  0.2075 -0.0329
11196SOL     OW34165   8.132   4.141   7.052 -0.5362 -0.0397  0.3545
11196SOL    HW134166   8.161   4.192   6.977  1.0686  1.1660  1.7040
11196SOL    HW234167   8.088   4.064   7.015 -2.3363  1.8984 -1.7579
11197SOL     OW34168   5.173   0.192   8.656  0.6969 -0.0734 -0.0159
11197SOL    HW134169   5.153   0.278   8.620 -0.3441  0.0495  0.8135
11197SOL    HW234170   5.220   0.210   8.738  1.0837 -0.3116 -0.1815
11198SOL     OW34171   4.849   7.013   4.956 -0.0958 -0.3556  0.0573
11198SOL    HW134172   4.787   7.052   4.894 -0.0882 -1.1184 -0.4331
11198SOL    HW234173   4.913   7.083   4.973 -0.0532 -0.1697 -0.8487
11199SOL     OW34174   8.213   3.787   0.467 -0.1375 -0.0502  0.8725
11199SOL    HW134175   8.184   3.834   0.389 -1.1343 -0.0742  1.2154
11199SOL    HW234176   8.240   3.701   0.434  0.1109  0.1771  0.4680
11200SOL     OW34177   3.345   4.822   6.294 -0.1202  0.5088 -0.2279
11200SOL    HW134178   3.252   4.803   6.294 -0.2856  1.2247  0.7982
11200SOL    HW234179   3.353   4.904   6.246  0.0306  0.2742 -0.6103
11201SOL     OW34180   5.823   3.725   7.202  0.0465  0.1276  0.2962
11201SOL    HW134181   5.895   3.769   7.247 -0.2797  0.9785  0.0057
11201SOL    HW234182   5.794   3.657   7.263  0.7832  0.0936  0.6110
11202SOL     OW34183   6.830   6.831   7.563 -0.5052 -0.0439  0.2985
11202SOL    HW134184   6.918   6.857   7.589 -0.6499  1.2504 -0.4051
11202SOL    HW234185   6.837   6.738   7.541  0.4363 -0.2154  1.2794
11203SOL     OW34186   0.211   2.863   5.863  0.2588 -0.1439  0.7472
11203SOL    HW134187   0.236   2.779   5.903  0.7078 -0.7921 -0.7993
11203SOL    HW234188   0.293   2.900   5.832 -0.2816 -1.5589 -3.0168
11204SOL     OW34189   4.074   9.146   6.224  0.2769  0.1674  0.0033
11204SOL    HW134190   4.038   9.231   6.247 -0.3362  0.2108 -1.0296
11204SOL    HW234191   4.085   9.101   6.307 -0.1950  0.9464  0.4965
11205SOL     OW34192   3.535   3.849   9.048  0.4150 -0.2493 -0.2493
11205SOL    HW134193   3.569   3.763   9.024 -0.8994 -0.9861  0.4017
11205SOL    HW234194   3.601   3.886   9.107  0.8010 -0.9766 -0.2200
11206SOL     OW34195   6.526   4.290   8.117 -0.2129 -0.4950 -0.3974
11206SOL    HW134196   6.480   4.352   8.173  0.8345 -0.6898  0.7115
11206SOL    HW234197   6.595   4.341   8.076  0.2479 -0.7807  0.0164
11207SOL     OW34198   6.273   8.216  -0.003  0.2589  0.3861  0.0325
11207SOL    HW134199   6.277   8.222   0.093  0.0438  1.6026 -0.0197
11207SOL    HW234200   6.347   8.269  -0.033 -0.8531  1.6862 -0.4936
11208SOL     OW34201   1.990   4.359   6.657 -0.4586  0.0964 -0.0567
11208SOL    HW134202   1.962   4.437   6.608 -0.8543  0.8029  1.2398
11208SOL    HW234203   1.911   4.306   6.664 -0.2012 -0.4175 -0.8939
11209SOL     OW34204   6.557   0.629   7.155 -0.7413  0.5154 -0.4731
11209SOL    HW134205   6.564   0.721   7.131  1.3527  0.4416 -0.3126
11209SOL    HW234206   6.559   0.629   7.250 -2.3718  0.3721 -0.4102
11210SOL     OW34207   5.407   2.501   5.320 -0.2962 -0.1175  0.2728
11210SOL    HW134208   5.392   2.511   5.226  0.3075 -1.5055  0.0145
11210SOL    HW234209   5.452   2.582   5.345 -1.2661  0.6784 -0.4288
11211SOL     OW34210   8.100   8.365   3.073 -0.0418  0.0454 -0.1128
11211SOL    HW134211   8.050   8.441   3.043  0.0788 -0.4744 -1.7047
11211SOL    HW234212   8.191   8.393   3.069 -0.0393  0.0597  0.0345
11212SOL     OW34213   7.313   7.533   3.352  0.0783  0.3451 -0.3316
11212SOL    HW134214   7.236   7.574   3.312 -0.9025 -0.5255  0.6152
11212SOL    HW234215   7.284   7.445   3.376  1.3525  0.0244  0.1210
11213SOL     OW34216   7.491   9.215   1.986 -0.4672  0.2091  0.1151
11213SOL    HW134217   7.550   9.289   1.970 -0.3077  0.7124  2.6520
11213SOL    HW234218   7.517   9.182   2.072 -0.4180 -2.9557 -0.9753
11214SOL     OW34219   3.903   6.931   6.555  0.1694 -0.0351  1.1635
11214SOL    HW134220   3.876   6.901   6.469  0.8464 -0.2456  1.0130
11214SOL    HW234221   3.852   6.878   6.616  0.2322 -0.4090  0.8929
11215SOL     OW34222   7.145   9.482   4.147  0.1894 -0.5343  0.7280
11215SOL    HW134223   7.233   9.518   4.141  0.3871 -0.9219  1.2953
11215SOL    HW234224   7.130   9.470   4.241 -1.5162  2.1506  0.9173
11216SOL     OW34225   3.639   2.168   8.324  0.4224 -0.0291  0.3991
11216SOL    HW134226   3.666   2.223   8.397 -2.3069 -0.4896  1.8705
11216SOL    HW234227   3.689   2.087   8.335  1.6399  0.6997  0.4320
11217SOL     OW34228   1.034   7.385   7.196  0.4258  0.2192 -0.1908
11217SOL    HW134229   1.006   7.420   7.111  0.4951  2.5334  0.6522
11217SOL    HW234230   1.127   7.407   7.202 -0.2412  3.1103  1.7312
11218SOL     OW34231   0.117   2.285   9.936  0.5022  0.4141 -0.0203
11218SOL    HW134232   0.170   2.219   9.980 -1.4738 -0.0752  1.7709
11218SOL    HW234233   0.103   2.353  10.003 -1.1741  0.4719 -0.3930
11219SOL     OW34234   5.117   5.984   6.767  0.4048  0.3785  0.2573
11219SOL    HW134235   5.062   5.916   6.730  0.7197  0.4960 -0.4491
11219SOL    HW234236   5.060   6.031   6.828 -0.8444  1.5868 -1.6947
11220SOL     OW34237   0.619   6.533   9.142 -0.2041  0.5162  0.1610
11220SOL    HW134238   0.605   6.598   9.211 -1.1088 -0.9274  1.3845
11220SOL    HW234239   0.632   6.585   9.062 -0.7701  2.1934  1.1203
11221SOL     OW34240   2.490   9.890   6.176 -0.4819 -0.5405 -0.1485
11221SOL    HW134241   2.398   9.868   6.163 -0.9773  0.9116  0.7171
11221SOL    HW234242   2.526   9.898   6.087 -1.7395  1.0226 -0.5525
11222SOL     OW34243   6.888   8.626   4.714  0.1619 -0.3389 -0.2426
11222SOL    HW134244   6.809   8.609   4.663  0.7140 -1.5700 -0.7310
11222SOL    HW234245   6.927   8.704   4.674 -0.2676 -0.3266 -0.6362
11223SOL     OW34246   4.047   0.166   0.251  0.0953 -0.4649 -0.5643
11223SOL    HW134247   4.081   0.092   0.201 -0.3790 -0.9829 -0.1313
11223SOL    HW234248   4.036   0.132   0.340 -1.5350 -0.3361 -0.6817
11224SOL     OW34249   6.338   1.321   0.254  0.1726  0.1910 -0.7111
11224SOL    HW134250   6.256   1.273   0.243 -0.5285  1.6502 -2.4790
11224SOL    HW234251   6.325   1.375   0.332 -0.4140  0.1399 -0.7743
11225SOL     OW34252   1.957   8.102   2.731  0.0048 -0.1537 -0.3244
11225SOL    HW134253   2.033   8.044   2.743  1.9343  2.2421 -0.2078
11225SOL    HW234254   1.972   8.144   2.646  0.0110  1.9410  0.6475
11226SOL     OW34255   5.172   3.256   1.574 -0.0260 -0.9004  0.3136
11226SOL    HW134256   5.082   3.277   1.550  0.2765 -0.6677 -0.6624
11226SOL    HW234257   5.176   3.160   1.570 -0.3840 -0.9461  0.9553
11227SOL     OW34258   8.807   6.441   7.959  1.0001  0.5570  0.4822
11227SOL    HW134259   8.807   6.521   7.906 -1.8523  0.7775  0.6197
11227SOL    HW234260   8.856   6.377   7.907  0.7590  1.5823 -1.0820
11228SOL     OW34261   2.170   8.414   9.167 -0.5016 -0.3961 -0.3456
11228SOL    HW134262   2.163   8.476   9.239  0.7730 -0.6110 -0.0162
11228SOL    HW234263   2.090   8.427   9.116  0.0649  2.0420 -0.7013
11229SOL     OW34264   8.972   1.847   7.294  0.1588  0.0972 -0.1373
11229SOL    HW134265   9.017   1.805   7.221  0.8106  0.2169  0.1872
11229SOL    HW234266   9.014   1.810   7.372  0.0062  0.5474  0.1626
11230SOL     OW34267   0.870   9.144   6.356  0.0781 -0.5774  0.5587
11230SOL    HW134268   0.947   9.124   6.408 -0.3117 -0.3545  1.2270
11230SOL    HW234269   0.897   9.217   6.300  1.2282 -2.3014 -1.2562
11231SOL     OW34270   3.018   6.893   7.848 -0.5269 -0.5694  0.2118
11231SOL    HW134271   2.965   6.830   7.799 -0.5067 -0.3266 -0.1330
11231SOL    HW234272   3.077   6.930   7.782 -0.2858 -0.4623  0.4864
11232SOL     OW34273   3.154   4.078   5.619  0.0798 -0.6747 -0.7824
11232SOL    HW134274   3.147   4.039   5.532  1.1956 -2.4770 -0.1132
11232SOL    HW234275   3.218   4.148   5.609 -1.4800  0.6715 -1.8673
11233SOL     OW34276   9.786   5.753   3.026 -0.0576  0.3295 -0.3128
11233SOL    HW134277   9.725   5.741   2.953  0.8467 -0.6984 -0.9390
11233SOL    HW234278   9.737   5.802   3.091 -1.0101  0.9564 -1.4684
11234SOL     OW34279   7.372   0.399   8.178 -0.3812 -0.6331 -0.2277
11234SOL    HW134280   7.311   0.473   8.172 -0.4701 -0.7744 -1.2297
11234SOL    HW234281   7.341   0.337   8.111  0.4981 -0.9721 -0.3271
11235SOL     OW34282   9.869   3.712   4.616  0.1687 -0.5181  0.0559
11235SOL    HW134283   9.953   3.722   4.570 -0.5682 -0.7551 -1.3798
11235SOL    HW234284   9.843   3.621   4.600  1.4128 -1.7099  3.6910
11236SOL     OW34285   4.298   3.494   5.840  0.3902  0.0560  0.1412
11236SOL    HW134286   4.294   3.463   5.749 -0.0427 -0.7205  0.4125
11236SOL    HW234287   4.368   3.559   5.840  1.0802 -0.6577 -0.5434
11237SOL     OW34288   2.216   6.214   0.694 -0.0716 -0.7173 -0.1473
11237SOL    HW134289   2.239   6.185   0.782 -0.6164 -1.5216 -0.2557
11237SOL    HW234290   2.259   6.152   0.636  0.3727 -0.1268 -0.4597
11238SOL     OW34291   6.011   2.121   6.982  0.6365  0.2098  0.3440
11238SOL    HW134292   5.999   2.026   6.988 -2.5227  0.5869  1.7755
11238SOL    HW234293   5.929   2.153   6.945  1.2432  2.4688  0.8279
11239SOL     OW34294   0.406   6.659   5.292  0.1525 -0.5280 -0.1099
11239SOL    HW134295   0.406   6.741   5.243 -0.0146 -0.6937 -0.3948
11239SOL    HW234296   0.498   6.642   5.312  0.0157  1.0854  2.2671
11240SOL     OW34297   1.215   2.231   9.377 -0.8863 -0.0617 -0.5047
11240SOL    HW134298   1.187   2.307   9.428 -1.5050 -3.1630  4.4434
11240SOL    HW234299   1.310   2.231   9.383 -0.9786 -1.1145  2.2114
11241SOL     OW34300   8.310   5.863   1.348 -0.0009 -0.4896 -0.2313
11241SOL    HW134301   8.291   5.910   1.267  1.2107 -0.6734 -0.6488
11241SOL    HW234302   8.293   5.771   1.328  1.1583 -0.6461 -0.5850
11242SOL     OW34303   3.386   8.769   6.889 -0.6239  0.1144  0.2336
11242SOL    HW134304   3.362   8.827   6.816 -0.5255 -0.4639 -0.2709
11242SOL    HW234305   3.435   8.697   6.847 -2.3987 -1.3549  0.5438
11243SOL     OW34306   9.538   8.822   2.367  0.0590  0.3557  0.2608
11243SOL    HW134307   9.454   8.837   2.324 -0.2244  1.3232  1.1127
11243SOL    HW234308   9.597   8.798   2.296 -1.3880 -2.4706 -0.1155
11244SOL     OW34309   4.416   2.671   6.752  0.0795 -0.0409  0.0457
11244SOL    HW134310   4.402   2.649   6.844 -0.0589 -0.4304 -0.0680
11244SOL    HW234311   4.494   2.726   6.752 -0.2786  0.4742  0.4664
11245SOL     OW34312   2.564   3.871   0.752 -0.3183  0.2977  0.0735
11245SOL    HW134313   2.498   3.810   0.720  0.7677 -1.8608  1.6431
11245SOL    HW234314   2.647   3.823   0.744  0.6681  1.7674  0.9175
11246SOL     OW34315   6.895   4.658   0.274 -0.1072  0.3795 -0.2689
11246SOL    HW134316   6.852   4.743   0.275 -1.4099 -0.2490  0.1925
11246SOL    HW234317   6.863   4.614   0.352  1.1036 -0.2826 -0.1179
11247SOL     OW34318   2.036   1.962   3.857 -0.5486 -0.6012  0.1102
11247SOL    HW134319   2.051   2.052   3.829  1.6081 -0.4700  1.4528
11247SOL    HW234320   1.986   1.923   3.785  0.9059  0.8953 -1.8299
11248SOL     OW34321   3.851   1.258   3.890 -0.3164 -1.0040 -0.5572
11248SOL    HW134322   3.809   1.313   3.824  0.1563 -0.2268 -0.2269
11248SOL    HW234323   3.944   1.276   3.880 -0.2513 -0.7772  0.4055
11249SOL     OW34324   3.114   4.181   1.304 -0.0121  0.0489  0.0406
11249SOL    HW134325   3.184   4.200   1.366  0.5706 -1.0309 -0.2519
11249SOL    HW234326   3.052   4.128   1.355 -0.5157  0.7984  0.2300
11250SOL     OW34327   4.382   0.868   7.215  0.5227  0.2315  0.0177
11250SOL    HW134328   4.286   0.871   7.210  0.5836  1.9445 -1.2248
11250SOL    HW234329   4.403   0.775   7.221 -1.1928 -0.2330 -0.5364
11251SOL     OW34330   8.243   5.067   6.906  0.5342  0.0522 -0.7168
11251SOL    HW134331   8.328   5.098   6.875  0.2269  1.8431  0.0979
11251SOL    HW234332   8.179   5.116   6.855 -0.0127 -0.5866 -0.6610
11252SOL     OW34333   1.136   8.078   0.643  0.1522 -0.3738 -0.2029
11252SOL    HW134334   1.132   8.028   0.561  1.9153 -1.2790  0.2017
11252SOL    HW234335   1.211   8.137   0.631  1.0391 -1.1807  1.0662
11253SOL     OW34336   8.539   8.609   7.371 -0.2610 -0.1315  1.2420
11253SOL    HW134337   8.461   8.660   7.393  0.4166  0.4465  2.4042
11253SOL    HW234338   8.568   8.644   7.287 -0.9026  0.0531  1.0898
11254SOL     OW34339   0.057   5.993   4.475  0.0648  0.7016 -0.0660
11254SOL    HW134340   0.022   5.911   4.440  0.4761  0.6418 -0.3507
11254SOL    HW234341   0.068   5.977   4.568 -0.7305  0.7468  0.0442
11255SOL     OW34342   7.457   7.452   8.698 -0.1880 -0.1447 -0.2667
11255SOL    HW134343   7.526   7.417   8.755  0.3014  0.2802 -0.5850
11255SOL    HW234344   7.434   7.378   8.641  0.5555 -0.0854 -0.6673
11256SOL     OW34345   9.858   1.654   5.311 -0.8932  0.3894  0.1424
11256SOL    HW134346   9.823   1.656   5.222 -0.2825  1.1572 -0.0921
11256SOL    HW234347   9.855   1.561   5.336  2.0307 -0.4388 -1.9575
11257SOL     OW34348   2.385   6.815   4.713 -0.2432  0.6024 -0.1781
11257SOL    HW134349   2.467   6.854   4.743 -0.1080  0.2936 -0.1503
11257SOL    HW234350   2.345   6.779   4.792 -1.1486  2.0921  0.0998
11258SOL     OW34351   5.166   9.361   6.469 -0.2473  0.6738  0.0285
11258SOL    HW134352   5.206   9.404   6.394 -0.9119  1.9884  0.4072
11258SOL    HW234353   5.231   9.297   6.498  0.4482  0.9021 -0.9996
11259SOL     OW34354   3.053   8.380   9.486  0.2813 -0.1434  0.0175
11259SOL    HW134355   3.091   8.417   9.406 -0.9976  1.1210 -0.0433
11259SOL    HW234356   3.099   8.426   9.556  0.8202 -0.6509  0.0023
11260SOL     OW34357   3.897   8.065   3.715 -0.0786  0.8973  0.0888
11260SOL    HW134358   3.953   8.125   3.665 -0.3458  0.1028 -1.2098
11260SOL    HW234359   3.866   8.001   3.650 -0.2148 -0.3479  1.3417
11261SOL     OW34360   2.656   7.486   4.473  0.5100 -0.2909 -0.1306
11261SOL    HW134361   2.693   7.557   4.524  2.2734 -1.6264  0.5279
11261SOL    HW234362   2.720   7.415   4.480 -0.4435 -1.4185 -2.0383
11262SOL     OW34363   1.870   1.692   4.713 -0.2405  0.1351 -0.1426
11262SOL    HW134364   1.935   1.628   4.684 -1.3561 -0.4281 -1.4761
11262SOL    HW234365   1.915   1.741   4.782  0.9221 -1.5528  0.3853
11263SOL     OW34366   4.456   7.600   1.645 -0.2607 -0.4456 -0.1121
11263SOL    HW134367   4.371   7.557   1.655 -1.4743  1.7424 -0.5768
11263SOL    HW234368   4.444   7.663   1.574  0.7469  2.1504  1.8506
11264SOL     OW34369   4.495   7.981   9.602  0.1584  0.6261 -0.0251
11264SOL    HW134370   4.417   7.996   9.549  1.0271 -0.5704 -1.7766
11264SOL    HW234371   4.564   8.030   9.556  0.9572 -0.5205 -0.0768
11265SOL     OW34372   2.292   2.979   5.208 -0.5673  0.8981  0.2562
11265SOL    HW134373   2.248   2.978   5.123  0.0748  1.3545 -0.0823
11265SOL    HW234374   2.238   2.922   5.263 -0.7049  0.2046 -0.5876
11266SOL     OW34375   7.418   7.415   0.147 -0.4946 -0.3499 -0.0690
11266SOL    HW134376   7.415   7.326   0.113  1.1409  0.1021 -1.5232
11266SOL    HW234377   7.511   7.439   0.144 -0.7645  1.0570  1.2745
11267SOL     OW34378   8.676   4.860   5.618  0.1760 -0.1335  0.4971
11267SOL    HW134379   8.697   4.811   5.698 -0.9517  0.4841  1.2049
11267SOL    HW234380   8.581   4.852   5.609  0.3452 -0.6870 -1.1348
11268SOL     OW34381   6.338   4.111   0.037  0.2819  0.1421  0.6900
11268SOL    HW134382   6.266   4.153  -0.011 -0.1072 -0.8986  0.3260
11268SOL    HW234383   6.296   4.040   0.085  0.8914  0.2973  1.4703
11269SOL     OW34384   1.470   9.403   6.690  0.8024  0.7043  0.0500
11269SOL    HW134385   1.479   9.415   6.596  0.0020 -1.3869 -0.3464
11269SOL    HW234386   1.519   9.476   6.728  2.1316  0.9489 -1.9703
11270SOL     OW34387   2.355   8.368   8.443 -0.4392 -0.5722 -0.3017
11270SOL    HW134388   2.268   8.330   8.455 -0.9091 -0.3897 -2.6781
11270SOL    HW234389   2.342   8.462   8.457 -0.6409 -0.5433 -0.6657
11271SOL     OW34390   8.616   2.698   1.181  0.2868  0.1654 -0.1074
11271SOL    HW134391   8.526   2.671   1.166  0.6100 -1.6664  0.8945
11271SOL    HW234392   8.611   2.765   1.249 -0.4028  1.0484 -1.0221
11272SOL     OW34393   8.299   9.739   4.539  0.2018  0.5708 -0.0542
11272SOL    HW134394   8.327   9.724   4.448  1.8672  0.8378  0.3851
11272SOL    HW234395   8.375   9.778   4.581  0.2423 -1.5083  2.0181
11273SOL     OW34396   7.635   5.012   0.970  0.1064  0.4658  0.1026
11273SOL    HW134397   7.562   5.047   0.919 -0.1882  0.9434  0.8255
11273SOL    HW234398   7.713   5.036   0.920 -0.1402  1.4224  0.1432
11274SOL     OW34399   0.070   9.454   3.331  0.4198  0.7740  0.1197
11274SOL    HW134400   0.163   9.457   3.308  0.5823  1.1271  0.8017
11274SOL    HW234401   0.046   9.545   3.347  0.4231  0.5369  1.6806
11275SOL     OW34402   8.849   4.166   5.361 -0.0574  0.3754 -0.3677
11275SOL    HW134403   8.927   4.211   5.331 -0.1058  1.1040  0.5573
11275SOL    HW234404   8.831   4.100   5.294  0.7192  0.9239 -1.1206
11276SOL     OW34405   9.607   4.921   8.256  0.1465  0.1477 -0.8809
11276SOL    HW134406   9.653   4.852   8.305 -2.1549 -0.5672  0.4315
11276SOL    HW234407   9.621   5.000   8.308 -0.1619 -0.0933 -0.4148
11277SOL     OW34408   4.627   1.946   7.290 -0.3833  0.2610  0.5251
11277SOL    HW134409   4.583   1.948   7.205 -0.6028  1.6296  0.6561
11277SOL    HW234410   4.652   1.854   7.301 -1.9947 -0.3120 -0.1799
11278SOL     OW34411   8.339   6.889   0.695 -0.7294  0.8297  0.2586
11278SOL    HW134412   8.380   6.848   0.618 -1.1398  2.7074 -1.0576
11278SOL    HW234413   8.399   6.870   0.767  0.4471  0.2334 -0.8273
11279SOL     OW34414   2.602   6.638   0.154  0.0952  0.1219 -0.0990
11279SOL    HW134415   2.518   6.659   0.112 -0.3174 -0.4743  0.4080
11279SOL    HW234416   2.611   6.704   0.222 -0.1778 -0.0699  0.1264
11280SOL     OW34417   9.568   5.183   3.453  0.1303  0.4430 -0.4877
11280SOL    HW134418   9.473   5.177   3.437  0.0681 -1.8351  0.4852
11280SOL    HW234419   9.599   5.093   3.452  1.7731  0.8620  2.2485
11281SOL     OW34420   4.438   8.065   2.708  0.2591 -0.0264 -0.0624
11281SOL    HW134421   4.392   8.001   2.654  0.2098  0.3874 -0.5206
11281SOL    HW234422   4.509   8.016   2.750  0.6451 -0.2280 -0.9463
11282SOL     OW34423   0.799   4.728   0.967 -0.1208 -0.6140 -0.7151
11282SOL    HW134424   0.732   4.711   1.033 -0.3314 -2.0729 -1.2662
11282SOL    HW234425   0.881   4.698   1.006 -0.3123 -1.8910 -1.2517
11283SOL     OW34426   2.225   2.277   4.042 -0.0429 -0.6754 -0.5243
11283SOL    HW134427   2.285   2.328   4.096 -2.5188  2.4148 -0.4277
11283SOL    HW234428   2.193   2.208   4.100  0.3421  0.1311  0.6796
11284SOL     OW34429   8.892   8.178   6.923  0.3936  0.1095  0.3492
11284SOL    HW134430   8.840   8.099   6.933 -0.9411  0.9281  0.2212
11284SOL    HW234431   8.887   8.198   6.829 -0.8961  1.3646  0.6542
11285SOL     OW34432   3.007   8.937   5.477 -0.5880  0.3207 -0.0193
11285SOL    HW134433   3.069   8.902   5.414 -0.5950 -1.6635  1.0053
11285SOL    HW234434   2.967   9.012   5.433 -0.4908 -0.9107 -2.2916
11286SOL     OW34435   9.007   5.923   3.727 -0.0677  0.1182  0.7513
11286SOL    HW134436   8.993   5.883   3.813  0.3957  1.0237  1.2650
11286SOL    HW234437   8.974   5.859   3.665 -2.1458  0.2014  1.6886
11287SOL     OW34438   3.506   2.577   8.472  0.1024 -0.4610 -0.5306
11287SOL    HW134439   3.536   2.551   8.385 -1.6530 -2.9037 -0.4809
11287SOL    HW234440   3.411   2.587   8.463 -0.1879 -1.2924  1.2133
11288SOL     OW34441   2.793   8.549   2.958 -0.4896 -0.2891  0.0940
11288SOL    HW134442   2.813   8.620   2.897 -0.5245 -0.1929  0.1926
11288SOL    HW234443   2.708   8.573   2.995 -0.0239  0.1693  0.9107
11289SOL     OW34444   3.840   6.357   7.174 -0.2281  0.3636 -0.6287
11289SOL    HW134445   3.796   6.330   7.094  0.0918  0.3418 -0.8011
11289SOL    HW234446   3.817   6.450   7.184 -1.8043 -0.0878  0.2817
11290SOL     OW34447   7.264   7.163   3.139 -0.4416  0.2270 -0.2061
11290SOL    HW134448   7.215   7.083   3.155 -0.1500  0.2962  1.2168
11290SOL    HW234449   7.267   7.207   3.225  0.1756  1.3070 -0.7548
11291SOL     OW34450   9.048   1.087   4.413  0.0162 -0.0009 -0.1447
11291SOL    HW134451   9.064   1.116   4.324 -1.0604 -1.0815 -0.7143
11291SOL    HW234452   9.048   1.167   4.465  0.3574  0.6647 -1.1535
11292SOL     OW34453   8.147   0.851   2.759  1.2009 -0.0823 -0.0872
11292SOL    HW134454   8.071   0.794   2.742 -0.2210  1.1124  1.8369
11292SOL    HW234455   8.217   0.790   2.782  0.1136 -1.1543  0.5226
11293SOL     OW34456   4.856   0.477   1.665 -0.6221 -0.1127  0.4008
11293SOL    HW134457   4.918   0.529   1.614  0.0790 -1.0284  0.3042
11293SOL    HW234458   4.815   0.419   1.601 -2.0511  0.8932  0.3551
11294SOL     OW34459   3.940   7.567   2.987 -0.7692  0.0651 -0.2666
11294SOL    HW134460   3.851   7.583   3.019 -1.3928  0.2172 -1.9736
11294SOL    HW234461   3.928   7.516   2.907  0.5025  2.2101 -1.9360
11295SOL     OW34462   8.045   6.537   6.776  0.3434 -0.5043 -0.0632
11295SOL    HW134463   8.096   6.468   6.732 -0.7474 -0.1340 -2.0521
11295SOL    HW234464   8.107   6.608   6.790  0.5913 -0.3543 -1.7397
11296SOL     OW34465   5.789   9.085   5.749  0.4465  0.2263  0.0307
11296SOL    HW134466   5.721   9.099   5.816  0.7453 -0.7792  0.5622
11296SOL    HW234467   5.868   9.125   5.788  0.7732 -0.9143  0.5813
11297SOL     OW34468   6.098   9.143   8.516 -0.1177  0.3323  0.2183
11297SOL    HW134469   6.016   9.117   8.558 -0.6648  0.4498 -0.7247
11297SOL    HW234470   6.160   9.074   8.539 -1.1613 -1.1200 -1.0612
11298SOL     OW34471   8.376   9.533   0.775  0.0878  0.5736 -0.4705
11298SOL    HW134472   8.423   9.491   0.847  0.4493  2.2692  0.3382
11298SOL    HW234473   8.402   9.484   0.697  0.4856 -0.6608  0.4027
11299SOL     OW34474   8.368   8.894   4.932  0.0816  0.5980 -0.0199
11299SOL    HW134475   8.435   8.915   4.996 -0.0604  0.6775  0.1045
11299SOL    HW234476   8.389   8.806   4.902 -0.0798  0.4057  0.4264
11300SOL     OW34477   8.146   6.496   3.910  0.5848 -0.3577  0.2928
11300SOL    HW134478   8.099   6.543   3.978  1.6220 -0.1035  0.8603
11300SOL    HW234479   8.186   6.421   3.956 -1.4197 -2.1143 -0.6649
11301SOL     OW34480   1.441   6.347   9.011 -0.2836  0.0570  0.1587
11301SOL    HW134481   1.467   6.258   8.990  2.9848  1.3359 -2.1154
11301SOL    HW234482   1.491   6.369   9.089 -1.8165 -0.3460  1.2836
11302SOL     OW34483   6.552   8.228   2.982  0.9161 -0.0110  0.0982
11302SOL    HW134484   6.461   8.249   3.003  0.9944  0.5681 -0.1202
11302SOL    HW234485   6.599   8.310   2.996  1.1815  0.0527 -1.1069
11303SOL     OW34486   2.375   8.122   1.207  0.2772  0.3566 -0.5686
11303SOL    HW134487   2.409   8.120   1.117  0.8739  0.6206 -0.3545
11303SOL    HW234488   2.444   8.083   1.260  0.6274  1.6614 -0.0141
11304SOL     OW34489   4.399   9.152   6.562 -0.4488  0.4577 -0.2759
11304SOL    HW134490   4.407   9.123   6.653 -1.8406 -0.6078 -0.4642
11304SOL    HW234491   4.454   9.090   6.513 -0.2991  0.5709 -0.2525
11305SOL     OW34492   3.411   6.070   3.656  0.7256 -0.0407  0.6568
11305SOL    HW134493   3.435   6.137   3.720  0.9322 -1.5060  2.1786
11305SOL    HW234494   3.419   5.987   3.704  0.2302 -1.1451 -1.0853
11306SOL     OW34495   8.345   7.979   4.886 -0.7988 -0.0232 -0.4648
11306SOL    HW134496   8.316   7.921   4.956 -1.2689 -0.1237 -0.7378
11306SOL    HW234497   8.377   8.057   4.931  2.0856 -1.3788  0.0699
11307SOL     OW34498   3.098   0.128   1.435 -0.1653  0.1212 -0.0072
11307SOL    HW134499   3.165   0.074   1.393 -1.0547 -1.1967  0.1959
11307SOL    HW234500   3.148   0.197   1.480  0.9804 -0.2767 -0.6133
11308SOL     OW34501   7.669   6.419   6.413  0.7850 -0.1380  0.6954
11308SOL    HW134502   7.616   6.392   6.338  2.4161  0.9578 -0.9550
11308SOL    HW234503   7.606   6.443   6.480 -0.8065  0.7239 -1.0256
11309SOL     OW34504   5.040   7.239   8.867 -0.1097  0.0440 -0.3766
11309SOL    HW134505   4.982   7.307   8.903  0.6536  0.5302 -0.0262
11309SOL    HW234506   4.990   7.158   8.877 -1.2239  0.5960 -1.2121
11310SOL     OW34507   3.531   9.635   5.377  0.3820  0.0793 -0.4429
11310SOL    HW134508   3.528   9.580   5.299  0.4197  0.7685 -0.9382
11310SOL    HW234509   3.624   9.641   5.398  0.2873 -1.2351  0.4863
11311SOL     OW34510   6.193   9.902   6.104  0.6658  0.2036 -0.2334
11311SOL    HW134511   6.156   9.835   6.162  2.8986 -1.6787 -0.7954
11311SOL    HW234512   6.180   9.866   6.016  2.4702  0.1291 -0.5082
11312SOL     OW34513   9.774   5.559   1.446 -0.0640 -0.0923  0.1684
11312SOL    HW134514   9.696   5.610   1.468  1.1611  0.7443  3.2067
11312SOL    HW234515   9.821   5.550   1.530  1.6493 -3.0967 -0.9350
11313SOL     OW34516   9.728   7.553   9.457  0.3505 -0.6919  0.3851
11313SOL    HW134517   9.732   7.484   9.391 -0.5790 -0.1218 -0.2924
11313SOL    HW234518   9.639   7.587   9.452  0.0448 -1.0412  2.3928
11314SOL     OW34519   9.307   4.985   2.002  1.0299 -0.0116  0.3213
11314SOL    HW134520   9.332   4.964   1.912  0.2506  0.2434  0.0395
11314SOL    HW234521   9.388   4.976   2.052  1.4670 -0.1629 -0.4035
11315SOL     OW34522   2.904   9.740   7.666 -0.0841 -0.8540  0.3132
11315SOL    HW134523   2.974   9.675   7.673 -0.2453 -1.0255  0.3239
11315SOL    HW234524   2.949   9.819   7.636  0.3552 -0.5695  1.6226
11316SOL     OW34525   4.387   4.029   7.143 -0.4399  0.9350 -0.6548
11316SOL    HW134526   4.359   4.114   7.177 -4.3458 -0.2986 -0.2424
11316SOL    HW234527   4.463   4.005   7.196 -1.5558  2.5210  1.8545
11317SOL     OW34528   8.030   1.411   6.281 -0.1686  0.0362 -0.0220
11317SOL    HW134529   8.084   1.487   6.301 -0.7354  0.4383 -0.0180
11317SOL    HW234530   7.990   1.431   6.197 -0.8074  0.0171  0.2735
11318SOL     OW34531   8.748   8.954   5.347  0.7282  0.3867 -0.3501
11318SOL    HW134532   8.750   8.859   5.358 -1.8025  0.5084  2.1409
11318SOL    HW234533   8.840   8.981   5.357  1.4175 -1.7186 -0.5975
11319SOL     OW34534   7.337   3.820   3.614 -0.1568  0.6939 -0.1156
11319SOL    HW134535   7.421   3.864   3.601 -0.5520  1.5798  0.2153
11319SOL    HW234536   7.284   3.884   3.662 -0.9973  0.1242 -0.2629
11320SOL     OW34537   4.013   3.468   7.552  0.1119  0.3778  0.2247
11320SOL    HW134538   4.067   3.421   7.489 -1.4014 -0.8747 -0.1938
11320SOL    HW234539   3.946   3.511   7.499 -1.6143 -1.2639  0.9352
11321SOL     OW34540   9.049   2.728   7.108  0.4596 -0.2584  0.2644
11321SOL    HW134541   8.990   2.696   7.040 -0.6697  0.1647  1.0185
11321SOL    HW234542   9.137   2.720   7.069 -0.1170 -0.4130 -1.0730
11322SOL     OW34543   7.694   5.853   8.615  0.3090  0.1814  0.4283
11322SOL    HW134544   7.601   5.873   8.611  0.5416  1.4745  1.0928
11322SOL    HW234545   7.698   5.757   8.619 -0.8801 -0.0553 -2.0415
11323SOL     OW34546   6.408   5.451   6.739  0.1927 -1.0083 -0.6008
11323SOL    HW134547   6.345   5.486   6.676 -1.4935 -0.5323  1.2656
11323SOL    HW234548   6.430   5.525   6.795  1.6544 -1.4300 -0.5718
11324SOL     OW34549   8.162   9.553   3.010  0.4457 -0.2586 -0.1055
11324SOL    HW134550   8.142   9.507   2.928  2.3219 -0.1319 -0.6970
11324SOL    HW234551   8.257   9.543   3.020  0.1817 -0.9333  2.4932
11325SOL     OW34552   9.076   7.693   9.943  0.3824  0.4146  0.0983
11325SOL    HW134553   9.120   7.611   9.920  2.2002  0.4196  2.9787
11325SOL    HW234554   9.141   7.761   9.926 -0.3359  1.0328 -0.2453
11326SOL     OW34555   4.987   3.661   0.085 -0.2468 -0.8706  0.7781
11326SOL    HW134556   4.999   3.737   0.142  0.0077  0.5173 -1.0406
11326SOL    HW234557   5.071   3.651   0.040 -0.4475 -1.9241  0.6057
11327SOL     OW34558   6.810   9.640   4.883  0.2251  0.3692  0.1770
11327SOL    HW134559   6.776   9.691   4.957 -0.4763 -0.4430  0.4262
11327SOL    HW234560   6.846   9.706   4.824 -0.4678  1.1452  0.5941
11328SOL     OW34561   5.980   6.399   8.254  0.0165 -0.5907  0.1335
11328SOL    HW134562   5.999   6.311   8.287  1.8573 -0.1615  0.3795
11328SOL    HW234563   6.065   6.444   8.258 -0.6920  0.9115 -0.8544
11329SOL     OW34564   6.651   9.434   1.773  0.3271 -0.1601  0.0174
11329SOL    HW134565   6.605   9.502   1.822 -0.0236  0.1386 -0.7069
11329SOL    HW234566   6.640   9.355   1.826 -1.3440 -0.1692 -0.2845
11330SOL     OW34567   0.968   9.544   0.712  0.7709 -0.2732  0.4979
11330SOL    HW134568   0.994   9.493   0.789 -2.5001  1.2194  2.7745
11330SOL    HW234569   1.029   9.618   0.711  1.5813 -0.9120  0.9307
11331SOL     OW34570   5.905   9.610   9.061 -0.2784 -0.4296 -0.0260
11331SOL    HW134571   5.964   9.561   9.003 -0.7421  0.7487 -1.5853
11331SOL    HW234572   5.834   9.550   9.079  0.0989 -0.9749 -0.3198
11332SOL     OW34573   7.085   6.499   2.640  0.9677  0.3038  0.1779
11332SOL    HW134574   7.063   6.410   2.666  0.3795  1.0008  2.3271
11332SOL    HW234575   7.164   6.490   2.586  0.0638 -1.5986 -0.9194
11333SOL     OW34576   2.682   3.673   6.256  0.5010  0.1967 -0.3746
11333SOL    HW134577   2.626   3.681   6.179  0.7058 -2.0827 -0.8331
11333SOL    HW234578   2.622   3.648   6.327  0.6513 -0.4157 -0.4506
11334SOL     OW34579   5.764   2.271   4.425  0.2352  0.0022  0.3623
11334SOL    HW134580   5.767   2.188   4.473  0.5307  0.7892  1.7730
11334SOL    HW234581   5.851   2.307   4.435 -0.7685  2.0754  2.8238
11335SOL     OW34582   3.060   2.155   1.929  0.0117  1.1950  0.4828
11335SOL    HW134583   2.979   2.108   1.945  0.3436  0.1110 -0.8307
11335SOL    HW234584   3.046   2.202   1.847  1.1698 -0.1929 -0.5633
11336SOL     OW34585   9.284   5.138   2.539 -0.3541 -0.3129 -0.0204
11336SOL    HW134586   9.294   5.054   2.585  0.8947  0.0068  0.3117
11336SOL    HW234587   9.191   5.159   2.548 -0.8088 -1.9366 -0.5922
11337SOL     OW34588   3.658   8.665   8.242  0.1388  0.1054  0.2189
11337SOL    HW134589   3.713   8.711   8.178  0.3191 -0.0496  0.2604
11337SOL    HW234590   3.574   8.653   8.198 -0.0202  0.7634  0.3223
11338SOL     OW34591   5.885   0.801   5.497 -0.3040 -0.4030 -0.0472
11338SOL    HW134592   5.969   0.754   5.494  0.3632  0.7093  0.4750
11338SOL    HW234593   5.856   0.793   5.588 -0.7994 -0.8348 -0.2413
11339SOL     OW34594   0.666   7.654   3.472 -0.2998 -0.0444 -0.0969
11339SOL    HW134595   0.660   7.643   3.377  0.1974  0.2071 -0.1623
11339SOL    HW234596   0.691   7.568   3.505  1.2654  0.2744 -0.3741
11340SOL     OW34597   2.975   8.662   3.723  0.2824 -0.3890 -0.3222
11340SOL    HW134598   3.030   8.586   3.741  0.3047 -0.0753  1.0557
11340SOL    HW234599   3.022   8.710   3.655  2.6083  0.6899  1.8437
11341SOL     OW34600   9.050   9.793   3.337 -0.2795  0.2994  0.1369
11341SOL    HW134601   9.067   9.846   3.258 -0.3214 -0.8890 -0.6916
11341SOL    HW234602   8.994   9.722   3.306 -0.0909 -0.3220  1.2035
11342SOL     OW34603   1.879   6.294   2.368 -0.2838 -0.2685 -0.0887
11342SOL    HW134604   1.953   6.337   2.410 -1.0891 -1.1400  2.4077
11342SOL    HW234605   1.813   6.364   2.358  0.0088  0.0041 -0.1205
11343SOL     OW34606   3.905   6.065   4.843  0.4504  0.1357  0.6257
11343SOL    HW134607   3.906   6.116   4.762  2.1173  1.7502  1.5920
11343SOL    HW234608   3.922   5.975   4.815  0.9028  0.6507 -0.8346
11344SOL     OW34609   7.938   8.021   0.117 -0.1407  0.0781 -0.3491
11344SOL    HW134610   8.031   8.046   0.110 -0.0939 -0.0148 -0.0612
11344SOL    HW234611   7.930   7.946   0.058 -0.0915  0.2467 -0.5727
11345SOL     OW34612   8.861   1.195   5.134 -0.1213  0.6246 -0.2533
11345SOL    HW134613   8.918   1.202   5.211  0.7858  1.2983 -0.9644
11345SOL    HW234614   8.870   1.104   5.106  0.3087  0.6233 -0.1230
11346SOL     OW34615   5.410   4.364   2.072 -0.2004 -0.0801 -0.0602
11346SOL    HW134616   5.500   4.383   2.045 -0.3862 -1.1738 -1.6253
11346SOL    HW234617   5.359   4.439   2.040  0.2118  0.8941  1.4638
11347SOL     OW34618   7.673   2.841   9.900  0.0869 -0.1474  0.7496
11347SOL    HW134619   7.749   2.837   9.959 -0.6941 -1.3599  1.7173
11347SOL    HW234620   7.680   2.761   9.848  0.3384  0.5323 -0.2898
11348SOL     OW34621   3.195   5.858   0.123 -0.2140  0.0414 -0.9387
11348SOL    HW134622   3.160   5.790   0.181 -0.3615  1.0436  0.1931
11348SOL    HW234623   3.238   5.919   0.182 -0.9995  1.4802 -1.8128
11349SOL     OW34624   4.177   8.680   1.219 -0.2628 -0.0937 -0.5848
11349SOL    HW134625   4.168   8.662   1.312  0.3662 -0.9703 -0.6682
11349SOL    HW234626   4.214   8.768   1.214 -0.1830 -0.0937  0.0058
11350SOL     OW34627   5.616   6.053   6.658 -0.4203  0.4139  0.8345
11350SOL    HW134628   5.591   5.961   6.649 -0.3419  0.2954  1.7521
11350SOL    HW234629   5.543   6.094   6.705 -0.3838  0.7925  0.5707
11351SOL     OW34630   9.234   1.253   4.835  0.2803 -0.3504  0.0473
11351SOL    HW134631   9.141   1.231   4.835  0.2808 -0.3545  0.2371
11351SOL    HW234632   9.279   1.170   4.819  0.2232 -0.2190 -0.8599
11352SOL     OW34633   9.320   3.511   7.268  0.3997 -0.3077 -0.1653
11352SOL    HW134634   9.278   3.508   7.354  0.8938 -1.4766  0.0503
11352SOL    HW234635   9.371   3.592   7.269 -0.0406 -0.0320  0.4185
11353SOL     OW34636   0.951   1.598   4.157  0.5843 -0.1043 -0.8757
11353SOL    HW134637   0.908   1.555   4.231  0.1726  2.2505  0.3487
11353SOL    HW234638   1.041   1.609   4.186  0.5911  0.1965 -1.0132
11354SOL     OW34639   9.154   2.452   6.896  0.1217  0.0612  0.4250
11354SOL    HW134640   9.193   2.372   6.931 -0.6688 -0.2587  0.5851
11354SOL    HW234641   9.201   2.522   6.941  1.8062 -0.2501 -0.7479
11355SOL     OW34642   5.728   7.334   3.295 -0.4275  0.3838 -0.5371
11355SOL    HW134643   5.817   7.347   3.327 -0.3919 -0.0457 -0.4569
11355SOL    HW234644   5.697   7.422   3.273 -1.1692  0.9668  2.4938
11356SOL     OW34645   0.764   2.562   8.787 -0.0701 -0.5378  0.0479
11356SOL    HW134646   0.756   2.638   8.729 -0.5620 -1.3651 -0.9910
11356SOL    HW234647   0.760   2.599   8.875 -1.4768  0.5290 -0.4331
11357SOL     OW34648   1.744   0.949   9.467 -0.1655  0.0425  0.4234
11357SOL    HW134649   1.688   0.989   9.400 -0.0549 -2.6828 -1.4854
11357SOL    HW234650   1.682   0.912   9.531 -0.2754  2.5590  1.8755
11358SOL     OW34651   9.635   0.519   3.808  0.4099  0.2403 -0.6039
11358SOL    HW134652   9.696   0.587   3.834  1.6418 -0.7847 -0.6837
11358SOL    HW234653   9.548   0.553   3.830  1.0960  1.2331  0.6432
11359SOL     OW34654   2.532   5.214   1.858 -0.4394 -0.1647  0.0897
11359SOL    HW134655   2.594   5.182   1.793 -0.6389 -2.1114  0.7856
11359SOL    HW234656   2.448   5.216   1.812 -0.5034 -1.1352  0.1257
11360SOL     OW34657   3.503   4.190   9.393  0.3880 -0.1283 -0.2320
11360SOL    HW134658   3.570   4.205   9.327  1.1452 -0.8854  0.3600
11360SOL    HW234659   3.550   4.191   9.476 -0.1681 -1.6601  0.1232
11361SOL     OW34660   6.324   2.013   5.782 -0.0679 -0.3855  0.1097
11361SOL    HW134661   6.277   2.074   5.725 -1.6191 -2.0410 -0.4996
11361SOL    HW234662   6.362   1.949   5.722 -0.5191 -1.3634  0.8333
11362SOL     OW34663   3.011   0.698   3.665 -0.3473 -0.4256  0.0356
11362SOL    HW134664   2.937   0.640   3.684  0.0026 -0.6112  0.9047
11362SOL    HW234665   2.978   0.786   3.682 -1.1778 -0.2477 -2.2356
11363SOL     OW34666   8.452   8.331   7.769  0.0957  0.0016 -0.3890
11363SOL    HW134667   8.390   8.367   7.706  0.0041  1.6867  0.5994
11363SOL    HW234668   8.509   8.405   7.792  0.2823 -0.6073  1.2949
11364SOL     OW34669   4.199   5.590   1.644  1.2882  0.7619 -0.1833
11364SOL    HW134670   4.114   5.606   1.601  1.0339  1.3064  0.5112
11364SOL    HW234671   4.187   5.507   1.690  1.4485  0.3539 -0.8538
11365SOL     OW34672   8.411   9.501   3.703 -0.3892 -0.1035 -0.0401
11365SOL    HW134673   8.491   9.550   3.722 -0.3663 -1.0081  2.4663
11365SOL    HW234674   8.345   9.539   3.761 -1.2442 -0.7460 -0.5691
11366SOL     OW34675   3.635   6.338   6.984 -0.3754  0.3967 -0.4081
11366SOL    HW134676   3.622   6.253   6.943 -0.9035  0.4509 -0.3608
11366SOL    HW234677   3.552   6.383   6.973 -0.6121  0.3263  0.8981
11367SOL     OW34678   2.548   9.161   4.014  0.0417  0.4683 -0.0250
11367SOL    HW134679   2.458   9.193   4.018 -0.4273 -0.8569  1.1013
11367SOL    HW234680   2.585   9.202   3.936 -1.8351  0.3220 -1.0478
11368SOL     OW34681   4.913   9.229   8.927  0.2683 -0.0062  0.2460
11368SOL    HW134682   4.834   9.181   8.901 -0.0955  0.3462  0.6825
11368SOL    HW234683   4.880   9.311   8.964  0.8767  0.5276 -0.3717
11369SOL     OW34684   2.203   4.034   3.885  0.2041 -0.4227  0.4511
11369SOL    HW134685   2.295   4.015   3.900  0.5397  0.1711 -0.7420
11369SOL    HW234686   2.203   4.119   3.840 -0.8890 -0.7135 -0.1264
11370SOL     OW34687   1.392   8.706   4.916 -0.0379  0.1379 -0.1034
11370SOL    HW134688   1.384   8.801   4.910  0.8424  0.1775 -0.9598
11370SOL    HW234689   1.477   8.686   4.876  0.4494 -0.8870  1.3330
11371SOL     OW34690   4.381   1.369   3.185  0.2736  0.0677 -0.2054
11371SOL    HW134691   4.409   1.319   3.108  0.5136  1.9608 -1.4022
11371SOL    HW234692   4.441   1.443   3.188  0.2960  0.0114  1.8706
11372SOL     OW34693   9.126   0.321   9.657  0.2884 -0.4386  0.2824
11372SOL    HW134694   9.081   0.255   9.605 -0.0452 -0.3127  0.4072
11372SOL    HW234695   9.218   0.294   9.657 -0.0738 -1.8081  1.6677
11373SOL     OW34696   8.338   7.085   3.042  0.4631  0.0664  0.0220
11373SOL    HW134697   8.272   7.033   2.996  2.0471 -1.4089 -0.6801
11373SOL    HW234698   8.300   7.173   3.048 -1.7312 -0.8348  0.0594
11374SOL     OW34699   0.230   7.248   7.210 -0.1436  0.6780  0.0730
11374SOL    HW134700   0.253   7.341   7.198  2.0340  0.2781  0.6314
11374SOL    HW234701   0.164   7.249   7.279 -0.2909  1.8285 -0.0522
11375SOL     OW34702   4.478   9.467   8.460 -0.2528  0.3307 -0.2351
11375SOL    HW134703   4.494   9.405   8.532 -0.2561  2.5014  1.7477
11375SOL    HW234704   4.388   9.450   8.433  0.0967 -1.2422 -0.5322
11376SOL     OW34705   6.285   2.875   4.788 -0.4299  0.3984 -0.5432
11376SOL    HW134706   6.368   2.828   4.784  0.0065  1.0926  0.1416
11376SOL    HW234707   6.300   2.944   4.852 -1.6692  0.2762 -0.1001
11377SOL     OW34708   6.063   5.536   9.841 -0.2639  0.4389  0.6911
11377SOL    HW134709   6.035   5.464   9.785  1.2861  0.4211 -0.0842
11377SOL    HW234710   6.094   5.493   9.921  0.1620  0.2870  0.4435
11378SOL     OW34711   1.066   3.757   7.395  0.3087  0.2679  0.1157
11378SOL    HW134712   1.065   3.674   7.442 -1.1236 -1.7769 -3.2024
11378SOL    HW234713   1.157   3.768   7.368  0.0891 -1.7195 -1.6740
11379SOL     OW34714   7.878   3.824   3.255  0.1572 -0.0351 -0.0612
11379SOL    HW134715   7.921   3.766   3.192  1.4292 -0.0275  0.7705
11379SOL    HW234716   7.815   3.768   3.301 -1.4479  0.1397 -1.8684
11380SOL     OW34717   4.634   1.180   8.263  0.4670  0.3316  0.4592
11380SOL    HW134718   4.623   1.098   8.311  0.0071 -0.2085 -0.5574
11380SOL    HW234719   4.715   1.217   8.298  0.9174 -0.7704  0.6209
11381SOL     OW34720   0.082   9.868   2.328  0.4062 -0.1223  0.0557
11381SOL    HW134721   0.126   9.883   2.244  0.1445  1.2899  0.1434
11381SOL    HW234722   0.049   9.954   2.353  1.0343 -0.3738  1.9281
11382SOL     OW34723   0.127   5.021   7.470  0.2342  0.0113 -0.2355
11382SOL    HW134724   0.127   4.938   7.422  0.9397 -0.4168  0.4950
11382SOL    HW234725   0.219   5.039   7.487 -0.0040  0.1644  0.9410
11383SOL     OW34726   3.070   4.422   3.967 -0.2091  0.3726  0.5991
11383SOL    HW134727   2.989   4.472   3.969  0.0885  0.9788 -0.8783
11383SOL    HW234728   3.102   4.422   4.057 -0.7693  1.9301  0.8133
11384SOL     OW34729   4.610   1.256   1.058  0.0961 -0.2259  0.3026
11384SOL    HW134730   4.697   1.218   1.058  0.1614 -0.1390 -0.9964
11384SOL    HW234731   4.623   1.345   1.023 -0.5959 -0.4816 -0.6555
11385SOL     OW34732   8.949   5.915   1.774  0.0717  0.5106  0.3228
11385SOL    HW134733   9.042   5.935   1.786 -0.1010  1.6041 -0.1014
11385SOL    HW234734   8.916   5.906   1.864  0.6072 -0.0150  0.4744
11386SOL     OW34735   1.372   0.682   2.936 -0.0664 -0.4567  0.2959
11386SOL    HW134736   1.335   0.766   2.909  1.5910  0.5926  1.1439
11386SOL    HW234737   1.335   0.618   2.875 -0.3371  1.0828 -1.2032
11387SOL     OW34738   3.041   9.368   0.221 -0.5386 -0.2622 -0.7213
11387SOL    HW134739   3.070   9.459   0.222 -0.7628 -0.1558  1.6526
11387SOL    HW234740   2.945   9.373   0.225 -0.5805 -0.5951 -1.2907
11388SOL     OW34741   0.194   5.730   9.518  0.2782 -0.2930  0.1841
11388SOL    HW134742   0.138   5.676   9.574  0.0867 -0.1467  0.1370
11388SOL    HW234743   0.146   5.737   9.436 -0.3219  1.0172  0.6224
11389SOL     OW34744   4.470   6.455   6.896 -0.2729 -0.0132 -0.2925
11389SOL    HW134745   4.442   6.520   6.831 -0.2454 -0.2063 -0.4997
11389SOL    HW234746   4.405   6.385   6.889  1.0153 -1.1246 -1.7763
11390SOL     OW34747   7.885   9.096   9.805  0.3873  0.1278  0.3081
11390SOL    HW134748   7.798   9.065   9.830  0.3635 -0.3302 -0.3077
11390SOL    HW234749   7.938   9.086   9.884  0.4766 -1.8726  0.0441
11391SOL     OW34750   3.508   7.939   0.240 -0.2977 -0.1490 -0.3977
11391SOL    HW134751   3.585   7.891   0.210 -1.1029 -0.7017 -1.6746
11391SOL    HW234752   3.469   7.974   0.159 -2.3897 -1.4274 -0.0217
11392SOL     OW34753   6.256   5.058   8.076 -0.3013 -0.2796 -0.0230
11392SOL    HW134754   6.242   5.017   7.991 -0.6209 -0.3264  0.0522
11392SOL    HW234755   6.314   5.132   8.057  0.0897 -0.6225 -0.1909
11393SOL     OW34756   1.858   2.677   6.092  0.3116 -0.4017  0.4827
11393SOL    HW134757   1.886   2.755   6.044  0.9628 -0.3436  0.9454
11393SOL    HW234758   1.863   2.702   6.184 -1.8476 -0.1989  0.5856
11394SOL     OW34759   3.758   6.940   4.124 -0.0245 -0.3651 -0.3540
11394SOL    HW134760   3.728   6.986   4.046  0.8429 -0.2857 -0.6549
11394SOL    HW234761   3.840   6.984   4.148 -0.5332 -0.0628  0.8973
11395SOL     OW34762   1.744   2.621   7.933 -0.3555  0.0161  0.4595
11395SOL    HW134763   1.744   2.545   7.874 -1.2896  0.0759  0.3680
11395SOL    HW234764   1.749   2.583   8.021  3.2784 -0.0403  0.4014
11396SOL     OW34765   9.522   0.412   3.086 -0.8536  0.1269  0.2300
11396SOL    HW134766   9.544   0.405   3.179 -0.7075  1.0963  0.2781
11396SOL    HW234767   9.476   0.496   3.079 -1.3965 -0.2242 -0.4763
11397SOL     OW34768   4.891   1.006   2.010  0.2180  0.1196  0.1343
11397SOL    HW134769   4.846   1.062   2.073  1.6908 -0.6894  2.0307
11397SOL    HW234770   4.953   1.064   1.966 -0.2668  0.5394  0.0027
11398SOL     OW34771   5.866   7.800   7.622  0.4838  0.2308 -0.2919
11398SOL    HW134772   5.836   7.813   7.711 -1.2655  2.7041 -1.1244
11398SOL    HW234773   5.898   7.710   7.620 -0.4495 -0.2645  2.5058
11399SOL     OW34774   1.818   9.712   0.706  0.4002 -0.1109  0.6089
11399SOL    HW134775   1.818   9.779   0.775 -0.3846 -0.1764  0.6914
11399SOL    HW234776   1.763   9.749   0.637  0.2121 -0.5418  0.5273
11400SOL     OW34777   3.081   7.059   7.034  0.2320 -0.1115  0.0253
11400SOL    HW134778   3.048   7.103   6.956  0.9336  0.7822  0.2136
11400SOL    HW234779   3.142   6.993   7.002 -2.3919 -2.5201 -0.4029
11401SOL     OW34780   4.935   9.735   7.881  0.0722 -0.2225  0.0046
11401SOL    HW134781   5.025   9.721   7.853  1.1898  0.0067  3.0937
11401SOL    HW234782   4.942   9.785   7.962 -2.9587  1.4111 -0.5856
11402SOL     OW34783   7.870   6.843   2.145 -0.2108 -0.2741  0.1431
11402SOL    HW134784   7.817   6.920   2.166 -0.8171 -0.4370 -0.7586
11402SOL    HW234785   7.819   6.769   2.177 -0.2026 -0.3847 -0.1001
11403SOL     OW34786   5.836   6.230   6.345 -0.2175  0.7041 -0.2993
11403SOL    HW134787   5.922   6.216   6.306 -0.3254  1.5167 -0.8528
11403SOL    HW234788   5.774   6.194   6.281 -0.3946  2.0491 -0.9254
11404SOL     OW34789   8.960   1.810   7.906  0.5427  0.0517  0.2641
11404SOL    HW134790   9.048   1.780   7.882  1.1176  1.6488  0.2557
11404SOL    HW234791   8.953   1.791   8.000  1.8782  2.1182  0.8301
11405SOL     OW34792   1.389   8.505   7.137  0.0144 -0.7378  0.1122
11405SOL    HW134793   1.329   8.578   7.125  0.4804 -0.1699  1.0651
11405SOL    HW234794   1.388   8.458   7.054  1.9122  2.0259 -1.6415
11406SOL     OW34795   0.660   7.656   2.663  0.0547 -0.2326  0.4173
11406SOL    HW134796   0.721   7.621   2.728  1.6520 -0.3455 -1.0475
11406SOL    HW234797   0.690   7.619   2.580  1.5714  4.0321 -1.2135
11407SOL     OW34798   5.815   6.860   2.700  0.0504 -0.2185  0.1525
11407SOL    HW134799   5.858   6.811   2.630  1.5481 -0.7071  1.3387
11407SOL    HW234800   5.888   6.902   2.747 -0.9840  0.8201  0.8750
11408SOL     OW34801   7.565   1.590   1.080 -0.1533 -0.0008 -0.7708
11408SOL    HW134802   7.641   1.532   1.071  0.6844  0.9882 -0.3036
11408SOL    HW234803   7.603   1.675   1.103 -1.4606  0.3239  0.2827
11409SOL     OW34804   0.492   1.129   5.964 -0.0495  0.1825 -0.2076
11409SOL    HW134805   0.412   1.156   6.011 -0.2867 -0.7033 -0.0813
11409SOL    HW234806   0.481   1.166   5.877 -0.5630  0.1542 -0.1637
11410SOL     OW34807   5.686   5.909   4.660  0.2295  0.7056 -0.5821
11410SOL    HW134808   5.682   5.922   4.755 -1.1204 -0.5157 -0.4373
11410SOL    HW234809   5.673   5.815   4.648 -1.6237  1.0736 -2.0312
11411SOL     OW34810   1.024   9.295   1.527  0.6124  0.0898 -0.2793
11411SOL    HW134811   1.061   9.363   1.471  0.1895  0.3880 -0.2007
11411SOL    HW234812   0.946   9.265   1.481  1.0097 -0.6130 -0.4959
11412SOL     OW34813   6.086   8.360   4.146  0.2377 -0.0199  0.1195
11412SOL    HW134814   6.099   8.376   4.052  0.1796 -1.2614 -0.1168
11412SOL    HW234815   5.997   8.391   4.163  0.1842  0.0515 -0.2740
11413SOL     OW34816   4.070   7.247   4.800 -0.3981  0.4779  0.0316
11413SOL    HW134817   4.106   7.320   4.850 -0.2093  0.9875 -0.8249
11413SOL    HW234818   4.050   7.180   4.865  2.0942  0.1612  0.5830
11414SOL     OW34819   8.148   7.716   0.942 -0.7438 -0.2348  0.0556
11414SOL    HW134820   8.187   7.640   0.985 -1.3999  0.1976  1.4991
11414SOL    HW234821   8.172   7.707   0.850  0.2116 -1.5379  0.3994
11415SOL     OW34822   7.850   9.793   5.237 -0.0001 -0.5553 -0.7167
11415SOL    HW134823   7.942   9.792   5.210 -0.0132 -0.6534 -0.7566
11415SOL    HW234824   7.840   9.715   5.290  0.5935  0.7654  1.4821
11416SOL     OW34825   9.727   5.967   9.516 -0.2688  0.4190 -0.2778
11416SOL    HW134826   9.731   5.872   9.504  0.1998  0.0030  2.4108
11416SOL    HW234827   9.662   5.979   9.585  0.3614  1.9566  0.0858
11417SOL     OW34828   8.978   8.311   3.333  0.2920  0.1594  0.2411
11417SOL    HW134829   9.029   8.233   3.358 -0.9251 -0.7080  0.0816
11417SOL    HW234830   8.984   8.314   3.238 -0.5336 -0.3660  0.1642
11418SOL     OW34831   3.659   0.235   6.280  0.3431 -0.4029  0.1972
11418SOL    HW134832   3.568   0.234   6.250 -0.2602 -2.4821  1.8176
11418SOL    HW234833   3.695   0.150   6.252  2.2741  0.9296 -1.6430
11419SOL     OW34834   6.893   8.479   2.740  0.2705  0.2623 -0.0341
11419SOL    HW134835   6.920   8.404   2.793 -2.3226  1.1640  2.9080
11419SOL    HW234836   6.955   8.548   2.764 -0.9338  0.6905  2.1089
11420SOL     OW34837   7.625   1.240   3.677 -0.1861 -0.2343  0.4435
11420SOL    HW134838   7.558   1.293   3.721 -0.1194  0.0969  0.1562
11420SOL    HW234839   7.618   1.154   3.717 -1.0289 -0.3016  0.1797
11421SOL     OW34840   9.547   1.957   0.958  0.1481  0.0026 -0.4602
11421SOL    HW134841   9.467   2.006   0.944 -0.0691 -0.4324 -0.7452
11421SOL    HW234842   9.617   2.018   0.936 -0.1065  0.3649 -0.2615
11422SOL     OW34843   5.896   0.530   1.800  0.4494 -0.5864 -0.5647
11422SOL    HW134844   5.984   0.495   1.815  0.3690 -0.8862 -0.7730
11422SOL    HW234845   5.848   0.511   1.880  1.3591  2.1645  0.7618
11423SOL     OW34846   7.897   8.034   3.686  0.1225 -0.8008 -0.6222
11423SOL    HW134847   7.928   7.963   3.744 -1.5209 -1.0370  0.0239
11423SOL    HW234848   7.874   8.104   3.746  2.2636  0.5843 -1.2859
11424SOL     OW34849   1.069   0.120   8.193 -0.0302 -0.3496  0.4448
11424SOL    HW134850   1.114   0.169   8.261 -1.3228  0.9844  0.3822
11424SOL    HW234851   1.110   0.149   8.111  1.0087 -1.3965  0.5601
11425SOL     OW34852   6.976   3.092   2.109  0.6023 -0.3501 -0.8718
11425SOL    HW134853   6.921   3.170   2.112  0.1853 -0.6042 -1.7874
11425SOL    HW234854   6.991   3.076   2.016 -0.1966 -1.9581 -0.7586
11426SOL     OW34855   9.320   3.742   9.938  0.0260  0.5522  0.3264
11426SOL    HW134856   9.319   3.655   9.977  1.3752  0.4526  0.1596
11426SOL    HW234857   9.310   3.727   9.844 -1.6426  0.7077  0.4458
11427SOL     OW34858   7.767   6.170   4.492  0.6756 -0.1969 -0.2985
11427SOL    HW134859   7.686   6.130   4.461 -0.3743  0.6736  1.1873
11427SOL    HW234860   7.795   6.225   4.419 -1.5009  1.4915  0.0144
11428SOL     OW34861   8.183   8.252   3.821  0.1878 -0.5969  0.2991
11428SOL    HW134862   8.141   8.267   3.906  2.6459  1.3469  1.2841
11428SOL    HW234863   8.232   8.171   3.833 -1.7582 -1.9396 -0.3062
11429SOL     OW34864   3.211   7.124   9.822  0.8319 -0.3238 -0.1893
11429SOL    HW134865   3.249   7.058   9.879  1.0499 -0.6007 -0.6485
11429SOL    HW234866   3.237   7.097   9.733  0.0029 -0.2361 -0.4667
11430SOL     OW34867   9.988   1.536   4.446  0.4140  0.3827  0.8386
11430SOL    HW134868   9.907   1.582   4.466  0.3408  0.5764  0.1189
11430SOL    HW234869   9.961   1.463   4.390  0.8939  1.3342 -0.6939
11431SOL     OW34870   4.103   3.366   5.961  0.5969  0.0473  0.2310
11431SOL    HW134871   4.156   3.332   6.033  1.6485  2.0002  0.4315
11431SOL    HW234872   4.165   3.412   5.905 -0.3445 -0.6565 -1.4902
11432SOL     OW34873   2.150   9.053   7.044 -0.1017  0.4209 -0.5474
11432SOL    HW134874   2.148   9.145   7.019  0.2350  0.2140 -1.4080
11432SOL    HW234875   2.190   9.009   6.968 -0.9486 -0.5246 -0.4716
11433SOL     OW34876   0.746   2.449   6.568  0.0299  0.0609  0.0396
11433SOL    HW134877   0.806   2.451   6.494 -0.1803  0.4594 -0.1243
11433SOL    HW234878   0.716   2.540   6.577  0.7686  0.2082  1.2032
11434SOL     OW34879   5.597   3.012   8.934  0.0854  0.1180  0.2213
11434SOL    HW134880   5.574   2.921   8.918 -0.9598  0.4047  0.0201
11434SOL    HW234881   5.530   3.063   8.889 -1.4600  0.9712  3.2079
11435SOL     OW34882   3.124   7.302   8.846 -0.0208  0.8880  0.7053
11435SOL    HW134883   3.163   7.357   8.913 -1.0319 -1.0181  3.0259
11435SOL    HW234884   3.194   7.242   8.819  0.3071  1.4740  0.2340
11436SOL     OW34885   6.569   0.909   7.112  0.6179  0.0268 -0.5230
11436SOL    HW134886   6.620   0.975   7.160 -0.8903  0.5021  0.4853
11436SOL    HW234887   6.569   0.940   7.021 -0.4502  1.7160 -0.0023
11437SOL     OW34888   1.659   3.365   0.603  0.3698  0.2350 -0.6880
11437SOL    HW134889   1.739   3.340   0.651  0.0238  0.7613  0.1947
11437SOL    HW234890   1.592   3.307   0.638 -0.1130  1.3280  0.2618
11438SOL     OW34891   1.669   6.126   3.667 -0.9045 -0.3468 -0.1973
11438SOL    HW134892   1.744   6.131   3.608 -1.6494  1.1756 -1.0952
11438SOL    HW234893   1.700   6.076   3.742  0.4582 -1.2455 -1.3204
11439SOL     OW34894   9.511   4.157   9.067  0.8365 -0.1182  0.0578
11439SOL    HW134895   9.524   4.250   9.048 -1.2195  0.1747 -0.1622
11439SOL    HW234896   9.524   4.150   9.162 -2.4026  1.1730  0.7426
11440SOL     OW34897   8.673   8.320   7.194 -0.1180  0.0146  0.2006
11440SOL    HW134898   8.662   8.291   7.104 -0.5688  0.1670  0.2040
11440SOL    HW234899   8.660   8.240   7.246  0.6511 -0.1783  0.1098
11441SOL     OW34900   0.723   6.027   3.792  0.6257  0.0465  0.4317
11441SOL    HW134901   0.816   6.047   3.800  0.2708  1.4309  1.4928
11441SOL    HW234902   0.696   6.070   3.711  1.0995 -1.2879 -0.4782
11442SOL     OW34903   7.289   3.092   8.276  0.5083  0.4094  0.6446
11442SOL    HW134904   7.229   3.036   8.227 -0.0956  0.4636  1.2978
11442SOL    HW234905   7.346   3.130   8.210  0.2282 -0.1368  0.0783
11443SOL     OW34906   4.986   1.925   1.443  0.0782 -0.2510  0.1047
11443SOL    HW134907   5.010   1.912   1.534 -2.1437  1.6908  1.0915
11443SOL    HW234908   5.069   1.922   1.395  1.7776  1.8240  2.6284
11444SOL     OW34909   1.911   9.285   2.355  0.4252 -0.3577 -0.0533
11444SOL    HW134910   1.845   9.226   2.391  0.5529 -0.6492 -0.2897
11444SOL    HW234911   1.980   9.288   2.421  1.1655 -1.7441 -0.7082
11445SOL     OW34912   1.629   9.587   4.242  0.4505  0.5131 -0.5524
11445SOL    HW134913   1.610   9.647   4.170  1.1238 -0.2009 -1.3356
11445SOL    HW234914   1.617   9.500   4.204 -0.8206  0.1189  0.6526
11446SOL     OW34915   1.755   2.832   1.003  0.2072 -0.0900 -0.5357
11446SOL    HW134916   1.712   2.896   0.945  0.6348  0.0438 -0.7109
11446SOL    HW234917   1.687   2.769   1.024 -0.7421  1.3939  1.1094
11447SOL     OW34918   6.350   7.097   7.356  0.0996 -0.4861 -0.2756
11447SOL    HW134919   6.261   7.070   7.377  0.7708 -1.6474  1.2525
11447SOL    HW234920   6.341   7.148   7.275 -1.9918 -0.1674  0.0973
11448SOL     OW34921   4.156   0.060   5.898  0.3825  0.3214 -0.2527
11448SOL    HW134922   4.174   0.123   5.968  1.2284 -0.9071  0.6774
11448SOL    HW234923   4.239   0.053   5.851  0.0588  0.4836 -0.8674
11449SOL     OW34924   8.770   3.427   4.104  0.1430  0.2331  0.3040
11449SOL    HW134925   8.719   3.505   4.126  1.3390  1.1268 -0.0064
11449SOL    HW234926   8.807   3.447   4.018 -0.6833 -1.2817 -0.4417
11450SOL     OW34927   8.618   9.670   4.420  0.4304  0.3643 -0.7126
11450SOL    HW134928   8.618   9.715   4.335  0.4673 -0.5713 -1.2158
11450SOL    HW234929   8.596   9.739   4.483 -0.4039  0.8990 -1.5636
11451SOL     OW34930   6.692   4.951   5.379  0.1862  0.2532 -0.1219
11451SOL    HW134931   6.786   4.938   5.394  0.1543  1.0170  0.7650
11451SOL    HW234932   6.651   4.929   5.462 -0.4008  0.1559 -0.4365
11452SOL     OW34933   2.448   9.847   0.575  0.8306 -0.1465  0.2371
11452SOL    HW134934   2.461   9.792   0.653  0.7312 -0.3473  0.1131
11452SOL    HW234935   2.427   9.785   0.505  1.8315 -0.0469 -0.1708
11453SOL     OW34936   9.492   9.178   9.602  0.3357 -0.2986 -0.0432
11453SOL    HW134937   9.502   9.262   9.556  2.0442 -0.1960  0.4257
11453SOL    HW234938   9.543   9.190   9.683  1.0488 -1.9445 -0.2114
11454SOL     OW34939   5.702   1.482   4.724  0.0334 -0.3643  0.3528
11454SOL    HW134940   5.620   1.530   4.717 -0.3435 -0.9906  0.4036
11454SOL    HW234941   5.679   1.391   4.704  0.4079 -0.8319  1.8496
11455SOL     OW34942   1.364   1.256   2.526  0.1014  0.0596  0.0272
11455SOL    HW134943   1.343   1.175   2.573 -1.4184 -0.3868 -1.3353
11455SOL    HW234944   1.388   1.226   2.437 -0.2871  1.0792 -0.4312
11456SOL     OW34945   3.193   7.974   4.358 -0.1128 -0.1301 -0.3100
11456SOL    HW134946   3.268   8.025   4.327  1.5105 -1.2476  1.5111
11456SOL    HW234947   3.232   7.891   4.388 -2.3973 -1.7221 -1.4171
11457SOL     OW34948   9.333   4.359   8.887  0.0370  0.1070  0.4585
11457SOL    HW134949   9.304   4.421   8.820 -0.9456 -0.9501 -0.1260
11457SOL    HW234950   9.426   4.378   8.899  1.1752 -1.6901 -3.5762
11458SOL     OW34951   5.677   1.640   6.822 -0.0588 -0.1714  0.2150
11458SOL    HW134952   5.702   1.722   6.779 -0.0286  1.3145  2.8470
11458SOL    HW234953   5.586   1.654   6.848 -0.6717 -1.7638 -0.9531
11459SOL     OW34954   5.542   0.566   4.790  0.6556 -1.0726 -0.2282
11459SOL    HW134955   5.531   0.473   4.808 -0.8186 -0.7796  0.6111
11459SOL    HW234956   5.586   0.601   4.867  0.3261 -0.9305 -0.0988
11460SOL     OW34957   5.565   8.788   3.266  0.0539  0.6012  0.2571
11460SOL    HW134958   5.581   8.785   3.171 -1.6184 -2.1370 -0.0593
11460SOL    HW234959   5.647   8.758   3.305  0.9875  2.3803 -0.2160
11461SOL     OW34960   1.556   9.260   5.156  0.6212 -0.6956 -0.2753
11461SOL    HW134961   1.558   9.278   5.062 -0.1852 -0.9799 -0.3558
11461SOL    HW234962   1.644   9.281   5.186  0.6989  0.0580 -0.9738
11462SOL     OW34963   0.367   9.085   5.720 -0.2242  0.1787 -0.0549
11462SOL    HW134964   0.300   9.129   5.772  0.2907 -1.4720  2.1692
11462SOL    HW234965   0.379   9.000   5.763  2.1217 -0.2442 -1.3543
11463SOL     OW34966   2.237   6.939   2.750  0.5916  0.7020 -0.3319
11463SOL    HW134967   2.285   6.879   2.693  0.1034  0.6730 -0.7162
11463SOL    HW234968   2.150   6.902   2.756  0.7384  0.5029  0.7426
11464SOL     OW34969   2.359   7.932   6.866 -0.1518  0.2289  0.0541
11464SOL    HW134970   2.374   7.996   6.936  2.9166 -0.8380  0.5200
11464SOL    HW234971   2.313   7.860   6.910  0.8072  0.0213  0.7543
11465SOL     OW34972   2.871   3.408   8.335 -0.5813  0.1588  0.2436
11465SOL    HW134973   2.919   3.421   8.416 -0.1280 -0.7755  0.1471
11465SOL    HW234974   2.933   3.431   8.266 -0.6070 -0.0648  0.1437
11466SOL     OW34975   9.716   8.795   0.361  0.0610  0.2651 -0.1729
11466SOL    HW134976   9.791   8.794   0.420  0.7012 -1.7399 -0.9122
11466SOL    HW234977   9.717   8.882   0.322  2.4375  0.0898 -0.6396
11467SOL     OW34978   6.432   0.340   8.585 -0.2328 -0.0748  0.6584
11467SOL    HW134979   6.485   0.297   8.652 -0.7301  0.5169  1.4596
11467SOL    HW234980   6.447   0.433   8.599  0.3939  0.0508 -0.6929
11468SOL     OW34981   0.974   8.386   8.958 -0.1602  0.0916 -0.4876
11468SOL    HW134982   0.995   8.294   8.945 -1.3267 -0.3121  0.3116
11468SOL    HW234983   0.933   8.389   9.045 -0.3144  1.3264 -0.5873
11469SOL     OW34984   4.807   7.398   4.855  0.1123  0.4201 -0.6776
11469SOL    HW134985   4.770   7.321   4.812  0.9874 -0.5819  0.2775
11469SOL    HW234986   4.875   7.362   4.912 -0.7875  1.6934  1.2929
11470SOL     OW34987   7.637   7.014   2.176  0.4098 -0.0993 -0.6782
11470SOL    HW134988   7.654   7.082   2.241  0.1509 -1.3642  0.7752
11470SOL    HW234989   7.592   6.945   2.225  1.7635 -1.8587 -1.7961
11471SOL     OW34990   6.192   8.622   0.829  0.3935  1.1283  0.6377
11471SOL    HW134991   6.264   8.673   0.868  0.2572  2.5310 -0.8263
11471SOL    HW234992   6.160   8.677   0.758  1.6184 -1.8511 -2.5132
11472SOL     OW34993   2.579   6.449   3.507  0.5176  0.2851  0.2507
11472SOL    HW134994   2.543   6.532   3.536  3.0132  2.2812 -1.8366
11472SOL    HW234995   2.619   6.411   3.586 -1.7357  0.3527  1.4984
11473SOL     OW34996   1.192   7.371   2.795  0.0573  0.1639 -0.8441
11473SOL    HW134997   1.161   7.324   2.872 -2.6191  0.6420 -1.5105
11473SOL    HW234998   1.268   7.322   2.766  1.6034  0.3356  2.4176
11474SOL     OW34999   4.043   3.753   7.616  0.4064  0.2629  0.1789
11474SOL    HW135000   4.077   3.669   7.649  0.0423 -0.7820 -1.9627
11474SOL    HW235001   4.113   3.787   7.561  0.4139  1.2474  0.7706
11475SOL     OW35002   3.566   1.582   1.316  0.4315  0.6530  0.4327
11475SOL    HW135003   3.661   1.571   1.326  0.4949  1.6916  1.1811
11475SOL    HW235004   3.552   1.577   1.221  0.9488 -1.4059  0.4021
11476SOL     OW35005   2.301   8.967   9.104  0.4438 -0.2228 -0.7052
11476SOL    HW135006   2.352   8.922   9.037 -0.3122 -2.0759 -0.0998
11476SOL    HW235007   2.362   8.980   9.177  0.1473 -2.2841 -0.0423
11477SOL     OW35008   0.414   1.719   3.578 -0.0856 -0.5431 -0.1552
11477SOL    HW135009   0.485   1.772   3.541 -0.7339 -0.0840 -0.7668
11477SOL    HW235010   0.439   1.629   3.558 -1.8595 -0.3111 -4.6708
11478SOL     OW35011   2.312   5.176   1.703 -0.0000  0.1135 -0.2140
11478SOL    HW135012   2.281   5.090   1.733  2.0721 -0.3663  0.7370
11478SOL    HW235013   2.345   5.160   1.615  0.3101 -0.0653 -0.0683
11479SOL     OW35014   1.901   1.833   1.284 -0.0267  0.3452 -0.3413
11479SOL    HW135015   1.899   1.758   1.225  0.2149  0.8736 -1.0317
11479SOL    HW235016   1.833   1.814   1.349  1.7095 -1.6625  1.0105
11480SOL     OW35017   4.120   3.472   5.057 -0.8000 -0.2860  0.0039
11480SOL    HW135018   4.068   3.529   5.002 -0.9331 -1.0872 -0.7291
11480SOL    HW235019   4.197   3.451   5.004 -1.6521 -2.3038 -0.5482
11481SOL     OW35020   3.112   7.476   4.025  0.1295  0.2917 -0.1357
11481SOL    HW135021   3.112   7.554   3.969  0.8459 -0.7213 -1.6352
11481SOL    HW235022   3.100   7.510   4.113 -1.1247  1.9670 -0.8922
11482SOL     OW35023   8.852   7.350   5.428 -0.1358 -0.1165 -0.1467
11482SOL    HW135024   8.897   7.272   5.459 -1.0240 -0.2344  0.9116
11482SOL    HW235025   8.791   7.373   5.499  0.3601  1.7556 -0.2719
11483SOL     OW35026   4.752   7.142   7.621 -0.1692  0.2472 -0.0852
11483SOL    HW135027   4.720   7.064   7.576  0.4042  0.3294 -0.6426
11483SOL    HW235028   4.800   7.108   7.696  0.7456  0.0330 -0.7600
11484SOL     OW35029   3.094   2.917   6.775  0.0636  0.2927 -0.1547
11484SOL    HW135030   3.136   2.924   6.861  1.3189 -4.3391 -0.1116
11484SOL    HW235031   3.000   2.909   6.795  0.2978 -0.3516  0.7835
11485SOL     OW35032   1.179   4.338   4.329 -0.3538  0.0282 -0.6533
11485SOL    HW135033   1.190   4.285   4.250 -0.5733  0.9141 -1.2988
11485SOL    HW235034   1.115   4.290   4.381 -0.7069 -0.2515 -1.3214
11486SOL     OW35035   3.720   0.187   6.701  0.3569 -0.5234  0.5562
11486SOL    HW135036   3.778   0.206   6.627  0.7041  0.4375  1.0587
11486SOL    HW235037   3.632   0.191   6.664  0.4560  1.1061  0.3965
11487SOL     OW35038   9.432   3.849   5.125  0.6176  0.4013 -0.3977
11487SOL    HW135039   9.443   3.894   5.208 -1.7525 -0.6862  0.6025
11487SOL    HW235040   9.384   3.910   5.070  0.9583  0.5924 -0.4854
11488SOL     OW35041   7.912   7.049   9.512 -0.0749  0.4342 -0.0380
11488SOL    HW135042   7.934   6.965   9.473  1.0167  1.2964 -1.3988
11488SOL    HW235043   7.848   7.087   9.451 -0.2420  0.7573  0.3364
11489SOL     OW35044   9.462   1.337   4.551 -0.1300 -0.2339  0.4507
11489SOL    HW135045   9.470   1.343   4.646 -1.5774 -0.7018  0.6315
11489SOL    HW235046   9.541   1.290   4.523 -0.0341 -0.7324  1.5028
11490SOL     OW35047   6.158   3.101   5.405  0.3996  0.1763 -0.3681
11490SOL    HW135048   6.183   3.013   5.379 -0.4672  0.0536 -0.8327
11490SOL    HW235049   6.237   3.137   5.447  1.0732 -0.4635 -1.0500
11491SOL     OW35050   4.395   2.830   2.111  0.1552 -0.1062 -0.4283
11491SOL    HW135051   4.341   2.767   2.063 -0.8533  0.9431 -0.7067
11491SOL    HW235052   4.368   2.916   2.078  0.3303  0.5822  1.1119
11492SOL     OW35053   0.188   5.234   3.212  0.4993 -0.1800 -0.0631
11492SOL    HW135054   0.098   5.212   3.236  0.4578 -1.1970 -1.0515
11492SOL    HW235055   0.241   5.193   3.279  0.2025  1.8383  1.4931
11493SOL     OW35056   9.454   0.713   2.703  0.8097 -0.0419  0.2886
11493SOL    HW135057   9.540   0.685   2.732  0.5398 -0.3828  0.7802
11493SOL    HW235058   9.393   0.668   2.762  0.3148  0.4938  0.1942
11494SOL     OW35059   6.102   4.828   8.341  0.2652  0.0065  0.2592
11494SOL    HW135060   6.058   4.863   8.263 -1.9852  1.1791  1.9701
11494SOL    HW235061   6.188   4.871   8.341  1.0732 -1.3673 -2.4680
11495SOL     OW35062   7.888   1.836   1.867  0.1287  0.3960 -0.0458
11495SOL    HW135063   7.905   1.902   1.934 -0.1698  1.2728 -0.8180
11495SOL    HW235064   7.801   1.801   1.889  0.4156  0.0449  0.5365
11496SOL     OW35065   0.435   7.119   9.441 -0.3447  0.2154 -0.1338
11496SOL    HW135066   0.460   7.160   9.523 -1.5802  1.3733 -0.3045
11496SOL    HW235067   0.444   7.025   9.457  1.5343  0.4776  0.5956
11497SOL     OW35068   1.049   9.195   5.577 -0.2031 -0.5059  0.3697
11497SOL    HW135069   1.005   9.203   5.661  2.2557 -0.8936  1.8138
11497SOL    HW235070   0.984   9.159   5.517 -2.4776  1.2091  1.6724
11498SOL     OW35071   3.834   6.915   0.008 -0.1539  0.1255 -0.4442
11498SOL    HW135072   3.784   6.858  -0.051  0.6633  0.1521 -1.1758
11498SOL    HW235073   3.767   6.963   0.056 -0.8644  0.6888 -1.9213
11499SOL     OW35074   7.610   1.548   7.478 -0.7046  0.4840  0.2113
11499SOL    HW135075   7.700   1.580   7.474 -0.7594  0.5157 -1.0034
11499SOL    HW235076   7.555   1.626   7.477 -0.7778  0.4271 -0.3495
11500SOL     OW35077   1.345   9.145   3.254 -0.0999 -0.4364  0.1867
11500SOL    HW135078   1.273   9.100   3.298 -0.2435 -0.6731 -0.2772
11500SOL    HW235079   1.303   9.213   3.201  0.1102  0.1854  0.8116
11501SOL     OW35080   2.000   3.382   3.183 -0.6250  0.3714 -0.0630
11501SOL    HW135081   2.094   3.398   3.177 -0.4877 -0.3162  0.1105
11501SOL    HW235082   1.983   3.374   3.277 -0.7866  0.1142 -0.1115
11502SOL     OW35083   9.529   8.334   7.161  0.4717 -0.1087 -0.0626
11502SOL    HW135084   9.470   8.322   7.087  3.2810  1.5578 -2.7910
11502SOL    HW235085   9.574   8.250   7.169 -1.7089 -1.2213  1.7128
11503SOL     OW35086   3.046   0.925   8.797 -0.2325 -0.1747  0.7444
11503SOL    HW135087   2.987   0.884   8.860  1.0736 -3.2323  0.1457
11503SOL    HW235088   3.126   0.873   8.801  0.3118  0.1531 -2.5980
11504SOL     OW35089   2.645   2.687   8.084  0.0205 -0.1964  0.3937
11504SOL    HW135090   2.665   2.746   8.157  1.7101  0.0330 -0.2135
11504SOL    HW235091   2.666   2.600   8.117  0.2248 -0.1583  0.3612
11505SOL     OW35092   2.624   7.685   3.976  0.2858 -0.1128 -0.0685
11505SOL    HW135093   2.658   7.679   4.065  0.9227 -1.3143 -0.3584
11505SOL    HW235094   2.665   7.611   3.930 -0.2227  0.3339 -1.2891
11506SOL     OW35095   7.482   5.125   3.683 -0.6750 -0.4396  0.7857
11506SOL    HW135096   7.561   5.109   3.734 -0.9382  0.7074  1.6064
11506SOL    HW235097   7.463   5.042   3.640  0.1881 -1.1197  1.6848
11507SOL     OW35098   6.223   5.757   2.503 -0.2577  0.2389 -0.0492
11507SOL    HW135099   6.147   5.775   2.448  0.1489 -0.2654 -0.7855
11507SOL    HW235100   6.270   5.840   2.507 -0.5228  0.3915 -0.0994
11508SOL     OW35101   9.934   3.703   1.279 -0.3209  0.0768 -0.5077
11508SOL    HW135102   9.945   3.649   1.200 -1.4115  0.6139 -1.0464
11508SOL    HW235103   9.845   3.736   1.273  0.5961  2.7564 -0.7322
11509SOL     OW35104   4.280   9.137   3.661 -0.1337  0.0913  0.7706
11509SOL    HW135105   4.263   9.205   3.596  0.3639 -0.4781  0.0339
11509SOL    HW235106   4.202   9.082   3.659  0.6443 -1.0515 -0.7831
11510SOL     OW35107   7.942   5.819   0.910  0.3736  0.1223  0.2075
11510SOL    HW135108   7.983   5.896   0.870 -3.8441  2.3896 -0.3624
11510SOL    HW235109   7.921   5.762   0.837  3.1258 -1.5485  0.5940
11511SOL     OW35110   5.582   0.170   6.360 -0.0372 -0.2945 -0.4806
11511SOL    HW135111   5.561   0.122   6.440  0.7338 -0.2717 -0.2548
11511SOL    HW235112   5.678   0.163   6.353  0.1847  1.8218 -0.0531
11512SOL     OW35113   1.776   8.113   0.502  0.4101  0.1202  0.5901
11512SOL    HW135114   1.811   8.033   0.462  0.2216  0.4597 -0.2927
11512SOL    HW235115   1.722   8.151   0.433 -0.3177  0.4853  1.3551
11513SOL     OW35116   3.434   4.989   1.820 -0.0105  1.0443 -0.5952
11513SOL    HW135117   3.388   4.928   1.763 -0.3466  1.5291 -0.8556
11513SOL    HW235118   3.477   4.934   1.885 -0.8059  0.5641 -0.4640
11514SOL     OW35119   4.878   9.563   7.495 -0.6463 -0.2351 -0.1223
11514SOL    HW135120   4.847   9.653   7.486  0.4584  0.0859 -0.9820
11514SOL    HW235121   4.923   9.545   7.412 -0.2421 -1.3344  0.3193
11515SOL     OW35122   7.638   3.246   1.692 -0.3585  0.2830 -0.4481
11515SOL    HW135123   7.607   3.264   1.604  0.1004 -0.8399 -0.8616
11515SOL    HW235124   7.603   3.318   1.746 -1.2855  0.5576 -1.3917
11516SOL     OW35125   9.071   6.194   0.419  0.1909 -0.6891  0.0751
11516SOL    HW135126   9.075   6.199   0.323  0.8868  0.1868  0.1400
11516SOL    HW235127   9.086   6.284   0.448 -1.2378 -0.7107  0.9884
11517SOL     OW35128   9.334   9.063   4.870  0.2955 -0.1953 -0.5824
11517SOL    HW135129   9.351   9.026   4.784  0.1663 -0.3189 -0.5549
11517SOL    HW235130   9.316   8.988   4.926 -1.8138 -0.0076 -0.9337
11518SOL     OW35131   7.316   0.201   2.382  0.4190 -0.4234  0.1907
11518SOL    HW135132   7.307   0.250   2.464 -0.0179  0.2194 -0.2311
11518SOL    HW235133   7.316   0.268   2.314 -0.1403 -1.0034 -0.3948
11519SOL     OW35134   2.405   7.783   7.738 -0.0301  0.3444  0.5823
11519SOL    HW135135   2.332   7.780   7.801 -0.8258 -0.7853 -0.3516
11519SOL    HW235136   2.447   7.867   7.755 -2.5231  1.7832  0.0950
11520SOL     OW35137   4.887   4.242   8.736 -0.9639  0.2304  0.1285
11520SOL    HW135138   4.981   4.245   8.755 -0.5711 -0.0462 -1.5967
11520SOL    HW235139   4.845   4.275   8.816  0.5527 -0.2477  1.1689
11521SOL     OW35140   1.142   4.671   5.064 -0.3324  0.1770  0.0515
11521SOL    HW135141   1.203   4.712   5.002 -0.9634  0.2477 -0.5360
11521SOL    HW235142   1.085   4.743   5.091 -0.1949  0.0981  0.5573
11522SOL     OW35143   4.865   6.445   3.708  0.1439  0.2502 -0.2202
11522SOL    HW135144   4.854   6.491   3.791  0.1163 -1.3439  0.7052
11522SOL    HW235145   4.777   6.443   3.670 -0.0962 -0.1464  0.3510
11523SOL     OW35146   6.129   7.790   8.883 -0.5020  0.1927 -0.0797
11523SOL    HW135147   6.092   7.706   8.910 -0.5476  0.4760  0.7746
11523SOL    HW235148   6.066   7.855   8.914 -0.0978  0.5818 -0.0593
11524SOL     OW35149   0.008   3.895   9.681  0.3305 -0.3007 -0.1278
11524SOL    HW135150   0.085   3.943   9.651 -0.6121  2.3345  1.2561
11524SOL    HW235151  -0.052   3.964   9.712 -1.2679 -2.3959  1.8172
11525SOL     OW35152   9.890   7.645   9.703  0.3565  0.0794 -0.3067
11525SOL    HW135153   9.876   7.565   9.753  1.8530 -0.6321 -0.9526
11525SOL    HW235154   9.853   7.626   9.617  0.0580  0.3537 -0.2381
11526SOL     OW35155   8.136   9.061   9.630  0.2498 -0.3317 -0.2233
11526SOL    HW135156   8.112   8.968   9.634 -0.5661 -0.0983  0.6362
11526SOL    HW235157   8.054   9.108   9.648  1.0868  0.5129  1.7184
11527SOL     OW35158   8.026   9.329   3.140 -0.0553 -0.6070  0.3897
11527SOL    HW135159   8.022   9.313   3.234 -3.2869  0.4767  0.5570
11527SOL    HW235160   8.066   9.415   3.132  2.8070 -1.8170  0.4806
11528SOL     OW35161   8.102   6.157   1.672  0.3814 -0.3541 -0.2014
11528SOL    HW135162   8.100   6.065   1.645 -1.1341 -0.1865 -0.7587
11528SOL    HW235163   8.074   6.156   1.763 -1.5325 -0.3146 -0.7476
11529SOL     OW35164   8.011   4.273   6.157 -0.0112  0.1889  0.3901
11529SOL    HW135165   7.996   4.326   6.235 -0.9693  2.0364 -0.9783
11529SOL    HW235166   8.002   4.183   6.187 -2.9704  0.8929  1.9409
11530SOL     OW35167   8.542   7.425   1.026  0.3963 -0.1873  0.1920
11530SOL    HW135168   8.566   7.350   0.972  0.5529 -0.9948  1.3429
11530SOL    HW235169   8.621   7.479   1.028  0.8660 -0.8627  0.7440
11531SOL     OW35170   1.192   0.667   0.486 -0.3489  0.1915 -0.3651
11531SOL    HW135171   1.179   0.761   0.498  0.5842  0.2031  0.6532
11531SOL    HW235172   1.287   0.657   0.477 -0.5272 -0.5155 -1.8889
11532SOL     OW35173   6.490   7.003   0.083 -0.0531 -0.1411  0.2336
11532SOL    HW135174   6.507   6.934   0.019 -0.4194 -0.0811  0.0670
11532SOL    HW235175   6.441   6.961   0.153 -1.4023  0.2038 -0.4671
11533SOL     OW35176   6.937   1.192   3.766  0.4322 -0.4471 -0.4946
11533SOL    HW135177   6.861   1.245   3.793  0.6601 -0.6743  0.6391
11533SOL    HW235178   6.907   1.147   3.687 -0.5503 -0.3770 -0.1794
11534SOL     OW35179   4.455   5.972   5.782  0.6953  0.0699  0.1459
11534SOL    HW135180   4.391   6.003   5.718 -0.1501 -1.2458  0.3262
11534SOL    HW235181   4.540   5.995   5.743  0.2022 -0.6393 -1.4465
11535SOL     OW35182   1.431   7.004   7.707 -0.2927  0.3800  0.0475
11535SOL    HW135183   1.480   7.080   7.740 -1.3884  1.2494 -0.2271
11535SOL    HW235184   1.376   6.978   7.781 -0.7568  0.5937 -0.2189
11536SOL     OW35185   1.552   6.545   6.295  0.1837  0.2181  0.1665
11536SOL    HW135186   1.610   6.521   6.223  0.3357 -0.4171  0.4886
11536SOL    HW235187   1.609   6.544   6.372 -0.1301  0.1780  0.3978
11537SOL     OW35188   8.731   0.840   3.433 -0.3050 -0.3166  0.1096
11537SOL    HW135189   8.730   0.935   3.427  1.8715 -0.1530  1.4791
11537SOL    HW235190   8.681   0.821   3.512  0.0184 -0.2463  0.3323
11538SOL     OW35191   0.016   4.424   4.135  0.2263 -0.4858  0.0068
11538SOL    HW135192   0.096   4.407   4.185 -0.2633 -0.9239  0.6549
11538SOL    HW235193   0.004   4.519   4.140  0.8369 -0.3846 -0.3070
11539SOL     OW35194   4.552   4.437   6.676  0.8252 -0.6914  0.0822
11539SOL    HW135195   4.595   4.439   6.591  1.0597  2.5241  0.1828
11539SOL    HW235196   4.471   4.487   6.664  1.0348  0.1595  1.7982
11540SOL     OW35197   7.241   3.385   2.880  0.2543 -0.0302  0.0199
11540SOL    HW135198   7.185   3.321   2.923  1.3690  0.1846  1.8916
11540SOL    HW235199   7.325   3.377   2.923  1.9239 -0.7017 -3.0466
11541SOL     OW35200   4.972   6.485   7.978  0.2084 -0.4365 -0.1772
11541SOL    HW135201   4.893   6.442   7.946  0.1295 -1.2203  1.0051
11541SOL    HW235202   5.018   6.418   8.028  1.2110  0.2417 -0.1458
11542SOL     OW35203   3.805   3.874   2.749 -0.4740  0.0295 -0.1504
11542SOL    HW135204   3.855   3.909   2.823  0.5972 -1.0206 -0.3602
11542SOL    HW235205   3.871   3.841   2.688 -1.3919 -2.0229 -0.1170
11543SOL     OW35206   5.704   7.388   4.621 -0.3168 -0.3592 -0.0799
11543SOL    HW135207   5.618   7.346   4.621 -0.8111  0.6185 -0.2147
11543SOL    HW235208   5.704   7.440   4.541  1.2602 -2.0207 -1.2311
11544SOL     OW35209   4.309   9.286   3.418  0.3280 -0.3257 -0.1769
11544SOL    HW135210   4.280   9.377   3.406 -0.3692 -0.4707  0.3429
11544SOL    HW235211   4.401   9.287   3.392  1.0509  1.0579  2.0994
11545SOL     OW35212   6.834   3.219   9.786 -0.5288 -0.1591 -0.2466
11545SOL    HW135213   6.773   3.248   9.854 -0.6836 -0.1695 -0.3803
11545SOL    HW235214   6.906   3.179   9.834 -0.4958  0.0991 -0.0755
11546SOL     OW35215   5.369   6.324   9.491 -0.4123 -0.5166  0.0922
11546SOL    HW135216   5.384   6.242   9.445 -0.9199  0.3587 -1.7128
11546SOL    HW235217   5.276   6.322   9.514 -0.5570 -0.2313 -0.4438
11547SOL     OW35218   7.429   7.877   3.137  0.2301 -0.6019 -0.1174
11547SOL    HW135219   7.519   7.895   3.110 -0.0452  1.3513  0.1483
11547SOL    HW235220   7.384   7.854   3.055  0.8911 -1.3422 -0.2889
11548SOL     OW35221   5.452   0.556   0.070 -0.0629  0.2004 -0.3342
11548SOL    HW135222   5.528   0.512   0.031 -1.3697  0.2436 -3.1603
11548SOL    HW235223   5.443   0.637   0.020 -1.0458  0.9917  1.0488
11549SOL     OW35224   5.464   8.847   2.485  0.1079 -0.5865  0.0998
11549SOL    HW135225   5.439   8.765   2.442  0.5323 -0.3751 -0.5628
11549SOL    HW235226   5.546   8.873   2.442  0.9650 -0.7575  1.5453
11550SOL     OW35227   5.521   6.773   0.431  0.2329 -0.1322  0.4518
11550SOL    HW135228   5.530   6.783   0.525 -0.8608 -0.1650  0.5747
11550SOL    HW235229   5.610   6.779   0.397  0.8049 -1.5095  1.6146
11551SOL     OW35230   0.389   8.423   8.081 -0.5245  0.4792  0.3773
11551SOL    HW135231   0.325   8.400   8.014 -0.1210  0.0283  0.1469
11551SOL    HW235232   0.338   8.427   8.162 -1.2081  2.0036 -0.0872
11552SOL     OW35233   0.039   0.344   6.512 -0.6109  0.1378 -0.1537
11552SOL    HW135234  -0.017   0.274   6.479  0.9885 -1.5869  0.6719
11552SOL    HW235235   0.082   0.308   6.589 -1.4044  2.8104  1.6910
11553SOL     OW35236   7.741   8.027   8.425 -0.1174 -0.0966 -0.7906
11553SOL    HW135237   7.818   8.078   8.401 -0.2993  0.2421 -0.6732
11553SOL    HW235238   7.668   8.087   8.411 -0.2631 -0.0365  0.1770
11554SOL     OW35239   8.656   5.671   4.084 -0.0650 -0.4652 -0.2873
11554SOL    HW135240   8.744   5.633   4.091  0.1737  0.0448 -0.4863
11554SOL    HW235241   8.667   5.747   4.028 -0.6607 -0.4625 -0.4083
11555SOL     OW35242   3.834   7.487   5.905 -0.3506 -0.2349 -0.4559
11555SOL    HW135243   3.759   7.490   5.964  0.0559 -0.1482  0.0692
11555SOL    HW235244   3.878   7.571   5.918 -0.6038  0.0511 -1.3573
11556SOL     OW35245   3.134   4.719   0.838  0.5665 -0.2591  0.1492
11556SOL    HW135246   3.106   4.670   0.761 -0.3500  0.6494 -0.1212
11556SOL    HW235247   3.052   4.743   0.882  1.0646 -1.2031  1.7062
11557SOL     OW35248   2.593   3.635   7.796 -0.2935 -0.1660 -0.1611
11557SOL    HW135249   2.529   3.564   7.798 -0.6972  0.1516  2.6573
11557SOL    HW235250   2.670   3.598   7.839 -0.7377  1.2148  1.9482
11558SOL     OW35251   8.946   3.749   4.630  0.7217  0.0016 -0.3057
11558SOL    HW135252   8.938   3.672   4.574 -2.8790  0.3832 -0.5660
11558SOL    HW235253   8.935   3.823   4.570 -0.3101  0.5142  0.4969
11559SOL     OW35254   0.410   6.248   1.901  0.0180  0.3597 -0.4011
11559SOL    HW135255   0.331   6.234   1.849  0.0368 -1.0591 -0.0856
11559SOL    HW235256   0.481   6.249   1.838  0.1176 -2.0500 -0.3929
11560SOL     OW35257   0.884   9.029   7.157  0.1102  0.0862 -0.2533
11560SOL    HW135258   0.814   9.040   7.092 -0.0148 -2.9971 -0.7609
11560SOL    HW235259   0.941   9.105   7.142 -1.8939  1.4998 -1.3366
11561SOL     OW35260   4.898   7.955   1.131  0.2421 -0.0575 -0.6236
11561SOL    HW135261   4.912   7.861   1.142 -1.0892 -0.0619  1.4819
11561SOL    HW235262   4.986   7.994   1.137  0.6327 -1.0359  0.1713
11562SOL     OW35263   9.215   3.943   1.437 -0.3595 -0.3223 -0.1312
11562SOL    HW135264   9.207   3.919   1.529 -0.0645 -1.3370 -0.3552
11562SOL    HW235265   9.297   3.902   1.409 -0.2232  0.3427 -0.7393
11563SOL     OW35266   7.607   8.726   9.307  0.2492  0.4150 -0.2680
11563SOL    HW135267   7.556   8.771   9.240 -2.0142  0.1051  1.1330
11563SOL    HW235268   7.567   8.640   9.315 -0.3551  0.8432  2.2610
11564SOL     OW35269   9.370   2.465   7.172  0.4137 -0.5215  0.6249
11564SOL    HW135270   9.353   2.419   7.090  0.2417  0.4861  0.0717
11564SOL    HW235271   9.458   2.437   7.197  0.1315 -1.5006  0.5572
11565SOL     OW35272   2.488   2.840   4.378 -0.3170  0.4183 -1.1037
11565SOL    HW135273   2.430   2.865   4.450 -0.3425  0.8908 -1.2790
11565SOL    HW235274   2.435   2.851   4.299  0.3323  1.9833 -1.3684
11566SOL     OW35275   7.113   6.851   2.420 -0.2931  0.6150  0.2941
11566SOL    HW135276   7.099   6.858   2.326 -1.4031 -0.3021  0.3582
11566SOL    HW235277   7.030   6.817   2.454 -0.3753  2.1855  1.7887
11567SOL     OW35278   5.880   4.140   1.365  0.2758  0.6997  0.0995
11567SOL    HW135279   5.969   4.122   1.337  0.2256  1.5994 -0.6557
11567SOL    HW235280   5.877   4.235   1.378 -1.1056  0.9932 -1.8901
11568SOL     OW35281   0.925   2.046   9.683 -0.2335 -1.3042  0.1993
11568SOL    HW135282   0.869   1.972   9.663  1.9929 -2.9838 -0.2012
11568SOL    HW235283   0.973   2.064   9.602 -2.4189  2.3242 -0.5555
11569SOL     OW35284   0.385   2.143   0.035 -0.3283  0.0357 -0.4471
11569SOL    HW135285   0.346   2.068   0.081 -2.1375  0.5806 -0.9873
11569SOL    HW235286   0.410   2.204   0.104  3.2413 -1.8973  0.1660
11570SOL     OW35287   6.352   4.402   8.562 -0.1904 -0.5873 -0.1407
11570SOL    HW135288   6.309   4.359   8.637 -2.8740 -0.5622 -1.5537
11570SOL    HW235289   6.284   4.456   8.523  1.6063  0.7012 -1.6615
11571SOL     OW35290   8.142   1.521   4.517 -0.1674  0.1176  0.7249
11571SOL    HW135291   8.175   1.502   4.430  1.6723 -0.9991  1.5968
11571SOL    HW235292   8.075   1.589   4.504  0.3159  0.2312 -1.4782
11572SOL     OW35293   8.664   8.035   7.267 -0.5784 -0.2527  0.6523
11572SOL    HW135294   8.752   8.037   7.305 -0.2826 -0.0265 -0.0360
11572SOL    HW235295   8.614   7.979   7.327  0.2619 -1.1434  0.5536
11573SOL     OW35296   5.238   7.458   2.256 -0.0343 -0.3060  0.2973
11573SOL    HW135297   5.216   7.533   2.312 -0.8778 -0.5310  0.2786
11573SOL    HW235298   5.174   7.461   2.186  0.2689 -0.7392 -0.0028
11574SOL     OW35299   0.148   1.348   2.135  0.2754 -0.6344 -0.3243
11574SOL    HW135300   0.177   1.389   2.053 -1.3219 -0.1588 -0.7049
11574SOL    HW235301   0.076   1.404   2.164 -0.7908 -2.1602  0.1013
11575SOL     OW35302   7.905   4.739   1.797  0.3934 -0.4997 -0.3023
11575SOL    HW135303   7.818   4.736   1.756  0.7410 -0.3469 -1.0706
11575SOL    HW235304   7.920   4.649   1.827  0.6517 -0.9264 -1.6472
11576SOL     OW35305   8.351   5.971   3.120  0.2041  0.1733 -0.0365
11576SOL    HW135306   8.270   5.919   3.111  0.5073 -0.1897 -0.7394
11576SOL    HW235307   8.418   5.919   3.076  0.5920  1.0042 -0.4443
11577SOL     OW35308   6.875   1.868   1.547 -0.1096 -0.5667 -0.5567
11577SOL    HW135309   6.831   1.950   1.570  0.2366 -0.2218 -1.1093
11577SOL    HW235310   6.833   1.840   1.466  0.8457 -0.0994 -1.2315
11578SOL     OW35311   6.979   3.841   5.432 -0.2994  0.2767 -0.6991
11578SOL    HW135312   7.048   3.777   5.413  1.4161  1.5680  0.8819
11578SOL    HW235313   6.923   3.797   5.496  1.1814  0.4801  0.7989
11579SOL     OW35314   5.231   9.506   0.167  0.1932 -0.1466  0.2933
11579SOL    HW135315   5.242   9.600   0.155  1.0575 -0.1184  1.2364
11579SOL    HW235316   5.219   9.472   0.078 -2.5776  1.1214  0.0676
11580SOL     OW35317   6.318   2.469   7.829  0.9195 -0.4394  0.4262
11580SOL    HW135318   6.380   2.491   7.760  0.5304  2.3698  0.8420
11580SOL    HW235319   6.370   2.467   7.909  0.8411 -0.3372  0.4805
11581SOL     OW35320   3.602   6.730   5.174 -0.2589 -0.1557 -0.5713
11581SOL    HW135321   3.600   6.716   5.079  1.9641  0.4885 -0.7526
11581SOL    HW235322   3.692   6.757   5.193 -0.9090  0.7146  1.5885
11582SOL     OW35323   6.237   8.765   7.758 -0.1699  0.2807 -0.3658
11582SOL    HW135324   6.286   8.693   7.799 -0.7700  0.2540  0.3170
11582SOL    HW235325   6.198   8.725   7.680  0.4988  0.1850 -0.6638
11583SOL     OW35326   9.723   5.821   1.672  0.8714 -0.0986 -0.5869
11583SOL    HW135327   9.753   5.911   1.666 -0.7778  0.4670 -0.8075
11583SOL    HW235328   9.628   5.826   1.662  0.5495 -1.6844  1.1195
11584SOL     OW35329   2.486   4.138   4.785 -0.2867  0.1007  0.1962
11584SOL    HW135330   2.535   4.118   4.864 -0.3515  2.5940  0.9355
11584SOL    HW235331   2.394   4.128   4.810 -0.2835 -1.2082 -0.2221
11585SOL     OW35332   0.015   0.353   4.380  0.1890  0.4953 -0.0347
11585SOL    HW135333   0.044   0.411   4.450  0.1061 -0.2216  0.6100
11585SOL    HW235334   0.001   0.268   4.423 -0.2548  0.1446 -0.8402
11586SOL     OW35335   4.720   1.667   8.664 -0.9512  0.2799 -0.1528
11586SOL    HW135336   4.792   1.685   8.603 -2.1612  0.6120 -1.5648
11586SOL    HW235337   4.664   1.606   8.616 -0.4354 -1.8800  1.8594
11587SOL     OW35338   4.748   7.975   2.542 -0.1404  0.1879 -0.6323
11587SOL    HW135339   4.692   8.045   2.509 -1.6443  0.1503  1.6683
11587SOL    HW235340   4.811   8.020   2.600 -0.5725 -0.2352  0.1843
11588SOL     OW35341   3.864   0.046   5.712  0.5692  0.3084  0.1603
11588SOL    HW135342   3.849   0.019   5.621  0.7852 -0.2329  0.2794
11588SOL    HW235343   3.929   0.116   5.705  0.7793  0.0949 -0.0922
11589SOL     OW35344   4.786   1.959   4.171  0.5138  0.0704 -0.1736
11589SOL    HW135345   4.879   1.959   4.191  0.4822 -0.4728  0.0094
11589SOL    HW235346   4.751   1.883   4.218  0.3503 -0.9477 -1.8341
11590SOL     OW35347   9.660   6.206   0.850  0.1020  0.0749  0.0888
11590SOL    HW135348   9.710   6.254   0.916 -0.0913 -1.0761  1.1217
11590SOL    HW235349   9.571   6.239   0.859  0.1986  0.3713 -0.0377
11591SOL     OW35350   9.751   0.010   9.122  0.2232  0.4106  0.2723
11591SOL    HW135351   9.670   0.058   9.142 -0.8522 -1.4127  0.5554
11591SOL    HW235352   9.819   0.058   9.169 -0.9536  1.0630  1.3994
11592SOL     OW35353   9.634   0.231   9.458  0.3789  0.8124  0.6562
11592SOL    HW135354   9.684   0.255   9.379  0.2579  0.4576  0.4726
11592SOL    HW235355   9.657   0.299   9.522  2.0967 -0.0308  1.0012
11593SOL     OW35356   4.898   9.393   8.654 -0.6093  0.5378 -0.0837
11593SOL    HW135357   4.804   9.397   8.673 -0.7054  0.6847 -0.5818
11593SOL    HW235358   4.905   9.335   8.578 -0.3169  0.7140 -0.1933
11594SOL     OW35359   0.703   4.899   5.786  0.1896 -0.3349  0.4557
11594SOL    HW135360   0.680   4.835   5.854 -0.5961 -1.1737 -0.5706
11594SOL    HW235361   0.666   4.863   5.706 -0.9387  1.7781 -0.0387
11595SOL     OW35362   1.634   2.321   0.299 -0.3784  0.1451  0.5502
11595SOL    HW135363   1.540   2.312   0.315 -0.2907  0.8713  1.5765
11595SOL    HW235364   1.645   2.295   0.208 -1.3083 -1.7484  0.9245
11596SOL     OW35365   9.763   3.967   3.058 -0.1286 -0.5256  0.4640
11596SOL    HW135366   9.730   3.960   2.969  0.5683  0.4361  0.1170
11596SOL    HW235367   9.788   4.059   3.068  1.9900 -1.0825  0.8474
11597SOL     OW35368   8.483   1.322   2.457 -0.0080 -0.2749  0.4574
11597SOL    HW135369   8.570   1.335   2.495 -0.4703 -0.1953  1.5197
11597SOL    HW235370   8.424   1.320   2.532 -0.7252 -2.2065 -0.1125
11598SOL     OW35371   0.023   2.205   0.325 -0.2391 -0.6452 -0.0036
11598SOL    HW135372  -0.072   2.211   0.324 -0.4527 -2.8231 -1.8557
11598SOL    HW235373   0.053   2.293   0.302 -1.6690  0.5795  2.4720
11599SOL     OW35374   0.804   8.597   3.812 -0.0076  0.0256  0.1406
11599SOL    HW135375   0.746   8.665   3.846 -1.8585  0.2764 -3.1040
11599SOL    HW235376   0.864   8.645   3.754  0.8753 -0.7405  0.4022
11600SOL     OW35377   1.231   8.863   1.847  0.1514  0.5444  0.2799
11600SOL    HW135378   1.316   8.826   1.827 -0.3365 -0.4717  0.0348
11600SOL    HW235379   1.203   8.817   1.927 -1.2769 -1.0516 -1.0540
11601SOL     OW35380   4.057   4.386   6.591 -0.1021 -0.2879 -0.4020
11601SOL    HW135381   4.013   4.315   6.543  0.2496 -0.8774  0.1295
11601SOL    HW235382   4.132   4.344   6.632  1.3165  0.8185 -1.7552
11602SOL     OW35383   7.754   5.818   9.484 -0.0806  0.4578  0.3170
11602SOL    HW135384   7.787   5.852   9.401  1.8964  0.5233  1.0802
11602SOL    HW235385   7.758   5.893   9.544  1.9625 -0.4241  1.3683
11603SOL     OW35386   6.424   1.497   7.220  0.3668  0.4744 -0.1212
11603SOL    HW135387   6.363   1.458   7.157  0.6697 -0.2881  0.0430
11603SOL    HW235388   6.373   1.563   7.266 -1.0061 -1.6159  1.5219
11604SOL     OW35389   1.771   8.458   2.835  0.1566  0.3898  0.2572
11604SOL    HW135390   1.679   8.454   2.863 -0.1205 -0.5001 -0.7105
11604SOL    HW235391   1.768   8.435   2.742  1.5996 -1.9049  0.7117
11605SOL     OW35392   4.894   5.088   4.996 -0.3123 -0.0311  0.2853
11605SOL    HW135393   4.972   5.103   4.942 -0.4669 -1.1822 -0.2841
11605SOL    HW235394   4.921   5.020   5.058 -1.3064 -1.6341 -0.9635
11606SOL     OW35395   3.592   9.858   6.348  0.4320  0.0217  0.1923
11606SOL    HW135396   3.502   9.844   6.377  1.0454 -1.6290  1.4169
11606SOL    HW235397   3.594   9.950   6.319 -2.0272 -0.3544 -1.4349
11607SOL     OW35398   0.224   3.744   8.216 -0.2475 -0.5053 -0.8039
11607SOL    HW135399   0.227   3.834   8.184  0.2847 -0.4785 -0.6998
11607SOL    HW235400   0.132   3.720   8.213 -0.2036 -0.5415 -2.4600
11608SOL     OW35401   1.302   6.499   1.605 -0.1782 -0.1671 -0.4856
11608SOL    HW135402   1.227   6.440   1.606 -2.0884  2.0099 -2.4598
11608SOL    HW235403   1.376   6.444   1.579 -0.8349 -2.5200  2.1269
11609SOL     OW35404   0.494   1.704   4.710  0.0294 -0.3746 -0.0108
11609SOL    HW135405   0.431   1.660   4.653  1.5611 -1.3778 -1.0263
11609SOL    HW235406   0.576   1.703   4.659  0.9067  0.7094  1.3206
11610SOL     OW35407   3.275   5.456   1.975 -0.4060 -0.2835  0.0198
11610SOL    HW135408   3.227   5.454   2.058  0.6887 -1.0988  0.6543
11610SOL    HW235409   3.272   5.365   1.944  1.7849 -0.6490  0.7280
11611SOL     OW35410   0.305   7.536   2.891 -0.0249  0.7183 -0.3657
11611SOL    HW135411   0.342   7.574   2.812  3.3261 -4.1701 -1.6018
11611SOL    HW235412   0.349   7.580   2.963  2.1205  0.6735 -1.5871
11612SOL     OW35413   8.587   0.333   1.937  0.3447  0.1238  0.4191
11612SOL    HW135414   8.668   0.287   1.912  0.3812 -0.4160  1.4623
11612SOL    HW235415   8.519   0.290   1.885  0.6207  0.0974  0.0688
11613SOL     OW35416   0.563   2.227   9.631  0.5615 -0.0894  0.1828
11613SOL    HW135417   0.476   2.265   9.620  0.8119  0.3488 -0.3550
11613SOL    HW235418   0.550   2.153   9.690 -0.5329 -1.2435 -1.4094
11614SOL     OW35419   2.955   8.121   1.941  0.1176 -0.0206  0.3358
11614SOL    HW135420   3.021   8.053   1.930 -1.4244 -1.6956  0.9207
11614SOL    HW235421   2.990   8.179   2.009  0.6846 -1.2778  1.1412
11615SOL     OW35422   5.619   4.150   9.145 -0.0431 -0.3409  0.4755
11615SOL    HW135423   5.659   4.225   9.102  0.6413 -1.3116 -0.6637
11615SOL    HW235424   5.682   4.123   9.212 -0.0070 -0.2662  0.4712
11616SOL     OW35425   6.940   7.541   7.949 -0.1673 -0.1443  0.2120
11616SOL    HW135426   6.855   7.535   7.990  0.6643  1.9787  2.5149
11616SOL    HW235427   6.967   7.451   7.933 -1.6189 -0.9583  2.1036
11617SOL     OW35428   8.034   1.772   4.531 -0.2776  0.4142  0.6639
11617SOL    HW135429   7.998   1.859   4.547  1.7057  1.6762 -1.2299
11617SOL    HW235430   8.129   1.784   4.532  0.0593 -1.2404 -1.8171
11618SOL     OW35431   7.753   2.588   6.150 -0.1013  0.3313 -0.0879
11618SOL    HW135432   7.819   2.613   6.215  0.2180  1.6197 -0.8828
11618SOL    HW235433   7.786   2.624   6.068 -2.0130  1.3980 -0.4282
11619SOL     OW35434   3.936   6.701   1.167 -0.1198 -0.3803 -0.2307
11619SOL    HW135435   3.849   6.687   1.205 -0.3249  1.9758  0.3515
11619SOL    HW235436   3.997   6.676   1.236 -0.3001 -1.7002 -0.5159
11620SOL     OW35437   2.022   7.831   0.664 -0.5770 -0.0115 -0.0371
11620SOL    HW135438   2.105   7.852   0.623 -0.5127  0.9496  0.5488
11620SOL    HW235439   2.045   7.806   0.754 -0.9193  0.4106  0.1759
11621SOL     OW35440   1.513   0.850   6.779  0.4751 -0.4898  0.1505
11621SOL    HW135441   1.525   0.878   6.870  2.1337 -2.7681  0.7295
11621SOL    HW235442   1.457   0.773   6.785 -0.3731  0.0137 -0.9242
11622SOL     OW35443   7.182   7.341   5.569 -0.2593 -0.1237 -0.5048
11622SOL    HW135444   7.233   7.345   5.488 -0.3250 -1.0257 -0.5949
11622SOL    HW235445   7.092   7.325   5.540 -0.7672  2.0839 -0.3897
11623SOL     OW35446   5.129   5.409   6.083 -0.0098  0.1049 -0.3339
11623SOL    HW135447   5.071   5.456   6.024 -1.2300 -1.0568 -0.1053
11623SOL    HW235448   5.142   5.469   6.157 -0.4982  0.5756 -0.6267
11624SOL     OW35449   4.964   9.440   4.955  0.4854  0.3737 -0.0902
11624SOL    HW135450   4.949   9.489   5.036  0.6884  0.5245 -0.1438
11624SOL    HW235451   5.028   9.492   4.907  1.6901 -0.5961  0.4178
11625SOL     OW35452   1.137   1.066   8.031 -0.5389 -0.0593  0.7774
11625SOL    HW135453   1.156   1.041   7.941  0.7560 -0.8235  1.2452
11625SOL    HW235454   1.098   1.153   8.024 -1.7569 -0.6697 -0.6062
11626SOL     OW35455   2.016   0.488   6.016 -0.1072 -0.3368  0.5788
11626SOL    HW135456   2.056   0.463   5.933 -1.1943  0.3015 -0.1635
11626SOL    HW235457   2.021   0.584   6.018 -1.2715 -0.2526  0.5987
11627SOL     OW35458   6.247   4.705   2.006  0.1955 -0.1435  0.2917
11627SOL    HW135459   6.311   4.775   1.995 -1.3635  1.8255  2.6488
11627SOL    HW235460   6.271   4.662   2.088  0.0813 -1.2245 -0.2228
11628SOL     OW35461   9.252   0.339   8.602 -0.5379  0.1667 -0.7783
11628SOL    HW135462   9.184   0.293   8.651 -0.1747  0.9229  0.4782
11628SOL    HW235463   9.206   0.413   8.561 -0.4254  1.0119  0.5330
11629SOL     OW35464   3.174   5.098   4.041  0.8547  0.3099  0.0255
11629SOL    HW135465   3.080   5.112   4.024 -0.0168 -2.2472  1.9980
11629SOL    HW235466   3.189   5.007   4.012  2.1065 -0.1149  1.8739
11630SOL     OW35467   7.257   2.739   5.183 -0.2652  0.0863 -0.5071
11630SOL    HW135468   7.163   2.742   5.204 -0.4277  2.5957 -1.2492
11630SOL    HW235469   7.300   2.728   5.268 -1.1931 -0.1440 -0.0504
11631SOL     OW35470   4.655   8.699   5.818  0.1215 -0.1586 -0.4037
11631SOL    HW135471   4.665   8.788   5.785 -1.8323 -0.2565 -1.4092
11631SOL    HW235472   4.688   8.702   5.908 -0.9907  1.8743 -0.0164
11632SOL     OW35473   2.249   7.853   1.475 -0.1074 -0.0352 -0.4743
11632SOL    HW135474   2.293   7.804   1.405 -0.8520  0.4284 -1.2973
11632SOL    HW235475   2.223   7.935   1.434  0.6235  0.8259  0.7376
11633SOL     OW35476   4.724   7.409   8.587  0.2646 -0.1780  0.6807
11633SOL    HW135477   4.648   7.351   8.593  0.4641 -0.4764  0.3433
11633SOL    HW235478   4.743   7.413   8.493 -0.3254  1.1835  0.6009
11634SOL     OW35479   6.090   6.171   2.334 -0.2503 -0.3374 -0.2110
11634SOL    HW135480   6.146   6.111   2.383 -0.1059 -0.5028 -0.5688
11634SOL    HW235481   6.134   6.256   2.340  0.3540 -0.5843 -0.9762
11635SOL     OW35482   3.596   0.345   9.507  0.3306  0.2261  0.1541
11635SOL    HW135483   3.525   0.388   9.554 -0.1551  1.8828 -1.9252
11635SOL    HW235484   3.676   0.386   9.542  0.2667 -0.9452  1.7989
11636SOL     OW35485   6.392   2.469   5.449  0.7487 -0.1677  0.1187
11636SOL    HW135486   6.302   2.494   5.469 -0.0279 -0.8468 -2.2192
11636SOL    HW235487   6.401   2.380   5.484  0.4267 -0.2040  0.1082
11637SOL     OW35488   8.885   9.569   7.002 -0.2769 -0.2999 -0.2633
11637SOL    HW135489   8.887   9.629   7.077  0.4984 -0.4267 -0.1704
11637SOL    HW235490   8.878   9.626   6.926 -0.9639 -0.1623 -0.0970
11638SOL     OW35491   9.343   6.543   5.864 -0.4506  0.3218  0.6903
11638SOL    HW135492   9.328   6.621   5.918 -1.4049  2.1933 -2.0465
11638SOL    HW235493   9.255   6.516   5.837  0.0203 -0.3527 -0.1898
11639SOL     OW35494   3.492   5.781   3.721  0.2059  0.2458  0.5895
11639SOL    HW135495   3.531   5.694   3.717  1.2117  0.6946  0.3086
11639SOL    HW235496   3.503   5.809   3.812 -0.4494 -0.0522  0.7705
11640SOL     OW35497   7.375   8.916   7.999 -0.4359  0.2357  0.5370
11640SOL    HW135498   7.329   8.843   7.956 -1.6481  1.0260  0.4439
11640SOL    HW235499   7.331   8.994   7.967  1.2571  1.0681  0.1537
11641SOL     OW35500   4.077   0.427   2.703  0.0747  0.3050 -0.0508
11641SOL    HW135501   4.131   0.496   2.741 -0.0464  1.6632 -2.1677
11641SOL    HW235502   4.137   0.376   2.648 -0.2579  0.1359 -0.2655
11642SOL     OW35503   9.400   4.510   9.248  0.1231  0.3590 -0.1029
11642SOL    HW135504   9.400   4.576   9.318  0.0874  0.1328  0.1113
11642SOL    HW235505   9.479   4.530   9.197  0.0239  0.6692 -0.1364
11643SOL     OW35506   5.150   4.083   9.022 -0.2802 -0.2657 -0.0175
11643SOL    HW135507   5.246   4.080   9.024 -0.2307  1.2507  1.1226
11643SOL    HW235508   5.130   4.134   8.943 -0.2255 -1.5424 -0.9014
11644SOL     OW35509   5.171   8.782   9.962  0.4679  0.6567  0.0844
11644SOL    HW135510   5.238   8.779  10.030 -1.4602  0.4398  2.0908
11644SOL    HW235511   5.156   8.690   9.939  1.5846  0.7621 -1.1904
11645SOL     OW35512   0.629   0.242   3.194  0.3707  0.4028 -0.3068
11645SOL    HW135513   0.691   0.300   3.149  1.4632 -0.1276  0.4799
11645SOL    HW235514   0.648   0.155   3.159  0.1470  0.2165  0.0290
11646SOL     OW35515   3.723   4.676   8.268 -0.1175 -0.4164  0.2323
11646SOL    HW135516   3.689   4.660   8.356  1.0983 -2.1885  0.4332
11646SOL    HW235517   3.817   4.689   8.281  0.0271 -0.3976 -0.7724
11647SOL     OW35518   6.204   8.984   2.248  0.2023 -0.0402  0.6321
11647SOL    HW135519   6.222   8.929   2.172 -0.1311  0.4462  0.2005
11647SOL    HW235520   6.214   9.074   2.216  0.2083  0.1656  1.2017
11648SOL     OW35521   3.216   6.930   9.431  0.1595 -0.4432  0.7396
11648SOL    HW135522   3.207   7.021   9.401  1.1295 -0.8124 -0.7622
11648SOL    HW235523   3.138   6.915   9.484 -0.8074  0.8001 -0.2643
11649SOL     OW35524   5.810   6.347   4.184 -0.2259  0.1276  0.2997
11649SOL    HW135525   5.841   6.414   4.245  1.2349 -0.3698  0.1399
11649SOL    HW235526   5.819   6.265   4.233 -0.1350 -0.1500 -0.1758
11650SOL     OW35527   9.967   1.643   9.583 -0.3263  0.1633  0.0691
11650SOL    HW135528   9.968   1.738   9.572  0.8887  0.0985 -0.5504
11650SOL    HW235529   9.956   1.629   9.677  0.9003  0.9493  0.3446
11651SOL     OW35530   3.375   8.474   9.278 -0.1110  0.3193 -0.6233
11651SOL    HW135531   3.396   8.482   9.371 -1.6805 -1.2425 -0.0737
11651SOL    HW235532   3.286   8.510   9.270  0.2665  1.0620 -1.6542
11652SOL     OW35533   1.370   9.850   8.752  0.6409 -0.3594 -0.3128
11652SOL    HW135534   1.410   9.892   8.829  0.5132  0.1381 -0.5150
11652SOL    HW235535   1.346   9.762   8.783  0.1349  0.0074  0.3615
11653SOL     OW35536   8.962   6.301   7.202  0.0602  0.2658 -0.5607
11653SOL    HW135537   8.870   6.278   7.214 -0.5011  1.2873 -2.4723
11653SOL    HW235538   9.010   6.220   7.220 -1.3623 -0.7880 -1.3205
11654SOL     OW35539   4.027   5.010   2.969 -0.1544  0.3786  0.3247
11654SOL    HW135540   3.985   5.096   2.961 -1.1781 -0.0944  0.4205
11654SOL    HW235541   3.954   4.950   2.984  0.7348 -0.0482  3.8878
11655SOL     OW35542   2.706   7.614   3.542 -0.4678 -0.0579  0.1265
11655SOL    HW135543   2.692   7.601   3.448  1.6306 -1.8842 -0.0243
11655SOL    HW235544   2.773   7.682   3.548  1.6147 -2.0010  0.0833
11656SOL     OW35545   4.028   9.030   3.697  0.1970 -0.4910 -0.2093
11656SOL    HW135546   4.022   8.956   3.756  1.1852 -0.1653  0.3202
11656SOL    HW235547   3.959   9.015   3.632  0.0564 -1.5947  0.1826
11657SOL     OW35548   7.314   1.265   1.879 -0.3359  0.4696 -0.1134
11657SOL    HW135549   7.387   1.230   1.827  0.2347  1.9219 -0.3373
11657SOL    HW235550   7.252   1.193   1.885  0.2260 -0.1776 -1.6244
11658SOL     OW35551   4.657   7.178   4.129 -0.3648 -0.2911  0.1789
11658SOL    HW135552   4.644   7.118   4.202 -1.1201 -0.2659  0.0752
11658SOL    HW235553   4.611   7.137   4.056 -0.7147  0.3051  0.0536
11659SOL     OW35554   2.582   0.487   2.664 -0.1162 -0.1125 -0.2474
11659SOL    HW135555   2.511   0.497   2.601  0.4186  0.1883 -0.8190
11659SOL    HW235556   2.539   0.471   2.748 -0.8282 -0.8676 -0.7543
11660SOL     OW35557   5.763   0.786   6.563  0.5042 -0.3956  0.5739
11660SOL    HW135558   5.747   0.848   6.635 -0.2401 -0.7722  0.7448
11660SOL    HW235559   5.676   0.763   6.532  0.7866 -1.1023  0.2917
11661SOL     OW35560   8.223   1.640   7.103 -0.1311 -0.1336  0.0453
11661SOL    HW135561   8.178   1.651   7.186 -0.6105 -0.9344 -0.0989
11661SOL    HW235562   8.316   1.634   7.126 -0.2554 -0.2667  0.5074
11662SOL     OW35563   1.416   9.498   0.873 -0.3372  0.2327 -0.6930
11662SOL    HW135564   1.374   9.412   0.879  1.7414 -0.7555  1.2617
11662SOL    HW235565   1.354   9.558   0.916  0.0684 -1.1893  2.1332
11663SOL     OW35566   0.437   1.678   2.333 -0.5839  0.2078 -0.3109
11663SOL    HW135567   0.465   1.635   2.252 -0.4860 -1.9066  0.7678
11663SOL    HW235568   0.348   1.707   2.316 -0.2591  0.5767 -1.4523
11664SOL     OW35569   6.105   5.143   7.406 -0.2768  0.5512 -0.1976
11664SOL    HW135570   6.130   5.136   7.314 -0.9601 -0.8308 -0.3018
11664SOL    HW235571   6.186   5.127   7.455  0.0215  0.9725 -0.5461
11665SOL     OW35572   6.606   4.804   9.892 -0.1175 -0.3010 -0.4658
11665SOL    HW135573   6.523   4.774   9.855 -1.5068  4.3010 -1.6798
11665SOL    HW235574   6.586   4.824   9.984  0.1192 -0.6864 -0.3280
11666SOL     OW35575   7.873   9.808   8.859 -0.1197 -0.4384 -0.6292
11666SOL    HW135576   7.805   9.862   8.820 -1.7085 -1.4093  0.6714
11666SOL    HW235577   7.955   9.850   8.834 -1.2552  2.5374  0.2901
11667SOL     OW35578   4.797   0.786   0.398  0.3972  0.1192  0.2827
11667SOL    HW135579   4.737   0.711   0.396  1.4041 -0.7097  0.4799
11667SOL    HW235580   4.778   0.830   0.481 -2.2323  1.8406 -1.0815
11668SOL     OW35581   4.194   1.735   8.387  0.5047  0.3122  0.0629
11668SOL    HW135582   4.277   1.748   8.341  0.0419  0.7178 -0.6839
11668SOL    HW235583   4.217   1.741   8.479  1.5581 -1.0974 -0.0700
11669SOL     OW35584   7.808   1.099   1.629 -0.2284 -0.8187  0.5167
11669SOL    HW135585   7.842   1.114   1.718  0.1412 -1.8382  0.5552
11669SOL    HW235586   7.788   1.006   1.626  1.1572 -1.1083 -0.9561
11670SOL     OW35587   1.796   4.934   4.341  0.1913  0.4946 -0.3534
11670SOL    HW135588   1.811   5.020   4.301 -2.3461  0.1976 -2.2064
11670SOL    HW235589   1.818   4.872   4.271  2.1585 -0.4498  1.0159
11671SOL     OW35590   3.299   9.332   2.489 -0.0525 -0.3702 -0.2907
11671SOL    HW135591   3.367   9.384   2.531  0.6704 -1.6890  0.2185
11671SOL    HW235592   3.252   9.395   2.434 -0.4907  1.2549  1.8019
11672SOL     OW35593   8.592   3.145   8.049  0.0438 -0.2403 -0.0690
11672SOL    HW135594   8.577   3.123   8.141  0.0743  0.2155  0.0471
11672SOL    HW235595   8.617   3.237   8.050  1.5172 -0.5933 -0.3750
11673SOL     OW35596   3.036   8.914   0.756  0.0548 -0.5370  0.0171
11673SOL    HW135597   3.015   8.982   0.821  1.8664 -0.6821  0.8275
11673SOL    HW235598   2.966   8.921   0.691 -0.8348  0.8447  1.0410
11674SOL     OW35599   3.626   4.888   6.282  0.0024  0.6324 -0.6029
11674SOL    HW135600   3.581   4.966   6.314 -0.8150 -0.6091  1.4856
11674SOL    HW235601   3.565   4.817   6.299  0.0811 -0.3590 -3.8526
11675SOL     OW35602   4.891   0.379   3.214 -0.1595  0.3264 -0.3547
11675SOL    HW135603   4.882   0.289   3.182  0.8823  0.1362 -0.1351
11675SOL    HW235604   4.961   0.416   3.161  1.0546  0.2544  1.1508
11676SOL     OW35605   5.766   4.912   2.017  1.0971 -0.1522 -0.1294
11676SOL    HW135606   5.759   4.986   1.956  0.1312  0.8657  1.1614
11676SOL    HW235607   5.842   4.863   1.986  0.4620  0.1325 -2.3382
11677SOL     OW35608   6.267   0.341   5.518  0.3102  0.1770 -0.3174
11677SOL    HW135609   6.261   0.246   5.518  0.8246  0.1369 -0.9164
11677SOL    HW235610   6.256   0.367   5.610  0.8710 -0.5039 -0.0517
11678SOL     OW35611   9.921   0.938   5.573  0.7423 -0.0941 -0.2723
11678SOL    HW135612   9.952   1.013   5.624 -0.7344  1.4872 -1.5345
11678SOL    HW235613   9.829   0.929   5.598  0.8800 -1.4293 -0.2197
11679SOL     OW35614   3.463   3.333   6.711  0.0547  0.4301 -0.0836
11679SOL    HW135615   3.417   3.269   6.766 -0.8782  1.1397 -0.0148
11679SOL    HW235616   3.393   3.383   6.669  0.7615  0.6983 -0.9886
11680SOL     OW35617   4.188   6.031   6.090  0.5897  0.1167  0.3323
11680SOL    HW135618   4.233   5.999   6.168  0.6312 -0.1200  0.2146
11680SOL    HW235619   4.168   5.951   6.041  0.7714  0.2826 -0.0100
11681SOL     OW35620   3.200   7.977   0.306 -0.4097 -0.6862  0.0897
11681SOL    HW135621   3.223   8.054   0.359  1.3716  1.2416 -3.1859
11681SOL    HW235622   3.283   7.949   0.268 -1.4691 -2.5211 -0.9903
11682SOL     OW35623   1.244   0.772   1.648  0.3003 -0.4219 -0.3745
11682SOL    HW135624   1.202   0.723   1.577  1.8485 -1.0336 -0.9050
11682SOL    HW235625   1.252   0.861   1.614 -0.0076 -0.4429 -0.5088
11683SOL     OW35626   6.803   6.253   4.275 -0.6855 -0.0113 -0.4023
11683SOL    HW135627   6.871   6.319   4.260 -1.4259  0.4675 -1.7911
11683SOL    HW235628   6.822   6.219   4.362  1.0284  0.4679 -0.5610
11684SOL     OW35629   0.379   9.944   4.364 -0.1981 -0.6035 -0.2363
11684SOL    HW135630   0.461   9.905   4.333 -0.0394  0.0529 -0.6624
11684SOL    HW235631   0.313   9.878   4.346  0.2835 -1.3104  0.4720
11685SOL     OW35632   9.074   1.245   4.199 -0.4714 -0.3014 -0.4478
11685SOL    HW135633   9.167   1.270   4.200 -0.1908 -1.2930 -0.7761
11685SOL    HW235634   9.030   1.320   4.160  0.2040  0.1396 -0.3919
11686SOL     OW35635   9.331   8.478   9.303 -0.1430 -0.1752 -0.6350
11686SOL    HW135636   9.362   8.521   9.224  0.8525 -0.8711 -0.6380
11686SOL    HW235637   9.275   8.407   9.271 -0.3792  0.0273 -0.6782
11687SOL     OW35638   5.161   5.093   1.411  0.2350  0.5070  0.4553
11687SOL    HW135639   5.181   5.169   1.465 -3.7033  1.3989  0.9656
11687SOL    HW235640   5.112   5.128   1.336  0.6210 -1.3003 -0.7253
11688SOL     OW35641   0.917   7.212   5.747 -0.0142 -0.1629  0.6601
11688SOL    HW135642   0.860   7.157   5.693 -1.0874  0.1788  1.4127
11688SOL    HW235643   0.917   7.170   5.833  0.2840  0.2445  0.8631
11689SOL     OW35644   9.888   0.871  -0.003 -0.0130  0.3650  0.0783
11689SOL    HW135645   9.856   0.855   0.086 -2.2720 -0.3734 -0.8020
11689SOL    HW235646   9.974   0.829  -0.005  0.2544  0.7313  2.0060
11690SOL     OW35647   2.762   8.714   5.127 -0.1558 -0.1396  0.4595
11690SOL    HW135648   2.803   8.800   5.142  2.3690 -0.7905 -1.7954
11690SOL    HW235649   2.820   8.652   5.170 -0.0028 -0.9314 -0.8248
11691SOL     OW35650   7.872   0.968   7.097 -1.0548  0.6163  0.3506
11691SOL    HW135651   7.796   1.021   7.121 -1.8967 -0.6909  0.7130
11691SOL    HW235652   7.835   0.893   7.051  0.0538  0.1389  0.2051
11692SOL     OW35653   7.580   3.514   6.121 -0.2136 -0.6615  0.6710
11692SOL    HW135654   7.515   3.458   6.079  0.1720 -0.1449 -0.6739
11692SOL    HW235655   7.651   3.520   6.057 -0.4382  1.7173  0.5703
11693SOL     OW35656   3.786   5.105   1.976 -0.0546 -0.0641 -0.0619
11693SOL    HW135657   3.852   5.146   1.920  0.5381  2.2042  2.0845
11693SOL    HW235658   3.709   5.161   1.966  0.0341  0.3226  1.2490
11694SOL     OW35659   4.568   5.271   2.419  0.0261 -0.0746  0.0910
11694SOL    HW135660   4.478   5.296   2.441 -0.5792 -1.4477 -0.6654
11694SOL    HW235661   4.600   5.343   2.365 -1.1579 -0.2340 -0.8753
11695SOL     OW35662   4.268   1.459   7.948  0.7238  0.3963 -0.5016
11695SOL    HW135663   4.352   1.497   7.976  0.7515 -1.5412  2.4281
11695SOL    HW235664   4.276   1.366   7.970 -2.9259  0.4836  1.9192
11696SOL     OW35665   5.827   6.761   1.113  0.0854 -0.3350 -0.2348
11696SOL    HW135666   5.814   6.790   1.204 -2.6737 -0.0507 -0.6444
11696SOL    HW235667   5.740   6.733   1.084  1.1701 -1.7287 -2.3826
11697SOL     OW35668   5.744   5.148   9.339  0.1071  0.5475 -0.2879
11697SOL    HW135669   5.768   5.073   9.392  3.5081  0.4370 -1.7198
11697SOL    HW235670   5.786   5.133   9.255 -1.1512  2.9290 -1.4672
11698SOL     OW35671   5.370   7.989   5.898 -0.6636 -0.4457 -0.4824
11698SOL    HW135672   5.408   7.911   5.940 -1.5135 -0.2528  0.7177
11698SOL    HW235673   5.363   8.053   5.969  0.9879  1.1300 -1.6769
11699SOL     OW35674   5.038   8.787   5.003 -0.1605 -0.4008  1.0654
11699SOL    HW135675   4.991   8.801   5.085  0.1276 -1.0189  1.3434
11699SOL    HW235676   5.091   8.865   4.992 -1.0126  0.1687  0.9069
11700SOL     OW35677   8.633   6.462   9.804 -0.0313 -0.1856  0.9058
11700SOL    HW135678   8.617   6.368   9.803 -1.1555 -0.0003 -0.3846
11700SOL    HW235679   8.550   6.500   9.832  0.1911  0.4722  0.6859
11701SOL     OW35680   8.292   8.899   5.771 -0.1788 -0.6037 -0.4291
11701SOL    HW135681   8.202   8.929   5.767  0.2324  0.6558 -0.7114
11701SOL    HW235682   8.322   8.901   5.681  0.1149 -1.0723 -0.3437
11702SOL     OW35683   4.561   7.086   4.374 -0.1238  0.8562 -0.5117
11702SOL    HW135684   4.586   7.178   4.378 -1.1714  1.0980  1.4218
11702SOL    HW235685   4.539   7.062   4.464  0.9694 -1.5610 -0.7946
11703SOL     OW35686   3.870   7.912   0.932  0.0938  0.1065 -0.1001
11703SOL    HW135687   3.934   7.852   0.893 -0.7858  0.3086 -1.9506
11703SOL    HW235688   3.923   7.984   0.967  0.9556 -0.2586 -0.6222
11704SOL     OW35689   1.809   0.688   7.075  0.7314  0.2944 -0.3003
11704SOL    HW135690   1.719   0.658   7.091  1.0880 -1.4330 -1.3020
11704SOL    HW235691   1.819   0.764   7.132 -0.3121 -1.3700  2.2611
11705SOL     OW35692   4.827   3.464   0.648 -0.4856  0.1719  0.2909
11705SOL    HW135693   4.886   3.397   0.615  0.3490  0.7770  0.5391
11705SOL    HW235694   4.772   3.486   0.573 -0.2635 -0.2473  0.0032
11706SOL     OW35695   5.490   1.864   1.460 -0.7446 -0.2793 -0.7520
11706SOL    HW135696   5.396   1.875   1.476 -0.5642 -1.0067  1.0880
11706SOL    HW235697   5.519   1.949   1.426 -2.0120  0.0558 -1.0247
11707SOL     OW35698   6.514   4.806   5.202  0.1124  0.3647  0.2481
11707SOL    HW135699   6.581   4.866   5.235 -1.0391  2.2278 -0.6059
11707SOL    HW235700   6.555   4.763   5.127  0.3336  1.6209 -0.3866
11708SOL     OW35701   0.036   0.403   5.683  0.0109 -0.1267 -0.3533
11708SOL    HW135702   0.118   0.411   5.636 -0.1989  0.6043 -0.6055
11708SOL    HW235703   0.044   0.463   5.757  0.3938 -1.3643  0.6440
11709SOL     OW35704   9.723   9.662   7.382  0.1202  0.5028  0.1525
11709SOL    HW135705   9.630   9.673   7.363  0.3115  2.0367 -0.0144
11709SOL    HW235706   9.729   9.664   7.477 -0.3641 -3.0442  0.3711
11710SOL     OW35707   2.922   1.262   0.216 -0.1039 -0.3641  0.2363
11710SOL    HW135708   2.834   1.298   0.205 -0.3412 -0.3192  2.0578
11710SOL    HW235709   2.967   1.324   0.272  1.7720  0.6007 -2.1735
11711SOL     OW35710   8.728   6.834   6.525 -0.4639  0.0589  0.2726
11711SOL    HW135711   8.746   6.801   6.613 -0.4606 -2.1236 -0.4611
11711SOL    HW235712   8.795   6.792   6.471 -1.2509  0.3307 -0.9484
11712SOL     OW35713   7.910   9.772   9.642  0.6505  1.0958 -1.3743
11712SOL    HW135714   7.866   9.719   9.576 -1.9431  1.7542 -0.3070
11712SOL    HW235715   7.875   9.861   9.629 -0.3389  1.1498  1.1147
11713SOL     OW35716   3.065   4.592   2.090 -0.3631 -0.2765 -0.2666
11713SOL    HW135717   3.111   4.508   2.103 -0.2930 -0.4502 -1.5348
11713SOL    HW235718   3.135   4.655   2.075 -0.4207  0.0037  0.6192
11714SOL     OW35719   9.094   1.075   8.204  0.1637  0.5259 -0.7097
11714SOL    HW135720   9.105   1.116   8.118  1.7820  0.5018 -0.5601
11714SOL    HW235721   9.160   1.119   8.259  0.0981 -0.4230  0.1440
11715SOL     OW35722   5.060   4.020   0.542 -0.1829  0.4235  0.4738
11715SOL    HW135723   5.110   3.939   0.551 -0.3537  0.3479  0.7604
11715SOL    HW235724   5.121   4.088   0.569 -0.1576  0.3551  0.5883
11716SOL     OW35725   1.720   6.310   1.352  0.1286  0.2668 -0.0499
11716SOL    HW135726   1.709   6.218   1.375 -0.1356  0.7867  2.1323
11716SOL    HW235727   1.722   6.311   1.257 -0.3162 -1.9366 -0.1323
11717SOL     OW35728   4.875   2.570   1.998  0.3593  0.4245 -0.0525
11717SOL    HW135729   4.852   2.533   1.912  2.4321  0.8951 -0.8610
11717SOL    HW235730   4.942   2.511   2.032  1.7683  1.9048 -0.1675
11718SOL     OW35731   3.653   3.604   9.008 -0.4439  0.2286  0.0082
11718SOL    HW135732   3.746   3.602   8.986 -0.6719  0.9261 -1.1565
11718SOL    HW235733   3.644   3.544   9.081  1.0582  0.8040  0.7083
11719SOL     OW35734   7.643   5.391   3.243 -0.1815  0.0682 -0.1884
11719SOL    HW135735   7.673   5.451   3.311 -1.1630 -0.4409  0.7246
11719SOL    HW235736   7.573   5.341   3.284 -1.2968  0.2309 -1.7929
11720SOL     OW35737   1.790   3.465   1.540 -0.0163 -0.7267  0.4302
11720SOL    HW135738   1.713   3.467   1.595  0.0843  1.1038  0.5716
11720SOL    HW235739   1.851   3.407   1.585 -0.3996 -0.2391  1.5953
11721SOL     OW35740   5.084   4.856   5.434 -0.4211 -0.3734  0.1165
11721SOL    HW135741   5.153   4.842   5.499  0.6657  0.3265 -0.8573
11721SOL    HW235742   5.066   4.770   5.398 -0.0122 -0.5445  0.3187
11722SOL     OW35743   7.488   8.597   5.971  0.0956 -0.1291  0.0206
11722SOL    HW135744   7.409   8.554   5.937 -0.6189 -0.5119  2.0079
11722SOL    HW235745   7.521   8.536   6.037  0.2169  1.4475  1.4600
11723SOL     OW35746   4.269   6.162   7.668  0.2259  0.4039 -0.1231
11723SOL    HW135747   4.191   6.109   7.653  0.3843  0.1345  0.0060
11723SOL    HW235748   4.341   6.107   7.638  0.4384  0.3372  0.5095
11724SOL     OW35749   8.239   1.154   4.339  0.3943  0.3657  0.4863
11724SOL    HW135750   8.228   1.145   4.244 -0.7942 -2.4464  0.8129
11724SOL    HW235751   8.295   1.231   4.348  1.5703  0.0407 -2.5495
11725SOL     OW35752   9.380   0.466   4.723  0.5242 -0.2322  0.5538
11725SOL    HW135753   9.378   0.476   4.818  0.6741 -1.1889  0.6715
11725SOL    HW235754   9.472   0.451   4.702  0.3397 -1.2345  0.4083
11726SOL     OW35755   1.359   9.266   2.415  0.5749  0.2760 -0.0009
11726SOL    HW135756   1.376   9.179   2.379  0.2863  0.2359 -0.0497
11726SOL    HW235757   1.364   9.254   2.510  0.4827  0.1938 -0.0060
11727SOL     OW35758   0.953   5.685   1.954  0.4545 -0.1060 -0.4954
11727SOL    HW135759   0.938   5.685   1.860 -0.9786  0.2367 -0.2912
11727SOL    HW235760   0.969   5.593   1.976  1.7753 -0.0758 -1.1791
11728SOL     OW35761   3.288   9.662   8.564  0.1858 -0.5927 -0.4185
11728SOL    HW135762   3.286   9.743   8.514  1.9829 -1.0703 -1.3464
11728SOL    HW235763   3.292   9.690   8.655 -2.4287  0.2937 -0.4975
11729SOL     OW35764   7.540   7.019   4.926 -0.2733  0.0362  0.1200
11729SOL    HW135765   7.513   7.100   4.883 -0.6740 -0.4683 -0.5860
11729SOL    HW235766   7.471   6.956   4.905  1.4599 -1.3193 -1.8112
11730SOL     OW35767   4.888   7.721   7.815  0.9330 -0.3290  0.4777
11730SOL    HW135768   4.830   7.768   7.876 -0.2231  1.3014 -1.7357
11730SOL    HW235769   4.962   7.780   7.802  0.3932  0.0843 -0.8760
11731SOL     OW35770   9.166   7.095   0.566 -0.3388  0.1823 -0.3635
11731SOL    HW135771   9.167   7.190   0.551 -0.5121  0.6920  2.3136
11731SOL    HW235772   9.169   7.086   0.661 -0.9569 -2.5213 -0.5198
11732SOL     OW35773   2.708   6.491   8.975  0.4695  0.1547 -0.0859
11732SOL    HW135774   2.688   6.499   8.882 -0.7831  1.0507  0.2379
11732SOL    HW235775   2.632   6.446   9.012  0.1352  1.3812  0.7808
11733SOL     OW35776   5.910   0.049   3.987  0.7234  0.1293 -0.0669
11733SOL    HW135777   5.878   0.075   3.901  1.2347  1.8463  0.2233
11733SOL    HW235778   5.836   0.062   4.045  0.4846 -0.6861 -0.1830
11734SOL     OW35779   5.852   5.654   6.688  0.2775  0.2295 -0.2434
11734SOL    HW135780   5.819   5.568   6.712  0.5712  0.2311  0.1713
11734SOL    HW235781   5.894   5.640   6.603  0.0800  0.0251 -0.3095
11735SOL     OW35782   9.102   4.190   4.337  0.3320 -0.8059  0.0997
11735SOL    HW135783   9.181   4.240   4.359 -0.0222 -0.5482  0.8279
11735SOL    HW235784   9.031   4.239   4.379 -0.2288 -0.9892 -0.6155
11736SOL     OW35785   8.274   3.839   5.959 -0.0624  0.4836  0.8579
11736SOL    HW135786   8.265   3.777   6.031 -0.6074  0.4717  0.7859
11736SOL    HW235787   8.361   3.823   5.923 -0.1864 -0.2128  0.8624
11737SOL     OW35788   8.932   1.459   0.678  0.5982 -0.2001 -0.1488
11737SOL    HW135789   8.940   1.379   0.730  0.0905  0.3431  0.8002
11737SOL    HW235790   9.020   1.473   0.642  0.5412 -1.4992 -0.8285
11738SOL     OW35791   1.110   2.189   5.630 -0.2375 -0.7458  0.9599
11738SOL    HW135792   1.148   2.101   5.627 -0.6379 -0.9676  2.0250
11738SOL    HW235793   1.155   2.232   5.702 -0.2187 -0.1537  0.5968
11739SOL     OW35794   5.079   0.820   6.210  0.3895 -0.4545  0.3091
11739SOL    HW135795   5.040   0.751   6.155 -1.0747  0.6578 -0.1166
11739SOL    HW235796   5.011   0.840   6.274  0.0396  1.8155 -0.6703
11740SOL     OW35797   9.496   0.559   7.865  0.2936  0.2404 -0.6945
11740SOL    HW135798   9.434   0.492   7.894  0.2174 -0.0780 -1.5371
11740SOL    HW235799   9.528   0.526   7.781  0.2568  1.2599 -1.1256
11741SOL     OW35800   5.917   1.135   1.586 -0.2976  0.1017 -0.0427
11741SOL    HW135801   5.866   1.185   1.522  0.2890  0.1121 -0.5151
11741SOL    HW235802   5.925   1.048   1.547 -1.4886 -0.4500  0.8659
11742SOL     OW35803   7.026   8.640   3.409 -0.1051 -0.2718  0.0731
11742SOL    HW135804   7.094   8.669   3.470 -0.4963  0.3814  0.2141
11742SOL    HW235805   7.057   8.670   3.323 -0.7490  1.0854  0.2776
11743SOL     OW35806   4.265   4.104   9.526  0.2210 -0.1837  0.7204
11743SOL    HW135807   4.272   4.018   9.567  0.0320 -0.3098  0.4917
11743SOL    HW235808   4.171   4.124   9.528  0.1207 -0.4793 -0.2114
11744SOL     OW35809   8.233   9.855   1.414 -0.1921  0.2516 -0.3117
11744SOL    HW135810   8.309   9.803   1.387  0.6828  1.6772 -0.7443
11744SOL    HW235811   8.214   9.825   1.502 -0.0449 -1.1312 -0.7171
11745SOL     OW35812   7.811   5.552   4.627 -0.1251 -0.0230 -0.2976
11745SOL    HW135813   7.742   5.597   4.676  0.8237  1.2295 -0.0604
11745SOL    HW235814   7.806   5.589   4.539  1.1912  1.2293  0.1078
11746SOL     OW35815   9.340   9.213   7.991 -0.3994 -0.1658  0.3898
11746SOL    HW135816   9.371   9.204   8.081  0.3273  0.4481  0.2087
11746SOL    HW235817   9.393   9.151   7.941  0.5361  0.8499  0.0885
11747SOL     OW35818   9.714   1.502   0.518 -0.1892 -0.1581 -0.5498
11747SOL    HW135819   9.656   1.541   0.453  0.8137  1.8191 -0.3294
11747SOL    HW235820   9.657   1.448   0.573 -1.4539  0.1552 -1.5210
11748SOL     OW35821   5.995   8.360   3.667  0.0406  0.1326  0.5326
11748SOL    HW135822   5.976   8.454   3.666 -0.4550  0.0579  1.3831
11748SOL    HW235823   6.069   8.352   3.728 -2.1826 -0.3565  3.3967
11749SOL     OW35824   5.248   6.097   8.652  0.3996 -0.0691  0.2349
11749SOL    HW135825   5.234   6.023   8.594 -0.0341  0.4786 -0.3759
11749SOL    HW235826   5.163   6.113   8.693 -0.2357  1.6915 -1.5957
11750SOL     OW35827   1.683   2.417   9.814 -0.6503  0.2482 -0.1636
11750SOL    HW135828   1.759   2.431   9.870 -0.5520 -1.9939  0.3893
11750SOL    HW235829   1.624   2.362   9.866 -1.8695  0.5051 -1.2053
11751SOL     OW35830   6.982   1.643   5.220 -0.0311  0.3181 -0.7900
11751SOL    HW135831   6.941   1.684   5.143 -1.8393  0.1720  0.0359
11751SOL    HW235832   6.909   1.601   5.266  1.2868 -1.1602  0.0544
11752SOL     OW35833   3.175   7.785   8.978  0.2401  0.7735  0.0652
11752SOL    HW135834   3.093   7.774   8.931 -0.2819 -0.4031  1.1647
11752SOL    HW235835   3.216   7.862   8.939 -1.9439  2.1377  0.2695
11753SOL     OW35836   3.755   8.238   5.954 -0.3046  0.1555 -0.0877
11753SOL    HW135837   3.848   8.258   5.944 -0.4039  0.2794 -0.8289
11753SOL    HW235838   3.725   8.298   6.023  0.1154  0.2791 -0.0112
11754SOL     OW35839   8.646   0.462   4.862  0.0634  0.2276 -0.2793
11754SOL    HW135840   8.574   0.524   4.866  1.6534  2.1098  0.3815
11754SOL    HW235841   8.606   0.380   4.832 -2.8138  0.4546  2.4294
11755SOL     OW35842   3.471   3.955   7.978 -0.5134  0.0339 -0.1950
11755SOL    HW135843   3.397   3.904   8.010 -2.3294  1.6592 -1.5161
11755SOL    HW235844   3.462   4.040   8.022 -0.0674  0.5904 -1.1350
11756SOL     OW35845   1.415   4.378   1.033  0.0725 -0.1527 -0.3301
11756SOL    HW135846   1.330   4.333   1.038  0.6654 -1.2601  0.2876
11756SOL    HW235847   1.448   4.358   0.946  0.3070 -0.9081 -0.0794
11757SOL     OW35848   2.222   5.837   8.098 -0.1837 -0.2113 -0.1114
11757SOL    HW135849   2.236   5.871   8.009 -1.4333 -0.1830 -0.3145
11757SOL    HW235850   2.168   5.903   8.141  0.4832 -0.1880  0.7114
11758SOL     OW35851   2.568   9.058   8.235  0.2946 -0.1690  0.4720
11758SOL    HW135852   2.520   9.128   8.190  0.5531  0.0163  0.4820
11758SOL    HW235853   2.644   9.041   8.179  2.4304  2.3211  2.3656
11759SOL     OW35854   1.829   0.681   1.774  0.0241  0.0420 -0.0849
11759SOL    HW135855   1.744   0.717   1.747  0.5468 -0.5156 -2.7698
11759SOL    HW235856   1.868   0.750   1.829 -0.9227  1.6168 -1.2890
11760SOL     OW35857   2.179   2.710   2.736  0.2264 -0.2589 -0.5044
11760SOL    HW135858   2.186   2.620   2.765  0.1230 -0.2532 -0.4598
11760SOL    HW235859   2.149   2.758   2.813 -1.6831 -0.5140 -1.0318
11761SOL     OW35860   1.208   6.256   0.180 -0.2840 -0.9466  0.4757
11761SOL    HW135861   1.266   6.263   0.255 -0.2266 -1.5163  0.4863
11761SOL    HW235862   1.140   6.322   0.195 -0.3359 -1.1351  1.0826
11762SOL     OW35863   0.372   4.607   8.983 -0.4055  0.0191  0.2987
11762SOL    HW135864   0.426   4.685   8.988 -0.1633 -0.1819  1.0053
11762SOL    HW235865   0.414   4.546   9.045 -1.1198 -0.3315  0.4397
11763SOL     OW35866   1.684   9.219   0.638 -0.5226 -0.3819 -0.3265
11763SOL    HW135867   1.744   9.161   0.591 -1.8278 -1.6613 -0.4783
11763SOL    HW235868   1.686   9.188   0.728 -0.4912 -0.0111 -0.1974
11764SOL     OW35869   4.899   9.184   4.987 -0.5419  0.2660 -0.3321
11764SOL    HW135870   4.825   9.209   5.042 -0.0248  1.9511 -0.3182
11764SOL    HW235871   4.925   9.266   4.944  0.2883 -0.6181 -1.5971
11765SOL     OW35872   4.468   5.669   1.948  0.2335  0.2620 -0.1768
11765SOL    HW135873   4.537   5.604   1.962 -0.8138 -1.3174 -1.8797
11765SOL    HW235874   4.494   5.714   1.868 -0.6222 -0.2557 -0.7598
11766SOL     OW35875   2.586   7.425   8.058 -0.2998 -0.6978 -0.2129
11766SOL    HW135876   2.588   7.517   8.083 -0.9446 -0.7550  0.0633
11766SOL    HW235877   2.678   7.400   8.052 -0.1186 -0.3863  1.0093
11767SOL     OW35878   8.402   7.243   2.327 -0.3143  0.3337 -0.0502
11767SOL    HW135879   8.420   7.203   2.412 -0.6806 -0.1641 -0.2053
11767SOL    HW235880   8.323   7.295   2.342 -0.0763  0.6719  0.0450
11768SOL     OW35881   2.469   4.791   8.840 -0.0841 -0.5264 -0.5690
11768SOL    HW135882   2.530   4.722   8.868 -0.7049 -1.8252 -2.1972
11768SOL    HW235883   2.505   4.871   8.877  1.4534 -1.5256  0.2472
11769SOL     OW35884   3.938   6.386   4.035 -0.3583  0.2706  0.2659
11769SOL    HW135885   3.961   6.358   4.123 -0.7370 -0.5122  0.1218
11769SOL    HW235886   3.842   6.380   4.032 -0.5525  2.5046  0.5359
11770SOL     OW35887   4.824   0.540   3.416  0.0270 -0.2039 -0.3038
11770SOL    HW135888   4.843   0.471   3.352  0.4846  0.3743 -0.7892
11770SOL    HW235889   4.906   0.588   3.425 -0.3394  0.3940 -0.1013
11771SOL     OW35890   9.513   8.990   0.832  0.2973  0.2742 -0.7808
11771SOL    HW135891   9.442   8.931   0.859  0.1232  0.7965 -0.0645
11771SOL    HW235892   9.478   9.078   0.846  0.8394  0.5432 -1.0853
11772SOL     OW35893   5.087   8.336   1.600  0.3817  0.6357 -0.7262
11772SOL    HW135894   5.148   8.410   1.592  1.1205  0.2601  0.8719
11772SOL    HW235895   5.004   8.376   1.625  1.2328  0.8868  2.0402
11773SOL     OW35896   1.503   6.100   8.952 -0.2181 -0.1141  0.2459
11773SOL    HW135897   1.548   6.022   8.920  1.0740  0.3758  0.8250
11773SOL    HW235898   1.415   6.070   8.975  0.1522 -1.3145  0.1261
11774SOL     OW35899   7.730   6.365   8.691 -0.0223  0.3072  0.2064
11774SOL    HW135900   7.774   6.288   8.729  0.9904  1.1554  0.8334
11774SOL    HW235901   7.637   6.352   8.712 -0.0996 -1.4643 -1.0224
11775SOL     OW35902   9.036   8.288   3.815 -0.1227  0.4343  0.4091
11775SOL    HW135903   9.037   8.362   3.754 -2.3982 -0.8366 -1.3148
11775SOL    HW235904   8.944   8.276   3.837  0.3281 -1.1195  1.6823
11776SOL     OW35905   6.563   7.736   7.621 -0.2330 -0.0745  0.3449
11776SOL    HW135906   6.485   7.761   7.671 -0.9646 -0.9388 -0.3335
11776SOL    HW235907   6.613   7.680   7.680 -0.0601  0.5691  0.8209
11777SOL     OW35908   8.032   7.383   9.362 -0.4917 -0.0490 -0.1105
11777SOL    HW135909   8.112   7.433   9.376 -1.1327  1.0489 -0.1923
11777SOL    HW235910   7.985   7.388   9.445 -0.4368 -0.7711 -0.0302
11778SOL     OW35911   6.666   4.713   7.099  0.1982  0.3989  0.2402
11778SOL    HW135912   6.685   4.634   7.148  0.4183 -0.8503 -1.7299
11778SOL    HW235913   6.588   4.749   7.140 -0.7460 -1.6292  0.3399
11779SOL     OW35914   4.849   2.397   8.200  0.0166  0.1536  0.0168
11779SOL    HW135915   4.901   2.468   8.236  1.4626 -0.3776 -0.9365
11779SOL    HW235916   4.762   2.408   8.239  0.6398  1.4941  1.0815
11780SOL     OW35917   8.938   7.477   3.567  0.5392 -0.0808 -0.0442
11780SOL    HW135918   8.997   7.403   3.554  0.3595  0.0794 -2.1188
11780SOL    HW235919   8.873   7.467   3.497 -2.0107 -0.3322  2.1960
11781SOL     OW35920   2.213   5.862   5.208  0.3633  0.1508  0.6291
11781SOL    HW135921   2.157   5.908   5.146 -1.4807 -1.4185  1.0458
11781SOL    HW235922   2.272   5.810   5.153 -1.2492 -1.2229  0.1475
11782SOL     OW35923   2.869   5.156   5.449 -0.0965 -0.1108  0.1118
11782SOL    HW135924   2.929   5.114   5.511 -1.7276 -0.4339  1.5794
11782SOL    HW235925   2.921   5.169   5.370  1.6520 -1.1017  1.0236
11783SOL     OW35926   7.803   8.896   1.783  0.5730  0.3314 -0.7998
11783SOL    HW135927   7.853   8.820   1.814  1.0723  1.1613  0.5506
11783SOL    HW235928   7.816   8.962   1.852  0.1085  1.6217 -1.9127
11784SOL     OW35929   5.308   5.944   0.815 -0.2826 -0.3135  0.0722
11784SOL    HW135930   5.218   5.940   0.848  0.2988  0.4933  1.8720
11784SOL    HW235931   5.361   5.959   0.893  1.2538  0.9636 -1.1662
11785SOL     OW35932   9.358   7.822   9.190 -0.2265 -0.4653 -0.3361
11785SOL    HW135933   9.414   7.795   9.117  0.3207  0.7915 -0.4003
11785SOL    HW235934   9.414   7.876   9.245 -0.8350 -0.8194  0.6651
11786SOL     OW35935   9.131   6.591   7.964  0.5854  0.1851 -0.2829
11786SOL    HW135936   9.075   6.535   7.911  1.4611  1.9600 -3.3425
11786SOL    HW235937   9.078   6.668   7.982  0.6717  0.0645  0.5246
11787SOL     OW35938   9.090   7.187   9.201  0.1515 -0.4826  0.0988
11787SOL    HW135939   9.050   7.124   9.142 -0.1133 -1.4132  1.2304
11787SOL    HW235940   9.079   7.272   9.158 -1.3576 -0.9484 -0.4707
11788SOL     OW35941   0.045   0.324   7.599 -0.2146  0.1059  0.7807
11788SOL    HW135942   0.056   0.230   7.611 -0.8853  0.1013  1.4123
11788SOL    HW235943  -0.020   0.331   7.529  0.9228  0.1211 -0.3129
11789SOL     OW35944   2.910   9.541   9.180 -0.5986 -0.1009  0.3535
11789SOL    HW135945   2.947   9.453   9.175 -0.7744 -0.4058  2.9876
11789SOL    HW235946   2.980   9.594   9.219 -0.9358  0.6718 -0.0606
11790SOL     OW35947   2.242   7.789   2.303 -0.7231 -0.4810 -0.1536
11790SOL    HW135948   2.264   7.829   2.387  1.7576 -1.4340 -0.2639
11790SOL    HW235949   2.159   7.829   2.279 -0.1193  1.9296  1.3876
11791SOL     OW35950   2.041   7.409   3.332  0.6434  0.0700 -0.7458
11791SOL    HW135951   2.007   7.329   3.292 -0.2162 -0.1483  0.3928
11791SOL    HW235952   2.124   7.383   3.373 -0.3893 -0.6309  0.9694
11792SOL     OW35953   9.379   8.629   3.904 -0.2018 -0.4202  0.4411
11792SOL    HW135954   9.461   8.676   3.918 -1.0085  0.5038  2.5159
11792SOL    HW235955   9.380   8.559   3.969 -1.1839 -0.1937  0.7189
11793SOL     OW35956   2.184   4.654   8.187 -0.2053  0.3480 -0.3352
11793SOL    HW135957   2.273   4.681   8.165 -0.4090  2.4093  1.0899
11793SOL    HW235958   2.191   4.561   8.208  1.8665  0.7570  1.0392
11794SOL     OW35959   7.238   2.455   0.614  0.6493 -0.2980  0.1258
11794SOL    HW135960   7.299   2.447   0.541 -0.2447 -0.3157 -0.6331
11794SOL    HW235961   7.206   2.366   0.628 -1.5153  0.1388 -1.5340
11795SOL     OW35962   5.063   5.678   0.945 -0.5625  0.1947  0.2190
11795SOL    HW135963   5.022   5.764   0.950 -0.5193  0.2204  0.1220
11795SOL    HW235964   5.107   5.677   0.860  1.3711  0.9522  1.1548
11796SOL     OW35965   2.194   4.827   5.627 -1.0060  0.0362 -0.1098
11796SOL    HW135966   2.236   4.856   5.708  0.0325 -1.4202 -0.1025
11796SOL    HW235967   2.101   4.823   5.649 -0.7144 -0.5843  1.0967
11797SOL     OW35968   6.346   6.179   3.054 -0.4345  0.4856  0.2188
11797SOL    HW135969   6.382   6.220   3.133 -0.1666 -0.2872  0.5027
11797SOL    HW235970   6.415   6.187   2.988 -0.7311  1.3054 -0.0062
11798SOL     OW35971   7.267   0.877   9.747 -0.1072 -0.3247  0.0932
11798SOL    HW135972   7.174   0.883   9.771 -0.5082 -2.4407 -0.7190
11798SOL    HW235973   7.303   0.811   9.805 -0.1451 -2.5059 -2.1619
11799SOL     OW35974   4.382   6.948   1.165  0.0369 -0.1992  0.1606
11799SOL    HW135975   4.426   6.875   1.208  0.3754  0.4599  0.9701
11799SOL    HW235976   4.293   6.947   1.200  0.1900  0.0803  0.5674
11800SOL     OW35977   4.760   4.814   6.449 -0.1951 -0.0069  0.2862
11800SOL    HW135978   4.723   4.785   6.532  1.1843  0.1778  0.9920
11800SOL    HW235979   4.726   4.903   6.438  0.4326  0.3538  1.1777
11801SOL     OW35980   6.911   1.986   5.962  0.1458  1.1650 -0.7803
11801SOL    HW135981   6.993   2.023   5.929  1.2481 -1.0379 -0.7096
11801SOL    HW235982   6.928   1.970   6.055  1.0384 -2.4310 -1.3783
11802SOL     OW35983   4.158   8.615   0.411  0.5365 -0.5070  0.0466
11802SOL    HW135984   4.190   8.606   0.501  0.6709 -0.5030 -0.0002
11802SOL    HW235985   4.238   8.611   0.357  0.3202 -2.2858 -0.1915
11803SOL     OW35986   9.815   8.674   2.508  0.2115 -0.6315  0.7232
11803SOL    HW135987   9.905   8.640   2.504  0.1938 -0.5239 -1.6763
11803SOL    HW235988   9.805   8.725   2.428 -0.7001  2.8291  2.8382
11804SOL     OW35989   7.107   7.795   4.789  0.1647 -0.4494  0.0593
11804SOL    HW135990   7.068   7.883   4.786  1.3032  0.1070  0.8276
11804SOL    HW235991   7.132   7.777   4.698 -1.1318 -0.4804 -0.3009
11805SOL     OW35992   1.367   4.289   4.511 -0.3512  0.4052 -0.5048
11805SOL    HW135993   1.442   4.296   4.451 -0.5440 -1.5772 -1.0728
11805SOL    HW235994   1.294   4.326   4.462 -0.3441 -0.4916 -1.2430
11806SOL     OW35995   1.205   3.197   3.592  0.3035 -0.3174  0.0310
11806SOL    HW135996   1.151   3.255   3.645  0.4820  0.1915 -0.3235
11806SOL    HW235997   1.266   3.157   3.654  0.1741 -0.1260  0.2823
11807SOL     OW35998   2.423   2.256   2.774 -0.0938 -0.0391 -0.2094
11807SOL    HW135999   2.448   2.215   2.856 -0.0516  0.9393  0.2827
11807SOL    HW236000   2.486   2.222   2.710 -1.1789 -2.1495 -0.2488
11808SOL     OW36001   3.128   2.613   6.303 -0.3349  0.1492 -0.3753
11808SOL    HW136002   3.140   2.599   6.397  1.1017  1.4673 -0.3306
11808SOL    HW236003   3.177   2.693   6.284 -1.2129  0.3183 -2.1234
11809SOL     OW36004   9.007   5.980   5.073  0.1234  0.9209  0.2351
11809SOL    HW136005   9.053   6.061   5.096  1.0490  0.1246  1.2971
11809SOL    HW236006   9.052   5.948   4.995 -0.9710  1.9793 -0.8758
11810SOL     OW36007   3.820   9.388   2.860  0.4928 -0.2025 -0.3415
11810SOL    HW136008   3.896   9.441   2.880  1.3569 -0.7442 -1.9928
11810SOL    HW236009   3.774   9.379   2.944  2.2302  0.1295  0.6982
11811SOL     OW36010   2.741   4.106   5.924  0.3403 -0.3302 -0.4553
11811SOL    HW136011   2.706   4.065   6.003  0.0836 -0.6771 -0.7457
11811SOL    HW236012   2.801   4.173   5.956  0.5250 -0.7243  0.0291
11812SOL     OW36013   1.296   0.122   7.195  0.0156  0.3421  0.1070
11812SOL    HW136014   1.260   0.199   7.151 -0.1542  0.2188  0.0284
11812SOL    HW236015   1.335   0.070   7.125  1.5045  1.0972  0.3494
11813SOL     OW36016   2.142   6.739   9.129  0.2928  0.5279  0.2765
11813SOL    HW136017   2.062   6.771   9.171 -0.3349 -0.0069 -0.4883
11813SOL    HW236018   2.112   6.701   9.046  1.0848 -1.4069  0.8340
11814SOL     OW36019   0.490   1.494   8.698  0.1269  0.5449  0.3676
11814SOL    HW136020   0.536   1.410   8.693 -0.4057  0.2558  0.1878
11814SOL    HW236021   0.429   1.483   8.771  1.3677  1.4570  1.6042
11815SOL     OW36022   9.187   7.115   1.708  0.2873  0.0468 -0.2821
11815SOL    HW136023   9.113   7.170   1.683 -0.9057 -0.2699  2.2458
11815SOL    HW236024   9.232   7.164   1.777  2.4507  0.1924 -1.6930
11816SOL     OW36025   7.705   1.394   2.261  0.4038 -0.1730 -0.4422
11816SOL    HW136026   7.786   1.431   2.227 -0.5761  1.6693 -0.9336
11816SOL    HW236027   7.651   1.380   2.183 -0.5496  0.7243  0.0309
11817SOL     OW36028   2.763   0.142   7.279  0.1177 -0.0615  0.2101
11817SOL    HW136029   2.760   0.136   7.183  1.4117 -2.4468  0.2301
11817SOL    HW236030   2.671   0.144   7.306 -0.2857 -0.3402 -1.0588
11818SOL     OW36031   8.395   7.099   2.090 -0.3487 -0.2743  0.2798
11818SOL    HW136032   8.381   7.152   2.169  0.5179 -0.5948  0.6674
11818SOL    HW236033   8.340   7.139   2.024 -0.4920  0.4840  0.8431
11819SOL     OW36034   6.653   6.749   6.702 -0.1369  0.5445  0.5459
11819SOL    HW136035   6.694   6.665   6.684 -0.3463  0.6704 -0.5714
11819SOL    HW236036   6.724   6.813   6.698 -0.0783  0.4947  0.7936
11820SOL     OW36037   6.075   1.901   4.991 -0.0520 -0.3316  0.0845
11820SOL    HW136038   6.121   1.965   4.936 -0.1679 -1.4177 -1.3407
11820SOL    HW236039   6.117   1.817   4.971 -2.3015 -1.3171 -0.9874
11821SOL     OW36040   1.320   7.394   0.487  0.5801 -0.3566 -0.4354
11821SOL    HW136041   1.349   7.479   0.454 -0.4148 -0.8707 -2.8956
11821SOL    HW236042   1.377   7.331   0.444  1.1515 -0.9824  1.1835
11822SOL     OW36043   6.551   7.534   5.667 -0.3771 -0.1936 -0.2195
11822SOL    HW136044   6.554   7.603   5.601 -2.6034 -0.8714 -1.1044
11822SOL    HW236045   6.643   7.522   5.692  0.3972  0.9925 -2.2164
11823SOL     OW36046   9.736   1.133   8.646  0.0208  0.5982  0.0155
11823SOL    HW136047   9.820   1.172   8.666  0.6825 -1.2303  1.0892
11823SOL    HW236048   9.674   1.176   8.705  0.6680  0.3134  0.9319
11824SOL     OW36049   8.052   2.414   9.425 -0.2389 -0.0401 -0.3584
11824SOL    HW136050   7.971   2.383   9.384 -0.4707 -0.5833  0.4859
11824SOL    HW236051   8.071   2.497   9.381 -0.8584 -0.2649 -1.0681
11825SOL     OW36052   6.215   9.320   4.122 -0.3895  0.0600 -0.2197
11825SOL    HW136053   6.270   9.243   4.109 -0.0068  0.5613 -1.7882
11825SOL    HW236054   6.201   9.324   4.217  1.6149 -0.5179  0.1477
11826SOL     OW36055   6.480   9.176   3.938 -0.3641  0.0325  0.1147
11826SOL    HW136056   6.438   9.108   3.884 -1.0221  1.7767 -1.7059
11826SOL    HW236057   6.447   9.161   4.026 -1.6683 -1.0980 -0.5302
11827SOL     OW36058   0.494   6.335   3.372  0.1332 -0.0607  0.0315
11827SOL    HW136059   0.420   6.346   3.312  1.4341  0.3679 -1.5543
11827SOL    HW236060   0.506   6.240   3.376  0.2860 -0.0780 -0.7134
11828SOL     OW36061   8.691   0.951   1.505  0.0553 -0.3502  0.1656
11828SOL    HW136062   8.751   1.016   1.542  1.4976 -0.8742 -1.1297
11828SOL    HW236063   8.708   0.871   1.554  1.0708 -0.7178 -0.7392
11829SOL     OW36064   1.569   5.847   1.171  0.0917 -0.0892  0.1682
11829SOL    HW136065   1.636   5.867   1.106 -0.6987 -1.2276 -1.0503
11829SOL    HW236066   1.533   5.932   1.196 -0.6550  0.3289 -2.0849
11830SOL     OW36067   9.722   2.585   8.406 -0.4445 -0.1327 -0.0578
11830SOL    HW136068   9.699   2.657   8.347 -2.7784 -0.2014  0.6455
11830SOL    HW236069   9.687   2.613   8.491  1.4177 -0.7409  0.9516
11831SOL     OW36070   8.148   0.636   4.340 -1.1270  0.0914  0.0696
11831SOL    HW136071   8.110   0.663   4.256  0.0470 -0.5015 -0.6870
11831SOL    HW236072   8.077   0.646   4.403 -1.6328  1.9423 -0.7242
11832SOL     OW36073   7.970   6.204   3.117  1.2215  0.1794  0.2407
11832SOL    HW136074   7.959   6.126   3.170 -0.4831  0.1990 -0.0300
11832SOL    HW236075   8.040   6.253   3.160  1.2177 -0.7323  1.3210
11833SOL     OW36076   0.806   7.772   9.732 -0.1131 -0.5946 -0.3468
11833SOL    HW136077   0.870   7.819   9.785  0.5678 -1.4273 -0.4203
11833SOL    HW236078   0.790   7.829   9.657 -0.4673  0.2183  0.3179
11834SOL     OW36079   0.802   8.669   4.495  0.3348 -0.7805  0.0100
11834SOL    HW136080   0.872   8.650   4.557  0.2859 -3.3251 -0.5774
11834SOL    HW236081   0.722   8.666   4.548  0.4939 -0.0095  0.3064
11835SOL     OW36082   9.322   1.826   6.184  0.5544 -0.1285 -0.4152
11835SOL    HW136083   9.360   1.817   6.272  0.7982 -2.9155 -0.7281
11835SOL    HW236084   9.234   1.788   6.192  0.4359 -0.0621 -1.3120
11836SOL     OW36085   7.427   7.400   5.103  0.4271  0.0936 -0.2324
11836SOL    HW136086   7.379   7.401   5.186 -0.1730  0.5719 -0.5755
11836SOL    HW236087   7.422   7.490   5.071  0.5262 -0.1160 -0.8526
11837SOL     OW36088   2.522   6.481   1.074  0.8149 -0.2127 -0.6283
11837SOL    HW136089   2.458   6.515   1.011 -1.1954 -0.1829  1.2792
11837SOL    HW236090   2.536   6.554   1.135 -1.1641 -1.6349  1.7272
11838SOL     OW36091   2.893   4.911   7.566 -0.0810  0.1193  0.1341
11838SOL    HW136092   2.810   4.949   7.539  0.2059  1.2070  0.7167
11838SOL    HW236093   2.956   4.983   7.560  1.2913 -1.1507 -2.2505
11839SOL     OW36094   1.919   2.287   5.074 -0.1096  0.1850  0.2494
11839SOL    HW136095   1.908   2.331   4.990  1.4495 -1.2162 -0.7557
11839SOL    HW236096   1.965   2.351   5.128 -0.2144  0.7403 -0.2970
11840SOL     OW36097   8.298   7.061   4.834 -0.5912  0.2837  0.1404
11840SOL    HW136098   8.355   7.074   4.910 -1.6887  1.0700  0.8613
11840SOL    HW236099   8.282   6.967   4.832  0.5129  0.0839  0.0715
11841SOL     OW36100   9.322   8.924   0.171  0.4649 -0.5787 -0.3417
11841SOL    HW136101   9.304   9.016   0.156  0.9139 -0.7918 -2.4091
11841SOL    HW236102   9.247   8.893   0.222 -0.3492  0.6314 -0.7620
11842SOL     OW36103   8.774   7.909   2.109  0.3903 -0.1889  0.1499
11842SOL    HW136104   8.709   7.958   2.160  1.7840 -0.7206  2.5667
11842SOL    HW236105   8.810   7.974   2.048 -0.5326  0.7828  0.6018
11843SOL     OW36106   3.994   9.854   6.014  0.4735 -0.3849  0.2965
11843SOL    HW136107   3.946   9.840   5.932  0.2071  1.7979  0.0066
11843SOL    HW236108   4.060   9.919   5.992  0.5514  0.0647  1.7562
11844SOL     OW36109   3.917   6.282   9.012 -0.0996  0.4500  0.1513
11844SOL    HW136110   3.839   6.246   9.054 -1.5450  2.3676 -0.7262
11844SOL    HW236111   3.979   6.210   9.010 -2.5040 -1.7164 -0.7904
11845SOL     OW36112   6.162   9.771   7.946 -0.3108 -0.2268 -0.0570
11845SOL    HW136113   6.078   9.727   7.959 -0.4183 -0.0423 -0.1300
11845SOL    HW236114   6.207   9.763   8.031 -0.7208  0.3593  0.2160
11846SOL     OW36115   9.313   8.877   0.961  0.6971 -0.3768  0.0712
11846SOL    HW136116   9.233   8.829   0.939  0.0428  0.7786 -0.1495
11846SOL    HW236117   9.350   8.830   1.036  0.5962 -1.7728 -0.7186
11847SOL     OW36118   1.173   5.362   9.207  0.0396  0.0943 -0.0049
11847SOL    HW136119   1.079   5.380   9.213  0.4437  2.6915 -0.1689
11847SOL    HW236120   1.189   5.346   9.114 -0.4754 -2.4216  0.2579
11848SOL     OW36121   1.447   7.126   2.394  0.0616  0.5375  0.0491
11848SOL    HW136122   1.453   7.052   2.335 -1.3188 -0.0939  0.6628
11848SOL    HW236123   1.391   7.189   2.349  0.7848  0.9958 -0.2335
11849SOL     OW36124   6.007   1.082   2.988  0.1275 -0.1242 -0.5935
11849SOL    HW136125   6.035   1.018   3.054  0.7001 -0.8531 -1.5151
11849SOL    HW236126   6.027   1.167   3.027 -0.1557 -0.5140  0.4370
11850SOL     OW36127   9.247   4.053   8.536  0.0121 -0.5114 -0.2834
11850SOL    HW136128   9.294   4.134   8.517 -1.0145 -0.1638 -1.5647
11850SOL    HW236129   9.246   4.046   8.631 -3.2736  3.1347  0.1948
11851SOL     OW36130   9.681   1.016   6.475  0.6620 -0.2553  0.2764
11851SOL    HW136131   9.751   0.958   6.503 -2.1839 -3.2144  1.9489
11851SOL    HW236132   9.651   0.979   6.391 -0.5305 -0.6677  0.8627
11852SOL     OW36133   6.236   3.920   4.914 -0.4912  0.1977  0.1980
11852SOL    HW136134   6.144   3.899   4.895 -0.1862 -0.5113 -0.5743
11852SOL    HW236135   6.282   3.900   4.832  0.3513  0.5447  0.5780
11853SOL     OW36136   8.146   1.824   7.619 -0.2927  0.0941 -0.6298
11853SOL    HW136137   8.091   1.848   7.694 -0.9384  0.0949 -1.0878
11853SOL    HW236138   8.220   1.884   7.623 -0.2195 -0.0304  0.1108
11854SOL     OW36139   0.351   1.018   6.284  0.3402 -0.2603  0.2263
11854SOL    HW136140   0.431   1.070   6.298  1.2802 -1.6063 -0.0325
11854SOL    HW236141   0.372   0.960   6.211 -0.9657 -0.4977  0.0148
11855SOL     OW36142   5.128   5.306   4.533 -0.1466  0.3408  0.3008
11855SOL    HW136143   5.183   5.330   4.608  1.2377 -0.2572 -0.4829
11855SOL    HW236144   5.041   5.292   4.570  0.1312  1.6998  1.5195
11856SOL     OW36145   0.575   6.631   1.162 -0.1625 -0.2823 -0.4165
11856SOL    HW136146   0.487   6.667   1.164  1.0304  3.0076  0.5423
11856SOL    HW236147   0.590   6.598   1.250 -0.3198 -0.5771 -0.4986
11857SOL     OW36148   7.202   3.657   0.177  0.5248  0.0342 -0.2880
11857SOL    HW136149   7.170   3.584   0.230  1.4789 -0.8334 -0.8610
11857SOL    HW236150   7.199   3.732   0.236 -2.4136  0.0207 -0.2722
11858SOL     OW36151   8.747   1.611   7.255 -0.2453  0.4567  0.1209
11858SOL    HW136152   8.794   1.653   7.327 -0.0291 -0.7809  0.7245
11858SOL    HW236153   8.808   1.546   7.221 -1.6670 -1.5657  1.2723
11859SOL     OW36154   2.483   4.532   2.815  0.7421  0.4855  0.1581
11859SOL    HW136155   2.542   4.500   2.747 -0.4431 -1.2431 -0.1342
11859SOL    HW236156   2.503   4.478   2.892 -2.8417 -2.9734 -0.9810
11860SOL     OW36157   7.820   4.336   7.251  0.3337 -0.6105 -0.0749
11860SOL    HW136158   7.876   4.413   7.242 -0.9958  0.4941  0.7404
11860SOL    HW236159   7.877   4.269   7.288  1.2787  0.2774  0.1150
11861SOL     OW36160   2.303   7.332   1.199 -0.0838  0.2779  0.7579
11861SOL    HW136161   2.238   7.292   1.257  0.4912  0.6299  1.6671
11861SOL    HW236162   2.386   7.323   1.245  0.3984  0.5214 -0.0389
11862SOL     OW36163   0.901   0.776   0.279 -0.0957 -0.2280 -0.3837
11862SOL    HW136164   0.858   0.796   0.362  1.8142 -1.4887  0.9868
11862SOL    HW236165   0.850   0.704   0.242  0.2524 -1.0928  0.7619
11863SOL     OW36166   9.341   0.212   9.513  0.5207  0.1560 -0.3989
11863SOL    HW136167   9.431   0.212   9.482  1.0804 -1.5914  1.0643
11863SOL    HW236168   9.295   0.154   9.453  0.3788  0.9535 -1.0738
11864SOL     OW36169   9.414   1.206   3.782 -0.1357  0.2713  0.0580
11864SOL    HW136170   9.396   1.112   3.778  1.4695 -0.0108 -1.7780
11864SOL    HW236171   9.466   1.218   3.861  0.5853 -0.5843 -0.2756
11865SOL     OW36172   9.501   7.698   2.221 -0.0039  0.2715 -0.3734
11865SOL    HW136173   9.545   7.627   2.174 -2.4259 -1.7257  0.1262
11865SOL    HW236174   9.554   7.711   2.300  1.9960  1.0401 -1.7482
11866SOL     OW36175   6.500   4.463   7.683 -0.6401 -0.3146 -0.1885
11866SOL    HW136176   6.583   4.502   7.711 -0.1723 -1.1283 -0.4109
11866SOL    HW236177   6.441   4.538   7.672  0.0405  0.2686  0.0320
11867SOL     OW36178   0.263   4.991   9.314 -0.0836  0.0178  0.1459
11867SOL    HW136179   0.281   5.054   9.384 -0.9119  0.8241 -0.3394
11867SOL    HW236180   0.301   4.909   9.345  0.2900  0.5602  1.1684
11868SOL     OW36181   2.702   0.218   4.719 -0.4358  0.2278  0.2802
11868SOL    HW136182   2.747   0.144   4.759 -0.6900 -0.4040 -0.5754
11868SOL    HW236183   2.612   0.187   4.704 -0.8817  1.1155  1.0023
11869SOL     OW36184   0.265   5.300   3.805 -0.0180  0.1122  0.8386
11869SOL    HW136185   0.210   5.326   3.731  1.0226  0.8564  0.2902
11869SOL    HW236186   0.351   5.337   3.784 -0.1714  2.2337  3.4401
11870SOL     OW36187   6.788   5.180   3.850 -0.2742 -0.2453  0.4833
11870SOL    HW136188   6.692   5.176   3.846 -0.2217 -1.9478 -2.4083
11870SOL    HW236189   6.816   5.089   3.837  1.6951  0.5562 -1.5053
11871SOL     OW36190   6.801   8.508   9.243 -0.6115  0.9209  0.1533
11871SOL    HW136191   6.806   8.472   9.155  0.1757  1.4148 -0.0053
11871SOL    HW236192   6.781   8.432   9.298  2.6816 -0.1499  0.0422
11872SOL     OW36193   8.573   7.687   7.881 -0.3092  0.0460  0.3071
11872SOL    HW136194   8.581   7.759   7.818  0.7485  1.6785  2.1796
11872SOL    HW236195   8.544   7.613   7.829 -0.4070  1.5431 -1.9215
11873SOL     OW36196   3.956   2.879   5.781  0.0358  0.1122 -0.4028
11873SOL    HW136197   3.992   2.862   5.869  0.5222 -0.8264 -0.7643
11873SOL    HW236198   3.948   2.974   5.776 -2.2205  0.1253  1.5214
11874SOL     OW36199   8.805   7.823   9.909 -0.2832 -0.0816  0.1976
11874SOL    HW136200   8.892   7.788   9.889 -0.0385  0.1348  0.8556
11874SOL    HW236201   8.817   7.874   9.989 -0.8119  0.7928 -0.2573
11875SOL     OW36202   4.665   1.121   9.519 -0.2153 -0.2223  0.5381
11875SOL    HW136203   4.641   1.214   9.512 -1.5187 -0.6830 -3.1963
11875SOL    HW236204   4.745   1.113   9.467 -0.4652 -1.2763  0.2946
11876SOL     OW36205   8.983   7.062   4.732  0.1990 -0.0587  0.5424
11876SOL    HW136206   8.909   7.042   4.676  0.3666  0.4970  0.1161
11876SOL    HW236207   9.007   6.978   4.772 -0.4926 -0.2833  0.4859
11877SOL     OW36208   9.073   1.387   2.659 -0.8315  0.4708  0.3355
11877SOL    HW136209   8.997   1.396   2.602 -0.9295 -1.2100  0.1442
11877SOL    HW236210   9.075   1.294   2.682  1.1543  0.4538  0.3148
11878SOL     OW36211   5.245   6.699   4.780  0.4982 -0.0848  0.5236
11878SOL    HW136212   5.304   6.770   4.755 -1.2591  1.6094  0.8868
11878SOL    HW236213   5.256   6.690   4.875 -1.0671  1.5512  0.9254
11879SOL     OW36214   8.723   3.595   7.498 -0.1230  0.0406 -0.0342
11879SOL    HW136215   8.691   3.541   7.570 -1.6946  0.5323 -0.3262
11879SOL    HW236216   8.785   3.539   7.451 -0.3881 -0.8735  0.6807
11880SOL     OW36217   3.694   0.023   4.935  0.2966 -0.1523 -0.5192
11880SOL    HW136218   3.617   0.033   4.992  2.0857  1.8658  1.7421
11880SOL    HW236219   3.658  -0.012   4.854 -2.8080 -0.6445  0.8937
11881SOL     OW36220   0.548   8.190   3.258 -0.2582  0.6762 -0.0831
11881SOL    HW136221   0.520   8.115   3.312  1.7990 -1.5197 -1.8710
11881SOL    HW236222   0.566   8.259   3.321 -2.4419 -0.1817  1.6386
11882SOL     OW36223   1.035   9.091   0.816  0.3427  0.5794  0.9245
11882SOL    HW136224   1.067   9.141   0.892  1.0530  2.1311 -0.3223
11882SOL    HW236225   1.112   9.082   0.760 -0.1339 -0.6904  0.4511
11883SOL     OW36226   4.548   3.653   4.804  0.0603  0.3685  0.1060
11883SOL    HW136227   4.534   3.701   4.886 -1.7303  0.3330 -0.1238
11883SOL    HW236228   4.550   3.720   4.737 -0.2815  0.2773  0.0026
11884SOL     OW36229   2.738   0.606   5.332  0.0902  0.3893 -0.1339
11884SOL    HW136230   2.692   0.657   5.399 -1.0284  0.0211 -0.5849
11884SOL    HW236231   2.781   0.536   5.381 -0.6890  0.1426  0.2296
11885SOL     OW36232   2.563   0.694   1.815  1.3741  0.0712  1.1803
11885SOL    HW136233   2.475   0.670   1.786  1.5479 -0.2093  0.8888
11885SOL    HW236234   2.549   0.733   1.902  0.9909 -0.2247  1.2554
11886SOL     OW36235   5.648   6.038   0.146  0.5110 -0.1846  0.3327
11886SOL    HW136236   5.692   5.973   0.091  0.3990 -0.5595  0.6863
11886SOL    HW236237   5.682   6.122   0.114  0.6202 -0.4088 -0.1572
11887SOL     OW36238   1.555   7.839   1.082  0.4459  0.4252 -0.5837
11887SOL    HW136239   1.499   7.763   1.069 -0.9844  1.1006  1.2420
11887SOL    HW236240   1.524   7.903   1.019 -0.3134  0.5045 -0.1399
11888SOL     OW36241   2.262   2.888   5.595  0.4864 -0.2575 -0.6251
11888SOL    HW136242   2.219   2.973   5.605 -1.9209 -1.4932  0.3756
11888SOL    HW236243   2.325   2.884   5.666 -1.0316 -0.1554  0.7956
11889SOL     OW36244   8.006   0.911   5.872 -0.2894 -0.7314 -0.2220
11889SOL    HW136245   7.928   0.900   5.818 -0.5209  1.3831 -0.3907
11889SOL    HW236246   8.046   0.992   5.842  1.6591 -1.4243  0.2863
11890SOL     OW36247   3.168   3.566   3.493 -0.4293  0.2201  0.3931
11890SOL    HW136248   3.179   3.586   3.400 -0.8764  0.3900  0.3729
11890SOL    HW236249   3.153   3.652   3.533  1.2409  0.3331  0.8494
11891SOL     OW36250   8.721   5.974   1.958  0.1810  0.3359  0.1350
11891SOL    HW136251   8.704   6.063   1.987 -0.7336  0.2430 -0.0908
11891SOL    HW236252   8.648   5.922   1.993 -0.1044 -0.0508 -0.9859
11892SOL     OW36253   0.009   9.589   8.504  0.3012 -0.2651 -0.1139
11892SOL    HW136254  -0.060   9.641   8.545 -0.6258 -0.7426 -1.0048
11892SOL    HW236255   0.067   9.654   8.464  0.8582  0.1728  1.3658
11893SOL     OW36256   5.432   8.435   6.440 -0.1560 -0.5132  0.2034
11893SOL    HW136257   5.350   8.439   6.490  0.1261 -0.1138  0.6428
11893SOL    HW236258   5.432   8.347   6.401 -0.2908 -0.9259  1.0952
11894SOL     OW36259   1.959   4.571   8.467 -0.4286 -0.3809  0.1687
11894SOL    HW136260   1.887   4.632   8.454  1.3875  2.5557  2.6038
11894SOL    HW236261   1.941   4.530   8.552  0.7010  0.4049  0.8166
11895SOL     OW36262   2.874   9.115   1.184 -0.2740 -0.3426  0.6873
11895SOL    HW136263   2.922   9.177   1.128 -1.9468  0.5585  0.1706
11895SOL    HW236264   2.898   9.029   1.150  2.0421 -0.0412  1.3607
11896SOL     OW36265   8.383   2.669   9.393  0.0251  0.5893  0.6238
11896SOL    HW136266   8.368   2.575   9.395  2.1455  0.1373 -1.5351
11896SOL    HW236267   8.299   2.707   9.420 -1.1574 -1.8738  0.6478
11897SOL     OW36268   2.278   9.037   7.698  0.0036  0.3805  0.3380
11897SOL    HW136269   2.266   8.943   7.685  1.0686  0.3342 -0.4279
11897SOL    HW236270   2.346   9.043   7.766  1.7897  0.5446 -1.3818
11898SOL     OW36271   8.748   8.995   1.035  0.0053  0.6932  0.0106
11898SOL    HW136272   8.717   9.060   1.098  1.9938  0.5538  1.2182
11898SOL    HW236273   8.719   8.911   1.070  2.1303  0.4965  1.5267
11899SOL     OW36274   3.398   9.328   6.127 -0.0155 -0.2279  0.2005
11899SOL    HW136275   3.358   9.244   6.107  0.2070 -0.5081  0.9064
11899SOL    HW236276   3.337   9.370   6.188 -0.8963  0.7955 -1.3135
11900SOL     OW36277   6.782   6.546   1.501  0.0336  0.0063 -0.0373
11900SOL    HW136278   6.844   6.481   1.534  1.2324  1.6677  1.1359
11900SOL    HW236279   6.832   6.595   1.435 -0.6550  0.1748 -0.4514
11901SOL     OW36280   5.471   5.892   1.782  0.4486  0.0039 -0.2393
11901SOL    HW136281   5.396   5.932   1.826 -0.0185  0.7964 -1.6779
11901SOL    HW236282   5.441   5.804   1.758  0.4494 -0.1583  0.3510
11902SOL     OW36283   7.991   8.552   2.635  0.5022  0.2063  0.2414
11902SOL    HW136284   8.026   8.573   2.721 -0.3771 -0.9310  0.9067
11902SOL    HW236285   7.896   8.565   2.645  0.0143 -2.8120  0.3873
11903SOL     OW36286   1.843   5.532   3.770 -0.2658 -0.1666 -0.6848
11903SOL    HW136287   1.823   5.546   3.863  2.0705  1.0464 -0.2945
11903SOL    HW236288   1.860   5.438   3.764  0.2436 -0.1578  0.2922
11904SOL     OW36289   6.837   0.869   3.086  0.0660  0.0348 -0.1130
11904SOL    HW136290   6.764   0.852   3.026 -0.4257  1.5490  0.0159
11904SOL    HW236291   6.915   0.851   3.034 -0.3732 -0.1760 -0.7177
11905SOL     OW36292   6.004   3.277   9.153 -0.4977 -0.1514 -0.3369
11905SOL    HW136293   5.924   3.240   9.191 -0.1748 -0.2927  0.2191
11905SOL    HW236294   6.019   3.225   9.074 -1.0929  0.0412 -0.5855
11906SOL     OW36295   4.782   2.187   2.021 -0.5634 -0.3230  0.1650
11906SOL    HW136296   4.840   2.115   2.048  1.1438  0.6040 -0.8216
11906SOL    HW236297   4.778   2.244   2.097  2.7525  1.3598 -0.7152
11907SOL     OW36298   6.379   4.206   3.627 -0.3116 -0.0333  0.2653
11907SOL    HW136299   6.296   4.235   3.590 -1.0267 -0.2642  1.6707
11907SOL    HW236300   6.391   4.118   3.592 -1.4472 -0.6171  1.3081
11908SOL     OW36301   2.904   7.577   8.448 -0.3349  0.3147 -0.1244
11908SOL    HW136302   2.824   7.524   8.448 -0.1162 -0.0122 -0.1175
11908SOL    HW236303   2.948   7.554   8.529  1.9532 -2.8130 -2.0297
11909SOL     OW36304   5.975   0.710   0.596  0.1965 -0.2765 -0.1672
11909SOL    HW136305   6.053   0.691   0.649 -0.6059 -2.2930  0.4061
11909SOL    HW236306   5.969   0.636   0.536 -1.4636 -0.3763  0.0760
11910SOL     OW36307   5.296   4.427   0.692  0.3775 -0.2804  0.0083
11910SOL    HW136308   5.280   4.500   0.752 -1.1708 -0.9786  0.4932
11910SOL    HW236309   5.371   4.380   0.731  0.8589  0.5692  0.1284
11911SOL     OW36310   7.483   5.110   3.130 -0.1697  0.2482  0.3543
11911SOL    HW136311   7.391   5.116   3.156 -0.1177  1.7211  0.2695
11911SOL    HW236312   7.518   5.037   3.181 -1.8645 -1.7230 -1.1329
11912SOL     OW36313   2.638   2.522   6.116  0.0156  0.2292  0.1506
11912SOL    HW136314   2.551   2.518   6.077  0.2076 -1.7458 -0.1936
11912SOL    HW236315   2.692   2.468   6.057  1.6595  2.0259 -0.0787
11913SOL     OW36316   8.609   3.657   0.288 -0.6500  0.1721 -0.1605
11913SOL    HW136317   8.703   3.664   0.269 -0.8212  0.3000 -0.9754
11913SOL    HW236318   8.591   3.732   0.345 -0.5906  1.1213 -1.3652
11914SOL     OW36319   9.966   9.636   8.213  0.0892 -0.0880 -0.5842
11914SOL    HW136320   9.899   9.702   8.228 -0.6157 -0.9983  0.3961
11914SOL    HW236321   9.924   9.553   8.236  1.5672 -0.6691  0.1139
11915SOL     OW36322   0.099   6.894   2.383 -0.0669  0.3726 -0.2071
11915SOL    HW136323   0.008   6.894   2.351 -0.5353  0.3804  1.0697
11915SOL    HW236324   0.142   6.826   2.331 -0.5433  1.0092 -1.4891
11916SOL     OW36325   7.263   2.820   0.778  0.0198  0.3198 -0.0867
11916SOL    HW136326   7.272   2.801   0.872  2.4732  0.1119 -0.2933
11916SOL    HW236327   7.322   2.894   0.763  0.5326 -0.3725 -1.6455
11917SOL     OW36328   3.727   3.242   7.379 -0.4799  0.6147 -0.1858
11917SOL    HW136329   3.719   3.302   7.305  1.4895  0.5433 -0.5036
11917SOL    HW236330   3.735   3.299   7.456 -0.7004  0.7239 -0.2442
11918SOL     OW36331   0.696   7.797   6.636 -0.1377  0.6765 -0.2577
11918SOL    HW136332   0.710   7.892   6.639  0.5320  0.7059 -2.7014
11918SOL    HW236333   0.601   7.787   6.634 -0.2121  1.3079 -0.1981
11919SOL     OW36334   3.667   6.789   4.370 -0.0255  0.3347  0.0792
11919SOL    HW136335   3.708   6.860   4.321  1.5151 -0.6569 -0.1586
11919SOL    HW236336   3.740   6.746   4.414 -1.0588 -0.4263  1.1110
11920SOL     OW36337   0.597   7.208   7.989 -0.3208  0.3424  0.1634
11920SOL    HW136338   0.578   7.297   8.017 -2.2980  0.0295 -0.0282
11920SOL    HW236339   0.594   7.212   7.893  1.5655  0.4226  0.0596
11921SOL     OW36340   7.254   4.835   6.121  0.3095 -0.3674 -0.1519
11921SOL    HW136341   7.263   4.930   6.120 -1.1606 -0.2101 -0.3092
11921SOL    HW236342   7.344   4.802   6.131  0.6101  1.0678  2.6875
11922SOL     OW36343   7.613   1.161   5.447 -0.0155  0.0165  0.1502
11922SOL    HW136344   7.642   1.252   5.447  0.6967 -0.2069  0.6249
11922SOL    HW236345   7.597   1.141   5.355 -3.0344  1.4957  0.2104
11923SOL     OW36346   0.436   2.860   4.826 -0.4896 -0.2437  0.2362
11923SOL    HW136347   0.393   2.882   4.743 -1.0741  0.4637  0.7139
11923SOL    HW236348   0.411   2.930   4.886  2.3622  0.9415  0.2102
11924SOL     OW36349   6.041   3.085   1.610 -0.3321 -0.0004  0.2342
11924SOL    HW136350   6.041   3.125   1.698  2.7399 -0.6654  0.6649
11924SOL    HW236351   5.982   3.011   1.618  1.1730 -1.0984  2.3717
11925SOL     OW36352   7.271   5.766   4.750 -0.2183 -0.0756 -0.4646
11925SOL    HW136353   7.209   5.816   4.696 -0.7565 -0.1639  0.0576
11925SOL    HW236354   7.255   5.675   4.726 -2.0488 -0.3323  1.3833
11926SOL     OW36355   8.739   3.693   1.644  0.2222  0.6176 -0.6271
11926SOL    HW136356   8.699   3.779   1.659  1.3073  0.7896  1.7412
11926SOL    HW236357   8.776   3.699   1.556 -0.7434  2.1545 -0.9689
11927SOL     OW36358   1.612   2.466   9.168  1.2146 -0.3506 -0.4836
11927SOL    HW136359   1.610   2.370   9.168 -1.8705 -0.3966  0.2209
11927SOL    HW236360   1.593   2.491   9.078  0.0733 -0.4805 -0.2994
11928SOL     OW36361   4.917   6.048   8.986 -0.1659 -0.3185 -0.0605
11928SOL    HW136362   4.980   6.033   9.056 -0.0297  2.1057  0.4205
11928SOL    HW236363   4.890   6.140   8.997 -1.8275 -0.5284 -1.8272
11929SOL     OW36364   1.797   9.240   2.649  0.5586  0.6261 -0.0928
11929SOL    HW136365   1.882   9.214   2.685  0.2927  0.5281  0.4703
11929SOL    HW236366   1.772   9.318   2.698  0.5584  0.9671 -0.6171
11930SOL     OW36367   5.770   7.023   1.803 -0.1890 -0.3364 -0.3803
11930SOL    HW136368   5.816   6.980   1.731 -1.5300 -1.1179 -0.8124
11930SOL    HW236369   5.721   7.094   1.762  0.9475  0.7885  0.1415
11931SOL     OW36370   4.640   5.000   8.639 -0.0388  0.6516 -0.2426
11931SOL    HW136371   4.564   5.008   8.697 -0.6159  0.4993 -0.9615
11931SOL    HW236372   4.665   4.908   8.645  0.7366  0.9133  0.7784
11932SOL     OW36373   9.171   9.373   3.061  0.1617  0.4645  0.3228
11932SOL    HW136374   9.239   9.351   2.998  0.0029 -1.6691  0.8268
11932SOL    HW236375   9.089   9.349   3.017  0.1302 -2.4917  1.7878
11933SOL     OW36376   5.390   3.814   8.488 -0.5669 -0.2994  0.5725
11933SOL    HW136377   5.460   3.801   8.423 -0.7205  0.9561  0.1225
11933SOL    HW236378   5.390   3.734   8.540 -1.2423 -1.9111 -1.7335
11934SOL     OW36379   2.800   2.160   3.334 -0.1302 -0.2470  0.1495
11934SOL    HW136380   2.797   2.108   3.414  0.1062 -0.0788  0.2716
11934SOL    HW236381   2.853   2.236   3.358 -0.5868  0.1170  0.0123
11935SOL     OW36382   6.037   9.613   4.403  0.3422  0.1209 -0.0756
11935SOL    HW136383   6.006   9.591   4.315  0.0300 -1.0568  0.3157
11935SOL    HW236384   6.074   9.701   4.394  0.6784 -0.1467 -1.4671
11936SOL     OW36385   3.095   5.966   2.222  0.7940  0.1824 -0.1026
11936SOL    HW136386   3.156   5.898   2.193 -0.4522 -0.1964 -2.0368
11936SOL    HW236387   3.061   5.934   2.306  0.5151 -1.4272 -0.7890
11937SOL     OW36388   1.199   7.854   3.747 -0.3294 -0.5988  0.2054
11937SOL    HW136389   1.287   7.892   3.743 -0.1011 -1.0731  0.6697
11937SOL    HW236390   1.211   7.768   3.786 -1.1177 -0.3063  1.1567
11938SOL     OW36391   5.798   9.626   0.125  0.1632 -0.0031 -0.4971
11938SOL    HW136392   5.798   9.717   0.095 -0.9922  0.5899  1.1050
11938SOL    HW236393   5.718   9.589   0.089 -0.1508  0.0864  0.0994
11939SOL     OW36394   3.795   7.456   4.948  0.1034  0.1479  0.3384
11939SOL    HW136395   3.856   7.455   5.022  0.7933 -2.5652 -0.1432
11939SOL    HW236396   3.851   7.468   4.871 -0.6444  3.3266  0.1732
11940SOL     OW36397   5.279   2.158   2.865  0.4332 -0.7940 -0.2529
11940SOL    HW136398   5.239   2.076   2.838  0.4645 -1.2946  1.1603
11940SOL    HW236399   5.364   2.133   2.901  1.0868  0.0285 -1.1661
11941SOL     OW36400   2.322   6.117   9.060 -0.3206 -0.2646 -0.3505
11941SOL    HW136401   2.236   6.123   9.018  1.3333  0.3318 -4.0653
11941SOL    HW236402   2.359   6.036   9.024  1.6035  0.8190 -0.8945
11942SOL     OW36403   7.615   2.516   7.709 -0.3332 -0.0011 -0.2518
11942SOL    HW136404   7.537   2.568   7.686 -1.1166 -0.9270  0.2253
11942SOL    HW236405   7.662   2.570   7.771 -1.9598 -0.4537  1.4770
11943SOL     OW36406   4.339   8.654   9.289  0.2106  0.6813  0.0096
11943SOL    HW136407   4.254   8.678   9.326  0.2169  0.4179  0.1979
11943SOL    HW236408   4.318   8.589   9.222  0.4041 -0.7872  1.3213
11944SOL     OW36409   2.487   0.501   2.207  0.5780 -0.5708 -0.3998
11944SOL    HW136410   2.404   0.475   2.167  1.2266  0.4626 -2.5850
11944SOL    HW236411   2.467   0.580   2.257 -0.2688 -1.9340  1.5265
11945SOL     OW36412   6.580   7.122   1.395 -0.3584 -0.3130 -0.0096
11945SOL    HW136413   6.616   7.148   1.479  1.4793 -1.3097 -0.4422
11945SOL    HW236414   6.575   7.026   1.399 -0.4877 -0.3540 -0.9303
11946SOL     OW36415   6.246   5.277   4.274 -0.0604 -0.0469 -0.3587
11946SOL    HW136416   6.314   5.273   4.207  0.4848  0.2538  0.1696
11946SOL    HW236417   6.211   5.188   4.277 -0.0906 -0.0652 -1.0382
11947SOL     OW36418   9.963   0.607   6.481  0.0724 -0.3156  0.1633
11947SOL    HW136419  10.006   0.521   6.479  0.5293 -0.1313  1.3140
11947SOL    HW236420   9.925   0.616   6.393 -0.3222 -1.8608  0.1292
11948SOL     OW36421   6.313   8.202   1.591  0.0985  0.2776  0.4945
11948SOL    HW136422   6.267   8.134   1.640  1.1636  0.3925  1.7248
11948SOL    HW236423   6.380   8.154   1.542  0.0607  0.3254  0.3950
11949SOL     OW36424   1.332   2.097   1.936 -0.3327 -0.2508  0.1496
11949SOL    HW136425   1.274   2.171   1.914  0.7727  0.6018 -0.0222
11949SOL    HW236426   1.332   2.095   2.032 -0.6248 -0.2391  0.1519
11950SOL     OW36427   3.227   0.546   1.553  0.5136  0.6229 -0.2146
11950SOL    HW136428   3.218   0.586   1.466 -0.0976 -0.6918 -0.7767
11950SOL    HW236429   3.297   0.597   1.595  0.8777  1.2344 -1.5034
11951SOL     OW36430   9.063   3.926   1.788 -0.2337 -0.0721 -0.1222
11951SOL    HW136431   9.075   3.848   1.734 -0.5225  1.7042 -3.0017
11951SOL    HW236432   8.969   3.927   1.809  0.0702 -1.3478  1.4744
11952SOL     OW36433   1.187   2.901   0.099 -0.3250  0.1145 -0.4822
11952SOL    HW136434   1.279   2.889   0.076 -0.0654 -0.1251  0.6280
11952SOL    HW236435   1.171   2.994   0.086 -0.1986 -0.0052 -1.5930
11953SOL     OW36436   8.912   3.662   3.313  0.2300 -0.1666 -0.8649
11953SOL    HW136437   9.004   3.639   3.300  0.4202  1.4173 -2.8174
11953SOL    HW236438   8.904   3.676   3.407  1.5390 -1.9730 -0.4275
11954SOL     OW36439   5.531   2.307   6.746 -0.2395 -0.6876  0.2364
11954SOL    HW136440   5.517   2.370   6.676  2.4711 -1.4812 -1.1757
11954SOL    HW236441   5.494   2.225   6.713  0.4440 -0.9048 -0.0148
11955SOL     OW36442   4.908   3.453   8.573 -0.2783 -0.4815  0.6591
11955SOL    HW136443   4.950   3.367   8.574 -0.3687 -0.5241  0.8944
11955SOL    HW236444   4.977   3.514   8.598 -0.0911 -0.4270  0.0248
11956SOL     OW36445   4.437   4.825   0.141 -0.4463 -0.4755 -0.2902
11956SOL    HW136446   4.395   4.851   0.223 -0.8031  1.6684 -1.0821
11956SOL    HW236447   4.512   4.885   0.133 -0.2510 -0.8569 -1.3930
11957SOL     OW36448   9.153   2.633   2.021 -0.1916  0.4160  0.1786
11957SOL    HW136449   9.213   2.604   2.090  0.8661 -0.3459 -1.0284
11957SOL    HW236450   9.093   2.559   2.010  0.3880  0.0407 -0.5339
11958SOL     OW36451   3.898   1.412   5.363 -0.7573 -0.3032 -0.9945
11958SOL    HW136452   3.864   1.410   5.452  0.1599 -1.0598 -0.6410
11958SOL    HW236453   3.840   1.472   5.316 -1.4108 -0.1044  0.0403
11959SOL     OW36454   5.530   0.128   0.362 -0.4845 -0.0925 -0.4802
11959SOL    HW136455   5.507   0.206   0.312 -1.0047 -0.7759 -1.3278
11959SOL    HW236456   5.621   0.109   0.337 -0.0487  0.7411  0.4102
11960SOL     OW36457   5.686   0.491   9.918  0.2927  0.1990  0.2326
11960SOL    HW136458   5.634   0.454   9.847  3.2449  1.1188 -2.6308
11960SOL    HW236459   5.766   0.439   9.920  0.9008  1.1044  1.9319
11961SOL     OW36460   6.925   1.226   9.067 -0.2728 -0.1019  0.1009
11961SOL    HW136461   6.943   1.195   9.156 -1.8385 -0.0461  0.4687
11961SOL    HW236462   6.854   1.169   9.036  1.0318 -0.9158 -1.5901
11962SOL     OW36463   1.049   2.534   3.960 -0.0765 -0.2238 -0.4089
11962SOL    HW136464   1.051   2.471   3.888 -0.9747 -0.7478  0.0101
11962SOL    HW236465   0.962   2.525   3.997  0.0540  0.7176  0.1545
11963SOL     OW36466   9.355   8.276   7.473  0.5886 -0.2533 -0.2611
11963SOL    HW136467   9.415   8.205   7.451  0.1528  0.0362 -2.5693
11963SOL    HW236468   9.277   8.260   7.421 -1.1207 -0.1866  2.1033
11964SOL     OW36469   7.171   9.498   3.078  0.1653  0.2701  0.0576
11964SOL    HW136470   7.168   9.478   3.172 -0.7098  1.2777  0.2691
11964SOL    HW236471   7.094   9.454   3.042  0.8832 -0.6959 -0.3243
11965SOL     OW36472   1.123   3.690   9.632 -0.1073  0.4329  0.0199
11965SOL    HW136473   1.033   3.673   9.662  1.0550 -1.1357  3.0409
11965SOL    HW236474   1.161   3.604   9.620  1.8147  0.9749  1.6717
11966SOL     OW36475   2.806   0.652   7.860 -0.0775  0.6647 -0.3010
11966SOL    HW136476   2.808   0.688   7.949 -3.0820  0.5636 -0.1166
11966SOL    HW236477   2.889   0.604   7.853 -0.5841 -1.0799  3.2124
11967SOL     OW36478   6.956   5.097   7.911 -0.4966  0.0863  0.0618
11967SOL    HW136479   6.934   5.171   7.969  0.6029  1.1955 -0.8738
11967SOL    HW236480   7.051   5.089   7.917 -0.5680 -1.0713 -0.1005
11968SOL     OW36481   8.456   8.906   8.129 -0.0676 -0.3524 -0.4404
11968SOL    HW136482   8.489   8.968   8.065  1.2496 -0.6036 -0.0426
11968SOL    HW236483   8.437   8.959   8.207 -1.9202 -0.0054 -1.0752
11969SOL     OW36484   5.295   8.969   4.937 -0.1815  0.3208 -0.2069
11969SOL    HW136485   5.286   8.922   4.854  0.3390  0.4739 -0.3529
11969SOL    HW236486   5.342   8.909   4.994 -0.3389  0.3032 -0.0963
11970SOL     OW36487   8.386   6.794   0.957  0.0371  0.2502 -0.4053
11970SOL    HW136488   8.396   6.888   0.972  0.0378  0.2058 -0.1304
11970SOL    HW236489   8.341   6.762   1.035  0.0495  0.0191 -0.4926
11971SOL     OW36490   9.554   0.946   0.467  0.4041  0.3547  0.1117
11971SOL    HW136491   9.514   0.878   0.414 -3.5264  1.5423  1.1824
11971SOL    HW236492   9.579   1.014   0.404  0.5355 -0.3759 -0.6311
11972SOL     OW36493   4.552   0.322   5.928  0.5227  0.2029  0.0427
11972SOL    HW136494   4.609   0.265   5.979  0.2272  0.0710  0.2333
11972SOL    HW236495   4.574   0.303   5.837  0.8682  0.2466  0.1156
11973SOL     OW36496   8.863   7.510   0.031  0.0931 -0.1450  0.0330
11973SOL    HW136497   8.922   7.577  -0.004 -0.3717  0.4668  0.4113
11973SOL    HW236498   8.894   7.496   0.121 -1.1660  1.1787  0.7042
11974SOL     OW36499   4.800   5.766   2.479 -0.0639  0.5192 -0.4640
11974SOL    HW136500   4.820   5.822   2.554  1.5344  1.8869 -1.8214
11974SOL    HW236501   4.875   5.708   2.471  0.6971  1.6589 -2.0688
11975SOL     OW36502   1.396   0.228   3.421 -0.8068  0.2141 -0.2946
11975SOL    HW136503   1.415   0.279   3.500 -0.7302 -0.8344  0.3796
11975SOL    HW236504   1.344   0.287   3.367 -0.4049  1.1436  0.2970
11976SOL     OW36505   7.520   1.905   1.338  0.0946 -0.3141  0.7527
11976SOL    HW136506   7.523   2.001   1.341  2.8824 -0.2834  0.2017
11976SOL    HW236507   7.456   1.885   1.270 -0.4805  1.1601  0.8207
11977SOL     OW36508   9.127   7.691   7.159  0.1077 -0.0010 -0.2313
11977SOL    HW136509   9.143   7.768   7.215  0.0700 -0.2470  0.1233
11977SOL    HW236510   9.125   7.618   7.220 -0.9195 -0.1585 -0.4398
11978SOL     OW36511   5.149   0.102   3.258  0.3794 -0.4286 -0.3289
11978SOL    HW136512   5.245   0.112   3.253  0.5452 -1.7504 -0.0122
11978SOL    HW236513   5.115   0.184   3.222  1.6160 -0.5551 -1.8900
11979SOL     OW36514   8.661   0.353   3.538  0.2991  0.0995  0.9902
11979SOL    HW136515   8.720   0.315   3.472  1.5631  0.8797  1.6237
11979SOL    HW236516   8.573   0.337   3.504  0.9164  1.1002 -1.2647
11980SOL     OW36517   6.237   8.365   7.850  0.6981 -0.1091 -0.3825
11980SOL    HW136518   6.247   8.319   7.767 -0.5269 -0.3316 -0.4158
11980SOL    HW236519   6.205   8.452   7.826  0.7911 -0.0124 -0.1641
11981SOL     OW36520   7.044   3.108   9.955 -0.1782  0.0635  0.2490
11981SOL    HW136521   7.075   3.021   9.927 -0.0026  0.5245 -1.0709
11981SOL    HW236522   7.110   3.138  10.017 -0.6562 -1.0704  1.3536
11982SOL     OW36523   5.885   3.374   4.906  0.1510 -0.3622  0.1937
11982SOL    HW136524   5.930   3.292   4.929  1.6765  0.6500  0.9883
11982SOL    HW236525   5.857   3.361   4.816 -1.0469 -2.3414  0.7879
11983SOL     OW36526   6.283   7.797   8.648 -0.2796 -0.6781  0.0769
11983SOL    HW136527   6.230   7.809   8.727 -1.0862 -0.1751 -0.5159
11983SOL    HW236528   6.222   7.814   8.576  0.3982 -1.2846 -0.6604
11984SOL     OW36529   7.622   6.941   7.492 -0.0917  0.1146 -0.2360
11984SOL    HW136530   7.616   7.033   7.465 -0.1545  0.1012 -0.2691
11984SOL    HW236531   7.629   6.944   7.587  0.1140  0.1627 -0.2515
11985SOL     OW36532   9.549   5.963   7.114 -0.7359 -0.2260 -0.0882
11985SOL    HW136533   9.601   5.898   7.067 -0.6418  0.0161 -0.3164
11985SOL    HW236534   9.485   5.911   7.163 -1.7247 -0.4372 -1.5307
11986SOL     OW36535   7.327   0.135   5.391 -0.0926  0.1748  0.4370
11986SOL    HW136536   7.292   0.091   5.469  0.6561 -0.5573  0.3711
11986SOL    HW236537   7.251   0.146   5.334 -0.3811 -0.6096  0.6626
11987SOL     OW36538   2.959   0.843   2.712  0.5333 -0.2459  0.2389
11987SOL    HW136539   2.999   0.918   2.756 -0.0439  0.1276  0.1363
11987SOL    HW236540   2.876   0.830   2.759  0.4250 -0.5352 -0.0341
11988SOL     OW36541   5.551   9.024   0.263 -0.3727 -0.3325  0.2030
11988SOL    HW136542   5.613   9.031   0.336  0.9839 -0.6822 -0.8751
11988SOL    HW236543   5.500   8.945   0.282  0.3064 -0.6994  0.5464
11989SOL     OW36544   3.449   8.451   1.476  0.4553  0.2389  0.1759
11989SOL    HW136545   3.414   8.396   1.546 -0.2421  1.9434  1.2379
11989SOL    HW236546   3.496   8.391   1.419  0.2564 -1.3449  1.6125
11990SOL     OW36547   5.319   3.635   6.040  0.3007  0.3463 -0.0638
11990SOL    HW136548   5.352   3.626   5.951 -0.2287  2.6497 -0.5547
11990SOL    HW236549   5.227   3.659   6.029  0.6907  2.5835  0.9754
11991SOL     OW36550   0.157   1.259   8.499 -0.5249  0.0569  0.4564
11991SOL    HW136551   0.091   1.234   8.435 -1.2027 -1.0010  1.5157
11991SOL    HW236552   0.219   1.186   8.500 -0.3379  0.2149  0.7590
11992SOL     OW36553   7.411   5.563   7.616 -0.2330  0.5387 -0.1867
11992SOL    HW136554   7.489   5.574   7.671  1.0312 -0.5225 -1.6433
11992SOL    HW236555   7.402   5.647   7.571  1.7568 -0.1054 -1.9733
11993SOL     OW36556   4.523   6.281   5.148 -0.1230 -0.3847 -0.2945
11993SOL    HW136557   4.617   6.268   5.137  0.1881  0.9015  0.6696
11993SOL    HW236558   4.508   6.269   5.242 -0.8706 -0.2548 -0.3921
11994SOL     OW36559   1.218   9.917   6.068  0.5023  0.3884 -0.3614
11994SOL    HW136560   1.249   9.998   6.027 -0.2527  0.2926 -1.1592
11994SOL    HW236561   1.214   9.853   5.996 -1.5082  0.4074 -0.3473
11995SOL     OW36562   5.203   7.579   8.344 -0.1430 -0.0835  0.4707
11995SOL    HW136563   5.117   7.622   8.337 -0.9916 -1.4547  1.8469
11995SOL    HW236564   5.182   7.487   8.358  1.5895 -0.4991  0.5006
11996SOL     OW36565   5.074   3.094   0.746 -0.0016  0.1814 -0.2511
11996SOL    HW136566   5.125   3.026   0.702 -1.1776 -0.9869  0.1072
11996SOL    HW236567   5.022   3.046   0.811 -1.2318  1.3550 -0.3284
11997SOL     OW36568   1.650   0.329   9.734  0.7066 -0.0311  0.8050
11997SOL    HW136569   1.644   0.353   9.827  0.4443 -0.2492  0.8481
11997SOL    HW236570   1.626   0.237   9.732  0.1700  0.1104  0.4564
11998SOL     OW36571   1.935   1.124   2.614 -0.1397  0.2150  0.1376
11998SOL    HW136572   2.026   1.093   2.605  0.8132  2.3340  1.7233
11998SOL    HW236573   1.940   1.217   2.594 -1.7476  0.6077  1.3905
11999SOL     OW36574   2.686   9.556   6.942 -0.0164 -0.3792 -0.2925
11999SOL    HW136575   2.692   9.480   6.884  0.6326 -1.9693  1.7507
11999SOL    HW236576   2.650   9.625   6.886  1.9321 -1.3518 -2.9946
12000SOL     OW36577   8.083   5.512   1.174  0.2561  0.0867  0.8500
12000SOL    HW136578   8.003   5.504   1.122  1.0502 -1.1969 -0.2123
12000SOL    HW236579   8.057   5.483   1.262 -0.4797 -0.1581  0.5616
12001SOL     OW36580   9.867   2.176   9.170 -0.1982  0.1921  0.1065
12001SOL    HW136581   9.882   2.250   9.112  0.7442  0.4160  0.6110
12001SOL    HW236582   9.922   2.106   9.135  0.4717  0.3672  0.7799
12002SOL     OW36583   3.363   6.680   4.431  0.5690 -0.0828  0.1139
12002SOL    HW136584   3.438   6.739   4.438  0.4372  0.0391  0.5258
12002SOL    HW236585   3.372   6.620   4.505 -0.1993  0.4724  0.6777
12003SOL     OW36586   2.048   7.507   3.048  0.2072  0.2274 -0.0531
12003SOL    HW136587   2.143   7.512   3.040  0.5400 -2.2606  1.0321
12003SOL    HW236588   2.034   7.471   3.136 -1.7212  0.1909 -0.3287
12004SOL     OW36589   8.934   0.552   9.722 -0.2527  0.1195  0.2340
12004SOL    HW136590   8.897   0.507   9.798 -2.5030 -1.0665 -1.4482
12004SOL    HW236591   8.993   0.487   9.683 -1.5452 -0.5232 -0.7498
12005SOL     OW36592   7.817   5.047   7.146 -0.1913 -0.1466  0.0955
12005SOL    HW136593   7.791   5.074   7.058 -2.6676 -3.3898 -0.3677
12005SOL    HW236594   7.752   4.982   7.171  2.3238 -1.8379  2.9766
12006SOL     OW36595   3.775   2.847   4.980  0.0404  0.4639  0.2877
12006SOL    HW136596   3.727   2.765   4.987 -1.0618  1.1764  1.2949
12006SOL    HW236597   3.856   2.831   5.028 -0.1058 -0.0630  0.3644
12007SOL     OW36598   1.567   3.067   2.635  0.4075  0.8209  0.0885
12007SOL    HW136599   1.519   3.119   2.700  1.5767  1.1004  0.7566
12007SOL    HW236600   1.589   3.129   2.566 -0.0201  0.7391 -0.1195
12008SOL     OW36601   9.555   9.652   8.079  0.3359 -0.4014 -0.3018
12008SOL    HW136602   9.511   9.676   8.161  0.2031  0.3736 -0.5990
12008SOL    HW236603   9.537   9.558   8.070 -0.8393 -0.2087 -0.1541
12009SOL     OW36604   0.154   7.443   4.870  0.0894 -0.6285 -0.1848
12009SOL    HW136605   0.208   7.408   4.941  1.0620  0.6301 -0.2835
12009SOL    HW236606   0.200   7.417   4.790  0.5442  0.4083 -0.2706
12010SOL     OW36607   9.568   0.750   4.090  0.0351 -0.0927 -0.2912
12010SOL    HW136608   9.520   0.833   4.091  1.6773  0.9643  1.9119
12010SOL    HW236609   9.522   0.696   4.026 -1.0228  2.5445 -1.9495
12011SOL     OW36610   5.990   6.470   7.181  0.5917  0.5780  0.1406
12011SOL    HW136611   5.956   6.428   7.101 -0.2367  1.4289  0.0295
12011SOL    HW236612   6.081   6.440   7.187  0.3987 -0.2081 -0.6292
12012SOL     OW36613   9.573   8.301   5.511 -0.2975  0.7760  0.4674
12012SOL    HW136614   9.600   8.358   5.583 -1.6015  0.2110  1.4344
12012SOL    HW236615   9.485   8.272   5.535  0.6112 -2.2792  0.4256
12013SOL     OW36616   3.985   0.663   0.701 -0.2617 -0.7811 -0.4281
12013SOL    HW136617   4.029   0.634   0.781 -1.0118  0.0743  0.3345
12013SOL    HW236618   3.957   0.583   0.658  3.5341 -1.4924 -1.9225
12014SOL     OW36619   6.121   6.246   0.929 -0.2135 -0.3329  0.0988
12014SOL    HW136620   6.095   6.333   0.956  1.2189  0.2621 -0.3463
12014SOL    HW236621   6.205   6.231   0.973  0.3620 -0.8015 -1.1057
12015SOL     OW36622   4.109   5.856   5.036  0.2445 -0.0628 -0.1483
12015SOL    HW136623   4.072   5.869   4.949 -0.1181 -0.6401 -0.0894
12015SOL    HW236624   4.133   5.763   5.038 -0.9362 -0.3719  0.8072
12016SOL     OW36625   0.223   1.558   6.429 -0.9127 -0.1803 -0.0698
12016SOL    HW136626   0.242   1.490   6.364 -1.2879  1.5468 -2.0901
12016SOL    HW236627   0.137   1.591   6.406 -0.8747  0.7872  1.0552
12017SOL     OW36628   8.908   5.094   3.859 -0.3111  0.4631 -0.3598
12017SOL    HW136629   8.905   5.006   3.822  2.1019 -1.2561  2.9679
12017SOL    HW236630   8.957   5.145   3.795 -1.4323 -0.6713 -2.2043
12018SOL     OW36631   1.748   0.747   5.720 -0.2983 -0.1971 -0.6554
12018SOL    HW136632   1.708   0.817   5.667  1.1698  0.9748 -0.3079
12018SOL    HW236633   1.723   0.768   5.810 -1.1437 -1.0438 -0.6818
12019SOL     OW36634   2.833   4.570   0.991  0.1742 -0.2816 -0.1173
12019SOL    HW136635   2.926   4.593   0.997 -0.1853  1.2053  0.0285
12019SOL    HW236636   2.833   4.474   0.987  1.7765 -0.2646 -1.4932
12020SOL     OW36637   1.326   3.394   0.370 -0.1211 -0.0854  0.4874
12020SOL    HW136638   1.340   3.489   0.366  0.0903 -0.1450 -0.8173
12020SOL    HW236639   1.327   3.373   0.463 -0.8898  1.2933  0.8333
12021SOL     OW36640   6.815   6.262   8.918 -0.3225  0.1036 -0.1677
12021SOL    HW136641   6.895   6.305   8.888  1.4117 -1.4805  1.8487
12021SOL    HW236642   6.747   6.328   8.908  1.2372  1.5763 -1.8155
12022SOL     OW36643   4.304   3.931   0.729 -0.1873  0.0914 -0.0155
12022SOL    HW136644   4.325   3.885   0.648  0.3469 -0.3919  0.3940
12022SOL    HW236645   4.374   3.907   0.789 -1.4246 -0.8441  1.1004
12023SOL     OW36646   1.307   7.413   3.624 -0.4130  0.1708  0.1364
12023SOL    HW136647   1.272   7.349   3.561  0.5606 -0.3228  0.0735
12023SOL    HW236648   1.255   7.492   3.610 -1.4977 -0.5405  0.0646
12024SOL     OW36649   0.409   7.484   7.649  0.0663  1.1353 -0.0580
12024SOL    HW136650   0.379   7.483   7.558  0.5019 -2.4131 -0.3030
12024SOL    HW236651   0.488   7.538   7.647  0.0835  1.0978 -1.8011
12025SOL     OW36652   4.000   1.908   4.014 -0.2202  0.4200 -0.0524
12025SOL    HW136653   3.929   1.942   4.069  0.2783  1.0341  0.2281
12025SOL    HW236654   3.996   1.813   4.025 -2.5240  0.2079 -1.9262
12026SOL     OW36655   4.638   7.041   3.139  0.7311 -0.2784 -0.0424
12026SOL    HW136656   4.599   7.071   3.221  0.3052 -1.5407  0.2464
12026SOL    HW236657   4.732   7.037   3.156  0.7062  0.0634  0.1758
12027SOL     OW36658   3.040   4.315   2.711  1.0569  0.2610 -0.4752
12027SOL    HW136659   2.948   4.307   2.686  0.2906 -2.3188  2.4720
12027SOL    HW236660   3.058   4.409   2.706 -1.6733  0.8466 -1.3269
12028SOL     OW36661   1.161   1.565   7.031 -0.0596 -0.5891 -0.5443
12028SOL    HW136662   1.112   1.519   7.099 -1.0061  1.4096  0.2018
12028SOL    HW236663   1.222   1.620   7.079  0.2722 -0.2288 -1.3684
12029SOL     OW36664   4.101   1.179   4.433 -0.3628  0.5387  0.3824
12029SOL    HW136665   4.126   1.245   4.498 -1.1848  1.4189 -0.1667
12029SOL    HW236666   4.160   1.193   4.360 -1.9706  2.2589 -0.6907
12030SOL     OW36667   7.204   6.786   1.013 -0.2726  0.5845  0.5941
12030SOL    HW136668   7.294   6.754   1.009 -0.8567 -1.1510  0.6427
12030SOL    HW236669   7.199   6.852   0.945  0.8749  0.2770  0.1915
12031SOL     OW36670   1.120   4.112   4.119 -0.1477 -0.2165  0.1660
12031SOL    HW136671   1.189   4.071   4.066 -1.3680 -1.6572 -0.3985
12031SOL    HW236672   1.112   4.055   4.196 -0.2055  0.3694  0.6035
12032SOL     OW36673   3.422   5.109   1.004 -0.0378  0.1823  0.5710
12032SOL    HW136674   3.413   5.053   0.927  0.1302  0.8636  0.0478
12032SOL    HW236675   3.434   5.197   0.969  0.3181  0.4657  1.3693
12033SOL     OW36676   5.052   3.718   4.282 -0.6139  0.6008  0.0993
12033SOL    HW136677   5.042   3.813   4.273 -0.9354  0.5147 -0.4902
12033SOL    HW236678   4.963   3.684   4.284 -0.4988  0.2304 -0.6354
12034SOL     OW36679   0.450   8.849   9.132  0.1294  0.2400  0.3182
12034SOL    HW136680   0.463   8.867   9.039  1.5353 -2.3871 -0.1032
12034SOL    HW236681   0.539   8.833   9.165 -0.4380  0.2007  1.8945
12035SOL     OW36682   0.069   5.229   6.561  0.0005  0.2098  0.2537
12035SOL    HW136683   0.014   5.269   6.494  1.0501  2.4197  0.6325
12035SOL    HW236684   0.145   5.195   6.513  1.3263  2.8266  0.3320
12036SOL     OW36685   8.535   5.583   2.685 -0.3301  0.0357 -0.3432
12036SOL    HW136686   8.567   5.539   2.763  0.2268 -1.6904 -1.4936
12036SOL    HW236687   8.603   5.567   2.619 -0.1558  2.5468 -0.8712
12037SOL     OW36688   6.433   1.211   5.737 -0.1903  0.1832  0.1653
12037SOL    HW136689   6.414   1.305   5.743  1.6446  0.5626  0.6994
12037SOL    HW236690   6.438   1.193   5.643  0.3962  0.8534  0.0598
12038SOL     OW36691   7.831   2.461   0.485  0.0932 -0.0580  0.2930
12038SOL    HW136692   7.896   2.396   0.458  2.1360  2.3958 -1.1635
12038SOL    HW236693   7.787   2.486   0.404 -0.5871  0.4628  0.8079
12039SOL     OW36694   8.182   7.975   2.591  0.3498  0.0860 -0.1753
12039SOL    HW136695   8.087   7.982   2.593  0.3561  0.1855 -0.1807
12039SOL    HW236696   8.200   7.899   2.535  0.2793  0.2124 -0.3727
12040SOL     OW36697   8.220   8.753   0.808 -0.1761 -0.0566  0.0978
12040SOL    HW136698   8.204   8.711   0.892 -2.0083 -0.1220 -0.2457
12040SOL    HW236699   8.308   8.726   0.784  0.7616  0.6747  2.3915
12041SOL     OW36700   9.127   9.076   2.433 -0.2416 -0.9475 -0.0183
12041SOL    HW136701   9.118   9.131   2.355 -1.4529 -0.1577  0.6405
12041SOL    HW236702   9.197   9.118   2.484 -0.7947 -0.2989  0.2290
12042SOL     OW36703   9.510   4.756   5.805 -0.5370  0.0094  0.3304
12042SOL    HW136704   9.596   4.734   5.840 -0.5305 -1.0114 -0.2967
12042SOL    HW236705   9.453   4.759   5.881  0.1707  1.3945  0.8455
12043SOL     OW36706   1.373   9.507   0.193 -0.1494 -0.4787 -0.3922
12043SOL    HW136707   1.444   9.534   0.251  1.3379 -2.1243 -1.3568
12043SOL    HW236708   1.412   9.510   0.105 -1.1284 -1.8800 -0.8975
12044SOL     OW36709   0.989   3.325   1.565  1.1050 -0.6248  0.1283
12044SOL    HW136710   0.985   3.408   1.613 -0.0158 -0.1457 -0.7755
12044SOL    HW236711   1.015   3.261   1.632  2.0214  0.4333  0.8347
12045SOL     OW36712   8.121   9.676   7.159  0.0766  0.8036  0.5419
12045SOL    HW136713   8.159   9.595   7.124 -0.5754  0.2574  1.0794
12045SOL    HW236714   8.056   9.701   7.094  0.6336  1.1879  0.1207
12046SOL     OW36715   7.725   5.139   4.820 -0.0789  0.3598  0.5353
12046SOL    HW136716   7.646   5.180   4.853  0.3225  1.4400  0.2018
12046SOL    HW236717   7.697   5.053   4.791 -0.7355 -0.0534  2.2606
12047SOL     OW36718   1.063   1.249   9.382  0.7805 -0.1624 -0.8308
12047SOL    HW136719   0.995   1.309   9.412  0.7453 -0.8532  0.5624
12047SOL    HW236720   1.026   1.162   9.394  2.5638 -0.6716  1.9041
12048SOL     OW36721   1.321   3.871   7.604 -0.6534 -0.2806 -0.3692
12048SOL    HW136722   1.237   3.917   7.598 -0.0349  0.8035 -1.0565
12048SOL    HW236723   1.349   3.860   7.513  0.2550 -0.0287 -0.1352
12049SOL     OW36724   1.521   8.645   9.307  0.2039 -0.0755  0.1862
12049SOL    HW136725   1.498   8.637   9.214  1.5702  1.0339 -0.2751
12049SOL    HW236726   1.442   8.616   9.353 -0.5639 -0.4871 -1.3136
12050SOL     OW36727   4.577   2.517   3.783 -0.0319 -0.2702 -0.5702
12050SOL    HW136728   4.533   2.431   3.784  0.7841 -0.9213  4.1679
12050SOL    HW236729   4.506   2.580   3.772 -1.1270 -1.4615 -0.5836
12051SOL     OW36730   7.908   3.107   8.428 -0.0164  0.1613 -0.4348
12051SOL    HW136731   7.929   3.181   8.372  0.4118 -0.2862 -0.8737
12051SOL    HW236732   7.929   3.138   8.517 -0.7032  0.8705 -0.5074
12052SOL     OW36733   8.236   2.039   5.332 -0.7188 -0.3748  0.4598
12052SOL    HW136734   8.247   2.134   5.321 -1.8147 -0.2079  0.6956
12052SOL    HW236735   8.324   2.008   5.355 -0.6392  0.8303  2.0197
12053SOL     OW36736   0.220   3.592   6.172  0.5891 -0.5473  0.2385
12053SOL    HW136737   0.220   3.559   6.082 -3.5892 -0.5914  0.0678
12053SOL    HW236738   0.270   3.527   6.222  1.2070 -1.6305 -1.7046
12054SOL     OW36739   4.670   9.175   7.648  0.5067 -0.1119 -0.2294
12054SOL    HW136740   4.763   9.197   7.644  1.0624 -1.8506  1.4951
12054SOL    HW236741   4.626   9.247   7.603  2.5652  1.4242  0.0750
12055SOL     OW36742   6.888   9.571   8.624 -0.2322  0.1103  0.0151
12055SOL    HW136743   6.857   9.583   8.714 -1.2780  0.7277 -0.4055
12055SOL    HW236744   6.819   9.520   8.582  0.0782  0.1322 -0.5258
12056SOL     OW36745   4.181   4.853   2.322  0.1946  0.9127  0.3100
12056SOL    HW136746   4.192   4.848   2.227  0.7585  0.0790  0.4094
12056SOL    HW236747   4.225   4.934   2.348 -1.0480  1.8228 -0.2686
12057SOL     OW36748   8.769   8.270   9.755  0.0596  0.3673 -0.2132
12057SOL    HW136749   8.746   8.178   9.748 -2.4817  0.9377 -0.2645
12057SOL    HW236750   8.717   8.303   9.828  1.0507  1.7404 -0.0706
12058SOL     OW36751   2.849   4.479   1.944  0.0612  0.6184  0.3126
12058SOL    HW136752   2.928   4.508   1.989  0.0084 -0.3018  1.0315
12058SOL    HW236753   2.868   4.390   1.916 -1.1303 -0.0753  1.5930
12059SOL     OW36754   9.061   5.018   0.806  0.0032  0.1331  0.4374
12059SOL    HW136755   9.141   5.001   0.756  0.2640 -0.0855  0.9260
12059SOL    HW236756   8.999   5.049   0.740  0.0333 -1.0887 -0.1867
12060SOL     OW36757   2.070   6.146   2.235 -0.1318  0.0826 -1.0361
12060SOL    HW136758   2.130   6.207   2.191  1.6355  0.7959  2.0987
12060SOL    HW236759   2.014   6.201   2.289 -0.8061 -0.8794 -0.7213
12061SOL     OW36760   8.361   3.886   6.597  0.2760  0.3373  0.3498
12061SOL    HW136761   8.350   3.967   6.548  3.9141  1.1215  0.5773
12061SOL    HW236762   8.351   3.911   6.689 -0.1346  0.1638  0.3581
12062SOL     OW36763   2.624   0.927   8.601  0.1207  0.3484  0.1199
12062SOL    HW136764   2.633   0.856   8.664 -0.6001  1.1060  1.1252
12062SOL    HW236765   2.671   1.000   8.640 -0.6185  0.9276 -0.0401
12063SOL     OW36766   5.992   1.239   4.431 -0.0240 -0.3976  0.3527
12063SOL    HW136767   5.934   1.259   4.505  0.4311 -1.2792  0.9654
12063SOL    HW236768   5.996   1.320   4.381 -2.9777 -0.6929 -0.5676
12064SOL     OW36769   9.259   6.588   9.104  0.2210  0.3074 -0.7194
12064SOL    HW136770   9.172   6.548   9.105  0.0080  0.7579 -0.6207
12064SOL    HW236771   9.272   6.619   9.193  0.7515 -0.3109 -0.5758
12065SOL     OW36772   1.551   6.973   7.412  0.0878 -0.1288 -0.0262
12065SOL    HW136773   1.617   7.043   7.418  0.6440 -0.4733 -1.5565
12065SOL    HW236774   1.512   6.969   7.499  2.0564  0.1396  0.9342
12066SOL     OW36775   1.824   0.110   4.402  0.3219 -0.0358  0.0755
12066SOL    HW136776   1.772   0.102   4.322  0.5162  0.1086 -0.0646
12066SOL    HW236777   1.897   0.049   4.390 -0.0119 -0.5226  0.4332
12067SOL     OW36778   0.640   6.188   5.614  0.3922 -0.2495  0.2270
12067SOL    HW136779   0.705   6.200   5.544 -1.0060 -0.4886 -1.1808
12067SOL    HW236780   0.565   6.147   5.570 -0.8029  0.2116  1.7438
12068SOL     OW36781   3.566   2.452   2.250  0.2717  0.0355 -0.6103
12068SOL    HW136782   3.494   2.514   2.239 -0.0179 -0.0166  0.8455
12068SOL    HW236783   3.524   2.367   2.262  0.6667 -0.4759 -2.5267
12069SOL     OW36784   6.201   8.754   6.914  0.3216  0.0001  0.4261
12069SOL    HW136785   6.205   8.846   6.939 -0.2749  0.8000 -2.0739
12069SOL    HW236786   6.109   8.729   6.929  0.6560 -0.4580  1.8354
12070SOL     OW36787   3.646   5.310   7.508 -0.2191 -0.0023  0.0078
12070SOL    HW136788   3.626   5.247   7.577  0.2402  0.4671  0.5757
12070SOL    HW236789   3.591   5.283   7.435  0.6774 -1.6780 -0.1181
12071SOL     OW36790   6.602   7.253   7.775 -0.6061 -0.0194  0.2388
12071SOL    HW136791   6.691   7.217   7.781 -0.5012  0.4129  1.7443
12071SOL    HW236792   6.570   7.223   7.690  0.8843 -0.3987 -0.2277
12072SOL     OW36793   3.250   4.914   8.767  0.0426 -0.0851 -0.3647
12072SOL    HW136794   3.274   4.921   8.859 -0.5669  1.6959 -0.3037
12072SOL    HW236795   3.186   4.843   8.764 -1.4491  1.1405  0.9439
12073SOL     OW36796   8.280   0.980   6.755  0.5653 -0.0885 -0.4122
12073SOL    HW136797   8.263   0.895   6.714  0.1196  0.5680 -1.6481
12073SOL    HW236798   8.196   1.006   6.793  0.6088 -0.0388 -0.3498
12074SOL     OW36799   1.278   9.196   1.571 -0.0315 -0.4420  0.3838
12074SOL    HW136800   1.188   9.208   1.600  0.2344  1.4903  0.5708
12074SOL    HW236801   1.327   9.176   1.651 -0.3115 -1.7791  0.2415
12075SOL     OW36802   8.391   3.734   1.824  0.4336 -0.1950 -0.1874
12075SOL    HW136803   8.309   3.759   1.866  1.0159  2.3842 -0.4052
12075SOL    HW236804   8.456   3.795   1.860  1.4130  0.6170 -3.0178
12076SOL     OW36805   2.851   4.062   4.840  0.0676  0.0270 -0.3264
12076SOL    HW136806   2.797   4.116   4.898 -0.0304  0.2044 -0.5803
12076SOL    HW236807   2.924   4.034   4.894  0.1557  0.4764 -0.2123
12077SOL     OW36808   1.672   2.410   4.423  0.4107 -0.2217  0.1358
12077SOL    HW136809   1.633   2.323   4.432  0.0770 -0.0293  0.5835
12077SOL    HW236810   1.765   2.396   4.442  0.3135 -0.4351  0.4638
12078SOL     OW36811   3.455   6.880   1.951  0.1296  0.1803  0.1847
12078SOL    HW136812   3.392   6.815   1.919  0.2378  0.7404 -1.2486
12078SOL    HW236813   3.409   6.924   2.023  0.2067 -1.7221  1.4893
12079SOL     OW36814   8.188   7.065   3.533  0.3386  0.2014 -0.6584
12079SOL    HW136815   8.110   7.021   3.564  1.5253 -0.5955  1.3638
12079SOL    HW236816   8.233   6.999   3.480  0.3140  0.2106 -0.6912
12080SOL     OW36817   7.115   9.327   6.254 -0.3524  0.4438  0.2119
12080SOL    HW136818   7.185   9.353   6.193 -1.1214  1.3645 -0.2961
12080SOL    HW236819   7.119   9.231   6.254 -0.7567  0.3812 -1.8229
12081SOL     OW36820   6.176   4.709  -0.009  0.2629  0.4665  0.5344
12081SOL    HW136821   6.230   4.642   0.032  0.8648 -0.9874 -2.3649
12081SOL    HW236822   6.086   4.680   0.005  0.4900 -0.5133  0.0124
12082SOL     OW36823   3.575   2.269   7.936  0.0623 -0.5034 -0.4085
12082SOL    HW136824   3.620   2.347   7.904  2.0102 -0.9702  0.9845
12082SOL    HW236825   3.609   2.198   7.882  1.3054 -0.8997  0.8255
12083SOL     OW36826   8.485   4.562   9.037  0.2945 -0.1338  0.0876
12083SOL    HW136827   8.483   4.468   9.057  0.4205 -0.7955 -2.6252
12083SOL    HW236828   8.573   4.590   9.064  1.6076 -1.6774 -2.2552
12084SOL     OW36829   7.160   1.729   8.667  0.3626 -0.0988 -0.2524
12084SOL    HW136830   7.238   1.681   8.692 -0.4199 -1.2336  0.0829
12084SOL    HW236831   7.123   1.680   8.594 -1.1208 -0.7555  0.8900
12085SOL     OW36832   6.886   0.207   5.508 -0.2981 -0.4572  0.3712
12085SOL    HW136833   6.791   0.193   5.509 -0.7142  1.7155 -1.1255
12085SOL    HW236834   6.908   0.227   5.599 -1.3663 -0.5480  0.6685
12086SOL     OW36835   7.568   5.970   0.583 -0.0099 -0.3228 -0.1218
12086SOL    HW136836   7.574   5.874   0.580  1.3103 -0.2406 -0.9148
12086SOL    HW236837   7.658   5.999   0.592 -0.3605  0.8781 -0.3613
12087SOL     OW36838   8.775   7.640   8.319  0.0062 -0.4731 -0.3062
12087SOL    HW136839   8.726   7.615   8.397 -0.5955  0.1119 -0.4876
12087SOL    HW236840   8.711   7.634   8.247  0.4149 -0.5120 -0.6728
12088SOL     OW36841   9.423   6.075   9.626  0.0100 -1.0407 -0.7980
12088SOL    HW136842   9.402   5.984   9.647 -0.1062 -0.5164  1.6463
12088SOL    HW236843   9.343   6.110   9.587 -0.2232 -1.7519 -0.9732
12089SOL     OW36844   8.516   9.015   5.878  0.5726  0.2504  0.4759
12089SOL    HW136845   8.453   8.944   5.872 -0.2137  0.7384  2.1736
12089SOL    HW236846   8.494   9.074   5.806 -0.1905 -0.1317  0.3906
12090SOL     OW36847   5.023   2.649   8.895  0.1191  0.4344  0.3942
12090SOL    HW136848   4.981   2.563   8.903  0.3500  0.1635 -0.9918
12090SOL    HW236849   5.011   2.690   8.981 -2.2685  0.0576  0.3092
12091SOL     OW36850   9.523   7.081   5.504  0.0835  0.1424 -0.0393
12091SOL    HW136851   9.596   7.062   5.563  0.2169  0.6919 -0.0168
12091SOL    HW236852   9.527   7.012   5.438  0.2915 -0.1416  0.2663
12092SOL     OW36853   5.160   6.352   7.490  0.8002  0.4154 -0.2482
12092SOL    HW136854   5.212   6.432   7.495 -0.6557  1.3336  1.0794
12092SOL    HW236855   5.190   6.299   7.564 -0.6089  1.2761  0.9840
12093SOL     OW36856   8.407   9.314   0.190  0.0829 -0.3612 -0.2984
12093SOL    HW136857   8.420   9.231   0.143 -1.0237 -0.3123 -0.7270
12093SOL    HW236858   8.346   9.292   0.261  0.1917 -0.0173 -0.0947
12094SOL     OW36859   7.561   3.543   7.054 -0.0365  0.1923 -0.1619
12094SOL    HW136860   7.494   3.539   6.986  0.7237 -0.4072 -0.8928
12094SOL    HW236861   7.538   3.472   7.114  1.0794 -1.3655 -1.5086
12095SOL     OW36862   9.207   7.800   5.512  0.7508  0.0239  0.1926
12095SOL    HW136863   9.149   7.869   5.480  1.7525  1.9263  2.2329
12095SOL    HW236864   9.236   7.754   5.433 -2.3925 -0.1423 -0.9912
12096SOL     OW36865   7.859   2.981   9.611 -0.1225 -0.1874 -0.4341
12096SOL    HW136866   7.866   2.902   9.665 -0.9687 -1.3153 -1.8811
12096SOL    HW236867   7.765   2.998   9.605 -0.1584 -0.7542 -2.3819
12097SOL     OW36868   2.030   8.592   6.421 -0.1209  0.4222 -0.0578
12097SOL    HW136869   2.031   8.573   6.515  1.4647  1.7744  0.2443
12097SOL    HW236870   1.993   8.513   6.381 -1.4375  0.0803  1.7301
12098SOL     OW36871   7.305   0.281   4.012 -0.3580 -0.0216  0.2869
12098SOL    HW136872   7.279   0.313   3.925  1.1003 -2.0465 -0.9794
12098SOL    HW236873   7.371   0.343   4.041 -0.9398  0.7439  0.0134
12099SOL     OW36874   0.655   6.115   0.505 -1.2063  0.1864  0.4812
12099SOL    HW136875   0.604   6.137   0.583 -3.3382  0.9005 -1.0115
12099SOL    HW236876   0.589   6.085   0.442  0.3235  0.4894 -1.3467
12100SOL     OW36877   8.890   3.636   7.051 -0.7350  0.0366  0.1238
12100SOL    HW136878   8.866   3.709   6.995  1.1949  0.3111 -0.4060
12100SOL    HW236879   8.895   3.673   7.139 -0.0422  0.4961 -0.1028
12101SOL     OW36880   2.226   8.640   3.947 -0.3061 -0.7220  0.8580
12101SOL    HW136881   2.285   8.565   3.956  0.0419 -0.4704  0.6955
12101SOL    HW236882   2.278   8.706   3.903 -1.6303 -1.5987 -2.3604
12102SOL     OW36883   9.097   7.694   3.297  0.1464  0.3421  0.0227
12102SOL    HW136884   9.011   7.734   3.296 -1.1128 -2.0481  1.7830
12102SOL    HW236885   9.118   7.679   3.205 -1.2840  0.9755 -0.4357
12103SOL     OW36886   4.553   8.122   8.540  0.2635  0.2867  0.2646
12103SOL    HW136887   4.581   8.197   8.593 -1.4275  1.0194  0.1884
12103SOL    HW236888   4.492   8.074   8.596  0.0261 -0.0716 -0.2906
12104SOL     OW36889   3.300   3.435   2.094  0.1203 -0.1720 -0.2979
12104SOL    HW136890   3.354   3.414   2.170  0.1332 -1.7522 -0.7206
12104SOL    HW236891   3.215   3.395   2.113  0.0932 -0.5018 -1.0719
12105SOL     OW36892   0.535   4.694   9.680 -0.3330 -0.0949 -0.3928
12105SOL    HW136893   0.622   4.732   9.695 -0.5959  0.9042 -1.2985
12105SOL    HW236894   0.474   4.760   9.714 -0.7649 -1.7684  2.4418
12106SOL     OW36895   4.083   9.846   0.052  0.0032  0.1145 -0.8399
12106SOL    HW136896   4.172   9.866   0.081 -0.0518 -0.9571  0.1452
12106SOL    HW236897   4.091   9.760   0.009 -0.6606 -0.3342 -0.0979
12107SOL     OW36898   5.537   6.703   5.177  0.0595 -0.1452 -0.6449
12107SOL    HW136899   5.553   6.639   5.108 -0.6096  2.0947 -3.0526
12107SOL    HW236900   5.446   6.687   5.203  0.1265 -0.6419 -0.7101
12108SOL     OW36901   6.685   9.754   2.830  0.4045  0.6128  0.2479
12108SOL    HW136902   6.738   9.681   2.860  1.4921  0.6462 -1.4646
12108SOL    HW236903   6.622   9.769   2.901 -1.5149 -3.5298 -0.3027
12109SOL     OW36904   1.271   2.955   3.758 -0.1535  0.0101 -0.0006
12109SOL    HW136905   1.228   2.870   3.749 -3.4227  1.6048 -0.8507
12109SOL    HW236906   1.287   2.964   3.853 -1.5409 -0.7390  0.3244
12110SOL     OW36907   9.149   7.632   6.603  0.1087 -0.0006  0.0870
12110SOL    HW136908   9.150   7.631   6.507 -2.6858 -1.9328 -0.0550
12110SOL    HW236909   9.240   7.647   6.628  1.0567 -0.1388 -2.8501
12111SOL     OW36910   8.489   5.218   7.827 -0.1460 -0.0933  0.1032
12111SOL    HW136911   8.415   5.278   7.819  1.0719  1.3068 -1.8450
12111SOL    HW236912   8.536   5.228   7.744  0.5903 -3.1803  0.0401
12112SOL     OW36913   9.837   7.597   3.070  0.2493  0.1870  0.4599
12112SOL    HW136914   9.795   7.518   3.038 -0.4827  1.0549 -0.8000
12112SOL    HW236915   9.844   7.654   2.993  3.5431  0.2084  0.6139
12113SOL     OW36916   7.863   8.803   6.695  0.6524 -0.1870  0.3335
12113SOL    HW136917   7.860   8.710   6.673  1.5865  0.1695 -1.5293
12113SOL    HW236918   7.814   8.810   6.777  2.0185 -2.5601  1.4661
12114SOL     OW36919   6.607   3.113   9.653 -0.0674  0.5093  0.6721
12114SOL    HW136920   6.656   3.111   9.571 -0.3242  0.7674  0.5088
12114SOL    HW236921   6.670   3.145   9.718  1.0219 -2.4692  1.2122
12115SOL     OW36922   8.942   6.627   2.156 -0.3071  0.0887 -0.0357
12115SOL    HW136923   8.907   6.686   2.088 -1.4776  2.6702  2.5830
12115SOL    HW236924   9.035   6.647   2.159 -0.2072 -0.1794 -0.9704
12116SOL     OW36925   0.380   1.731   9.879 -0.0506  0.2098 -0.2950
12116SOL    HW136926   0.387   1.640   9.850 -1.3902 -0.7772  2.1452
12116SOL    HW236927   0.412   1.730   9.969  0.8318  2.3976 -0.5235
12117SOL     OW36928   6.665   7.136   4.873 -0.6329 -0.0103 -0.4904
12117SOL    HW136929   6.615   7.121   4.953 -1.7192 -0.3942 -1.2229
12117SOL    HW236930   6.735   7.195   4.899 -0.2659 -1.0539  0.9989
12118SOL     OW36931   6.893   0.790   7.609  0.6201 -0.0644  0.0158
12118SOL    HW136932   6.801   0.816   7.608  0.3517 -0.9554  0.8185
12118SOL    HW236933   6.932   0.841   7.680  0.8785  0.6815 -0.6382
12119SOL     OW36934   3.275   8.734   4.549  0.3178 -0.1549  0.1615
12119SOL    HW136935   3.195   8.783   4.533  0.1213  0.3098  2.2560
12119SOL    HW236936   3.269   8.659   4.491 -1.6539 -0.1379  0.2714
12120SOL     OW36937   2.447   0.641   6.174  0.0877 -0.0965 -0.1004
12120SOL    HW136938   2.388   0.708   6.208  0.5578  0.4948 -0.4258
12120SOL    HW236939   2.389   0.569   6.148 -0.4761  0.4245 -0.3051
12121SOL     OW36940   5.890   3.764   1.859  0.5313  0.1491 -0.4348
12121SOL    HW136941   5.910   3.858   1.859 -3.2257  1.0835 -0.9502
12121SOL    HW236942   5.866   3.744   1.949  0.6432 -0.1545 -0.4706
12122SOL     OW36943   8.291   9.031   8.631  0.0524 -0.5548  0.0580
12122SOL    HW136944   8.385   9.033   8.615  0.0692 -0.3685  0.1732
12122SOL    HW236945   8.280   8.962   8.697  0.2291  0.1125  0.8019
12123SOL     OW36946   4.094   0.669   7.292  0.3746 -0.4353 -0.1310
12123SOL    HW136947   4.169   0.627   7.251  0.4406 -0.1005 -0.3558
12123SOL    HW236948   4.102   0.762   7.268  1.1607  0.0195  1.7461
12124SOL     OW36949   8.369   7.666   3.504  0.0539 -0.3507  0.2323
12124SOL    HW136950   8.458   7.688   3.477 -0.1196 -1.3638 -1.2688
12124SOL    HW236951   8.316   7.678   3.426 -1.0793 -0.1306  1.0088
12125SOL     OW36952   2.596   4.017   6.703 -0.1247  0.1435  0.2560
12125SOL    HW136953   2.521   4.044   6.754  1.4636  1.0566  2.2326
12125SOL    HW236954   2.634   4.098   6.669  0.0568 -0.2905 -0.6344
12126SOL     OW36955   3.863   6.937   2.230  0.0447 -0.4332 -0.0878
12126SOL    HW136956   3.768   6.935   2.242  0.0772  0.5799  0.4344
12126SOL    HW236957   3.876   6.920   2.137 -0.5892 -1.4416 -0.0104
12127SOL     OW36958   1.170   5.704   8.203 -0.5119  0.3126 -0.0376
12127SOL    HW136959   1.186   5.788   8.159  0.6525  0.8700  1.3714
12127SOL    HW236960   1.191   5.720   8.294  1.1806 -1.8788  0.0449
12128SOL     OW36961   0.875   0.394   6.419 -0.0933 -0.1081  0.3637
12128SOL    HW136962   0.935   0.378   6.346 -0.1749  1.5089 -0.0857
12128SOL    HW236963   0.800   0.337   6.400  0.7270 -1.1833  0.2603
12129SOL     OW36964   1.327   5.915   7.887  0.2729  0.3185  0.4721
12129SOL    HW136965   1.233   5.909   7.877  0.2173  1.6394  0.0343
12129SOL    HW236966   1.339   5.958   7.972  0.4240  1.5660 -0.1586
12130SOL     OW36967   9.245   6.542   5.142  0.4229 -0.0034  0.4657
12130SOL    HW136968   9.338   6.528   5.159 -0.0068 -1.0955  2.1136
12130SOL    HW236969   9.236   6.637   5.138  1.5376  0.1324  0.7753
12131SOL     OW36970   6.621   6.452   8.918 -0.4417 -0.1073 -0.3509
12131SOL    HW136971   6.632   6.547   8.914 -0.3266 -0.1196 -0.3432
12131SOL    HW236972   6.536   6.439   8.960 -0.9998  0.0060 -1.4086
12132SOL     OW36973   5.371   2.366   1.437 -0.5311  0.0702 -0.2218
12132SOL    HW136974   5.454   2.410   1.422 -0.5734 -0.4865 -2.3808
12132SOL    HW236975   5.316   2.432   1.478  0.7186  0.6736  0.5387
12133SOL     OW36976   0.860   4.808   9.290  0.6473  0.0554  0.0948
12133SOL    HW136977   0.873   4.713   9.290  1.6421  0.1695  0.9712
12133SOL    HW236978   0.945   4.844   9.266 -0.0363  0.7238 -1.4458
12134SOL     OW36979   2.827   2.374   6.032  0.1013 -0.3678  0.0062
12134SOL    HW136980   2.782   2.292   6.010 -2.3617  1.2443 -1.3584
12134SOL    HW236981   2.874   2.399   5.952 -0.3831  0.3040 -0.0714
12135SOL     OW36982   2.926   0.793   4.085 -0.3002 -0.5378  0.0086
12135SOL    HW136983   2.883   0.809   4.169  0.4551  0.8339  0.1622
12135SOL    HW236984   2.854   0.789   4.022 -0.9590 -2.6214  0.8299
12136SOL     OW36985   5.278   3.746   3.606  0.2289 -0.3280 -0.1847
12136SOL    HW136986   5.260   3.677   3.670 -0.9488  0.6565  0.5736
12136SOL    HW236987   5.302   3.822   3.659  0.6173  0.1157 -0.9787
12137SOL     OW36988   5.084   6.183   0.482  0.2303 -0.2048 -0.3811
12137SOL    HW136989   5.114   6.240   0.552  1.4437  0.1477 -1.1532
12137SOL    HW236990   5.133   6.101   0.496 -0.2759 -0.4893 -0.2405
12138SOL     OW36991   7.190   5.338   2.601 -0.3549 -0.2610  0.4549
12138SOL    HW136992   7.181   5.372   2.512 -2.3662 -1.5237  0.1045
12138SOL    HW236993   7.142   5.401   2.655 -0.5308 -0.3555  0.4089
12139SOL     OW36994   1.749   9.548   2.697 -0.4201 -0.0230  0.1749
12139SOL    HW136995   1.822   9.570   2.640 -0.1401 -3.4340 -1.0258
12139SOL    HW236996   1.672   9.549   2.639 -0.5915 -0.6712  0.3772
12140SOL     OW36997   0.046   5.977   2.045  0.3736  0.0581 -0.0268
12140SOL    HW136998   0.008   5.934   2.121 -1.8286  1.5669 -0.1744
12140SOL    HW236999   0.139   5.952   2.047 -0.1175 -1.9117  1.7186
12141SOL     OW37000   8.676   5.200   8.102 -0.3871  0.7991  0.0928
12141SOL    HW137001   8.727   5.192   8.021 -0.2405 -1.4496  0.3437
12141SOL    HW237002   8.586   5.184   8.074 -0.1966 -1.2889  0.4836
12142SOL     OW37003   2.131   9.812   3.046 -0.0613  0.1666  0.2129
12142SOL    HW137004   2.090   9.788   3.128 -0.4417 -0.4090 -0.1393
12142SOL    HW237005   2.059   9.837   2.988  0.1808  0.3462 -0.0186
12143SOL     OW37006   1.072   7.868   2.121 -0.6758  0.3732 -0.4246
12143SOL    HW137007   1.077   7.924   2.199  1.8596  2.4769 -1.9369
12143SOL    HW237008   0.979   7.845   2.115 -1.0368  0.4519  2.9381
12144SOL     OW37009   2.858   3.726   2.502  0.0257 -0.3426  0.0462
12144SOL    HW137010   2.938   3.739   2.451  0.0150 -0.7035 -0.0673
12144SOL    HW237011   2.798   3.682   2.442  0.0013 -0.7401  0.3581
12145SOL     OW37012   4.927   3.195   2.747  0.5309  0.3441  0.9145
12145SOL    HW137013   5.001   3.167   2.693 -0.1692  1.9149 -1.0073
12145SOL    HW237014   4.862   3.227   2.683 -1.6042 -0.4819  2.5490
12146SOL     OW37015   9.924   7.794   7.214 -0.3764  0.3082  0.0044
12146SOL    HW137016   9.839   7.753   7.230  0.8066 -1.7158  1.8081
12146SOL    HW237017   9.904   7.872   7.163 -3.1510 -0.8309 -0.8803
12147SOL     OW37018   2.331   0.373   6.118  0.0624  0.4050 -0.0114
12147SOL    HW137019   2.253   0.321   6.133 -0.4665  1.2348  0.2122
12147SOL    HW237020   2.371   0.336   6.039 -0.5325 -0.0536 -0.0962
12148SOL     OW37021   3.330   5.294   4.995 -0.6476 -0.2580 -0.3688
12148SOL    HW137022   3.363   5.310   5.083 -0.7328  0.9965 -0.5570
12148SOL    HW237023   3.237   5.276   5.007 -0.1360 -3.1268  0.0888
12149SOL     OW37024   9.433   6.075   3.944 -0.0670  0.0348  0.1193
12149SOL    HW137025   9.363   6.108   4.001  0.5893  1.1639  0.3125
12149SOL    HW237026   9.409   5.985   3.926 -1.6602  0.4385  0.0553
12150SOL     OW37027   9.650   2.661   4.260  0.4684 -0.2468  0.1777
12150SOL    HW137028   9.666   2.649   4.354  0.2005  0.9735  0.3984
12150SOL    HW237029   9.555   2.654   4.251  0.3458  1.0141  0.2439
12151SOL     OW37030   5.909   5.136   6.900 -0.0273  0.0891 -0.0432
12151SOL    HW137031   5.933   5.043   6.891  0.5750  0.0607  1.5100
12151SOL    HW237032   5.839   5.149   6.837  1.0905 -0.9758 -1.5817
12152SOL     OW37033   7.069   2.372   8.096  0.1413  0.0255  0.0904
12152SOL    HW137034   6.985   2.363   8.052  0.3609 -0.8199 -0.1689
12152SOL    HW237035   7.093   2.283   8.121  0.7540  0.3133  0.5415
12153SOL     OW37036   8.426   8.647   4.812  0.1208 -0.9109  0.0856
12153SOL    HW137037   8.383   8.565   4.789 -0.3507 -0.2923 -1.2932
12153SOL    HW237038   8.502   8.651   4.755 -1.7902  1.2818 -2.5259
12154SOL     OW37039   1.984   5.249   0.314  0.0442  0.3669 -0.0095
12154SOL    HW137040   2.005   5.166   0.272  0.6357  0.3342  0.3332
12154SOL    HW237041   1.954   5.223   0.402 -0.0339  0.4993  0.0020
12155SOL     OW37042   9.643   5.788   7.308 -0.3714 -0.0472 -0.2597
12155SOL    HW137043   9.655   5.870   7.355  1.9528 -1.6278  2.2035
12155SOL    HW237044   9.599   5.731   7.371  0.8970 -1.6180 -0.7208
12156SOL     OW37045   8.312   5.776   8.058  0.1224  0.0421 -0.5935
12156SOL    HW137046   8.279   5.858   8.095  0.0975 -0.1896 -0.1031
12156SOL    HW237047   8.335   5.723   8.133  0.6223 -0.2101 -0.9205
12157SOL     OW37048   9.250   7.543   8.900  0.2421 -0.0103 -0.1534
12157SOL    HW137049   9.173   7.503   8.861 -0.3596  1.0839 -0.1097
12157SOL    HW237050   9.233   7.541   8.994  1.9427 -3.1744  0.2364
12158SOL     OW37051   6.935   6.881   4.020  0.5666 -0.5385 -0.5471
12158SOL    HW137052   6.970   6.876   4.109  2.3983 -1.1283 -1.2562
12158SOL    HW237053   6.989   6.947   3.977 -0.1898 -0.3859 -1.2788
12159SOL     OW37054   1.876   0.599   8.047 -0.5546  0.6679 -0.0418
12159SOL    HW137055   1.919   0.583   8.132  1.1584  0.4190 -0.9101
12159SOL    HW237056   1.834   0.684   8.057  2.0279  2.0028  0.1849
12160SOL     OW37057   5.522   1.390   2.979 -0.0386 -0.4878 -0.3783
12160SOL    HW137058   5.534   1.427   2.892 -1.3866  0.1291 -0.3266
12160SOL    HW237059   5.570   1.449   3.037 -2.2864  1.3784 -0.2780
12161SOL     OW37060   0.641   1.423   4.543 -0.0280 -0.3261 -0.0861
12161SOL    HW137061   0.571   1.367   4.510 -1.3295  0.7446  0.7657
12161SOL    HW237062   0.645   1.404   4.636 -1.5832  2.0224  0.5525
12162SOL     OW37063   5.137   7.435   5.909 -0.0168  0.0914 -0.4604
12162SOL    HW137064   5.069   7.381   5.948 -0.2315  0.1073 -0.8013
12162SOL    HW237065   5.145   7.402   5.819  0.0293  0.4605 -0.5934
12163SOL     OW37066   1.245   5.911   5.074 -0.2558  0.1220  0.4614
12163SOL    HW137067   1.187   5.986   5.064  1.1228  1.2693  0.7246
12163SOL    HW237068   1.187   5.838   5.095 -1.7193  0.9055 -0.6758
12164SOL     OW37069   9.123   9.835   5.210  0.7510  0.1756 -0.3597
12164SOL    HW137070   9.088   9.869   5.293  0.7263 -0.1526 -0.2358
12164SOL    HW237071   9.075   9.882   5.143 -0.0003 -0.3416 -0.1916
12165SOL     OW37072   3.289   6.565   2.738 -0.5834 -0.2496 -0.1982
12165SOL    HW137073   3.277   6.518   2.655 -0.3999 -1.7693  0.5989
12165SOL    HW237074   3.277   6.498   2.805  0.3465  0.7295  0.9852
12166SOL     OW37075   4.062   8.693   6.956 -0.5940  0.2335 -0.0419
12166SOL    HW137076   3.974   8.683   6.918 -1.0970  1.2750  0.8005
12166SOL    HW237077   4.070   8.787   6.974  0.5831  0.1079  0.1700
12167SOL     OW37078   1.498   5.784   6.963  0.1891  0.1332  0.4163
12167SOL    HW137079   1.424   5.769   7.021 -1.1039  2.1386 -0.6109
12167SOL    HW237080   1.488   5.718   6.894  0.0842 -0.3995  0.9340
12168SOL     OW37081   6.004   9.259   0.580  0.2468  0.7062  0.1030
12168SOL    HW137082   6.047   9.321   0.638 -1.5808  0.9959  1.2096
12168SOL    HW237083   5.993   9.306   0.498  1.8062  0.6862 -0.1457
12169SOL     OW37084   5.131   8.959   1.320 -0.1850  0.3302 -0.6368
12169SOL    HW137085   5.191   9.021   1.360  0.3427 -0.7077  0.2200
12169SOL    HW237086   5.046   9.002   1.323  0.3457  1.4388 -1.0349
12170SOL     OW37087   8.837   1.461   0.974 -0.3795 -0.5750 -0.2211
12170SOL    HW137088   8.880   1.402   0.913  2.1775  1.0215 -0.1255
12170SOL    HW237089   8.833   1.545   0.927 -0.1714  0.1889  1.0801
12171SOL     OW37090   2.167   3.249   1.044  0.0323 -0.2443 -0.4572
12171SOL    HW137091   2.258   3.218   1.044 -0.1157 -0.7046 -0.9947
12171SOL    HW237092   2.117   3.174   1.075 -0.2144 -0.1548 -0.6371
12172SOL     OW37093   9.160   3.096   2.667 -0.4048  0.5623  0.5088
12172SOL    HW137094   9.116   3.105   2.751 -1.3655 -0.2041  0.1083
12172SOL    HW237095   9.166   3.001   2.653  3.1880  0.5096  1.4616
12173SOL     OW37096   3.072   1.694   6.761 -0.4567  0.3804 -0.7913
12173SOL    HW137097   3.055   1.681   6.668  0.2709  1.0851 -1.0305
12173SOL    HW237098   3.167   1.692   6.770 -0.5425 -2.4497  0.3811
12174SOL     OW37099   4.629   6.847   1.347 -0.2222  0.1100  0.4299
12174SOL    HW137100   4.641   6.790   1.271  2.0000 -0.6157  1.2541
12174SOL    HW237101   4.636   6.936   1.311 -0.9277 -0.1606 -0.4375
12175SOL     OW37102   6.650   8.185   8.006  0.5846  0.6274  0.0139
12175SOL    HW137103   6.739   8.151   8.009 -0.4928 -2.4730  1.1258
12175SOL    HW237104   6.598   8.112   7.972 -1.5653  2.3102 -0.5595
12176SOL     OW37105   7.214   5.020   3.158  0.0940 -0.0222  0.1471
12176SOL    HW137106   7.164   4.962   3.101 -0.8288  1.1438 -0.2773
12176SOL    HW237107   7.218   4.974   3.242  0.2553 -1.1256 -0.4545
12177SOL     OW37108   1.915   3.244   5.470  0.5885  0.2449 -0.3860
12177SOL    HW137109   1.991   3.207   5.516 -0.6795 -0.8071  0.9843
12177SOL    HW237110   1.853   3.171   5.466 -0.7518  1.3632 -0.5019
12178SOL     OW37111   6.714   6.282   1.412  0.0840  0.3263  0.3482
12178SOL    HW137112   6.762   6.365   1.415 -0.7206  0.8394 -0.4547
12178SOL    HW237113   6.688   6.265   1.503  0.4694  0.8217  0.5523
12179SOL     OW37114   3.965   5.656   2.830 -0.6271 -0.1204  0.4948
12179SOL    HW137115   3.950   5.735   2.777 -1.6377 -0.2217  0.6100
12179SOL    HW237116   3.957   5.687   2.920  2.5951  0.3683  0.7193
12180SOL     OW37117   1.678   9.633   5.719  0.2085 -0.1741 -0.1521
12180SOL    HW137118   1.695   9.626   5.625 -0.2503  3.1365 -0.5952
12180SOL    HW237119   1.703   9.722   5.741 -0.4943 -0.6005  2.7269
12181SOL     OW37120   2.393   0.163   3.200  0.1962 -0.3985  0.6050
12181SOL    HW137121   2.435   0.118   3.273  0.4407  0.9313  1.3185
12181SOL    HW237122   2.439   0.131   3.122 -0.2795 -2.0815  0.9580
12182SOL     OW37123   2.712   5.663   8.528  0.2994  0.2038  0.1264
12182SOL    HW137124   2.623   5.662   8.561  0.3050 -0.9993  0.1402
12182SOL    HW237125   2.756   5.733   8.578 -0.6062  0.7798  0.1348
12183SOL     OW37126   5.241   7.394   5.500  0.5879  0.3735 -0.5308
12183SOL    HW137127   5.327   7.373   5.465 -0.3000 -0.4165 -2.4036
12183SOL    HW237128   5.227   7.332   5.571  1.8094  0.9795  0.2754
12184SOL     OW37129   4.649   7.560   1.158 -0.3589 -0.0147 -0.5063
12184SOL    HW137130   4.634   7.648   1.192  0.9831  0.2924 -0.6304
12184SOL    HW237131   4.598   7.503   1.215 -1.6966  0.8767 -0.7718
12185SOL     OW37132   3.335   1.397   1.929 -0.6252 -0.3258 -0.3845
12185SOL    HW137133   3.251   1.440   1.912 -0.9132 -0.1942  1.2488
12185SOL    HW237134   3.315   1.328   1.992  0.3997 -0.6725 -0.4186
12186SOL     OW37135   0.825   2.312   9.643  0.4669  0.2463  0.4830
12186SOL    HW137136   0.858   2.225   9.668  0.7108 -0.3150 -1.6273
12186SOL    HW237137   0.732   2.298   9.627  0.3126  0.6000  1.0511
12187SOL     OW37138   2.824   7.035   3.563 -0.5594  0.1899  0.2919
12187SOL    HW137139   2.784   6.993   3.488  1.0807 -0.4580 -0.2771
12187SOL    HW237140   2.866   6.963   3.611 -0.7335  0.7253  1.2809
12188SOL     OW37141   9.334   7.855   4.300 -0.8752  0.3089 -0.1580
12188SOL    HW137142   9.243   7.848   4.271 -2.1396  1.3980  3.0255
12188SOL    HW237143   9.360   7.944   4.277 -0.7404  0.1314 -0.7059
12189SOL     OW37144   3.431   9.394   0.351 -0.2483 -0.0926  0.1027
12189SOL    HW137145   3.461   9.431   0.434 -0.2145 -0.8231  0.4307
12189SOL    HW237146   3.402   9.469   0.299 -1.0874  0.3073  1.1121
12190SOL     OW37147   0.069   9.025   0.269  0.4965 -0.7487 -0.2228
12190SOL    HW137148   0.031   8.947   0.229 -2.6353  0.0951  0.7859
12190SOL    HW237149   0.025   9.098   0.225  2.0001  0.4075  0.1179
12191SOL     OW37150   2.228   1.547   1.262  0.3515  0.3175  0.7048
12191SOL    HW137151   2.146   1.544   1.312  1.8539  1.7673  3.4777
12191SOL    HW237152   2.219   1.624   1.207 -0.9497 -0.7639 -0.6953
12192SOL     OW37153   7.593   2.261   3.841  0.7440 -0.0491 -0.7517
12192SOL    HW137154   7.622   2.207   3.914 -0.1230 -1.7978 -1.6235
12192SOL    HW237155   7.661   2.248   3.774 -0.9893 -2.7659 -2.1557
12193SOL     OW37156   6.308   1.263   8.846 -0.1462  0.2165 -0.1330
12193SOL    HW137157   6.328   1.169   8.839 -1.5382 -0.1400  0.2937
12193SOL    HW237158   6.220   1.265   8.885  0.6554  1.7260  1.7699
12194SOL     OW37159   9.896   6.448   5.533 -0.6179  0.0433  0.5468
12194SOL    HW137160   9.948   6.496   5.596  2.6474 -1.0292 -1.0799
12194SOL    HW237161   9.882   6.362   5.573  1.4738 -0.6459 -0.0935
12195SOL     OW37162   4.076   9.461   2.119 -0.1793  0.1978  0.4132
12195SOL    HW137163   4.041   9.374   2.098  0.3408  0.0269  0.2436
12195SOL    HW237164   4.014   9.497   2.182 -0.8680  0.0489 -0.1679
12196SOL     OW37165   2.826   4.750   5.131  0.5201  0.3364 -0.1378
12196SOL    HW137166   2.742   4.779   5.096  0.3649  0.1384  0.0707
12196SOL    HW237167   2.821   4.768   5.225  1.3482  1.8709 -0.3570
12197SOL     OW37168   2.613   6.886   0.286  0.1443 -0.1889  0.0363
12197SOL    HW137169   2.541   6.921   0.339 -2.3170 -3.5574 -0.7600
12197SOL    HW237170   2.687   6.882   0.347 -1.2686  0.2775  1.9033
12198SOL     OW37171   9.625   0.847   3.737  0.0099  0.0035 -0.2859
12198SOL    HW137172   9.630   0.800   3.654 -0.8629 -1.4312  0.4278
12198SOL    HW237173   9.533   0.872   3.745 -0.2104 -1.1011  0.8656
12199SOL     OW37174   9.640   2.978   1.636 -0.1473  0.1220 -0.0917
12199SOL    HW137175   9.597   3.056   1.603  0.8442  0.0778 -1.6048
12199SOL    HW237176   9.630   2.982   1.731 -0.4790  1.8531 -0.1845
12200SOL     OW37177   7.443   9.646   0.225  0.2677  0.5951 -0.1801
12200SOL    HW137178   7.504   9.712   0.191 -1.6414  1.9903 -1.0679
12200SOL    HW237179   7.386   9.626   0.150 -1.0792  0.2099  0.9181
12201SOL     OW37180   8.777   4.685   9.140 -0.3900  0.1639 -0.3370
12201SOL    HW137181   8.816   4.688   9.052  0.3800  1.0725  0.0244
12201SOL    HW237182   8.808   4.602   9.177  1.6694  1.0913  0.1331
12202SOL     OW37183   7.787   1.439   3.896 -0.0768  0.3170 -0.2244
12202SOL    HW137184   7.859   1.378   3.913  1.1234  1.9168  0.6941
12202SOL    HW237185   7.801   1.468   3.805 -0.7641 -0.8510 -0.7330
12203SOL     OW37186   9.671   4.076   4.538  0.3319  0.0924 -0.3999
12203SOL    HW137187   9.660   4.147   4.601  0.6284  0.5345 -0.8333
12203SOL    HW237188   9.652   3.996   4.587  2.3897  0.2540  0.7790
12204SOL     OW37189   6.152   0.348   9.388 -0.0613 -0.2224  0.6080
12204SOL    HW137190   6.180   0.434   9.356  1.1346 -0.7688  0.1469
12204SOL    HW237191   6.134   0.362   9.481 -1.2443  0.8386  0.2566
12205SOL     OW37192   1.191   9.763   5.861  0.4538  0.3353 -0.5963
12205SOL    HW137193   1.248   9.765   5.784  2.3418 -2.4232  0.5688
12205SOL    HW237194   1.105   9.739   5.826  0.5731  1.8966 -2.1077
12206SOL     OW37195   5.892   5.146   8.404  0.0809  0.0691 -0.9034
12206SOL    HW137196   5.852   5.223   8.363 -1.8982 -0.0336  0.6585
12206SOL    HW237197   5.945   5.107   8.335 -1.2177  1.1944 -2.6358
12207SOL     OW37198   6.815   5.412   0.893 -0.6760  0.0736  0.1299
12207SOL    HW137199   6.733   5.369   0.915 -0.0070 -1.1974  0.2399
12207SOL    HW237200   6.882   5.346   0.912  0.2496  0.5027 -1.4680
12208SOL     OW37201   2.559   7.116   7.681 -0.3716  0.2194 -0.1981
12208SOL    HW137202   2.647   7.122   7.718 -0.5064  2.1452 -0.0929
12208SOL    HW237203   2.513   7.055   7.738  0.7985 -0.5587 -0.0631
12209SOL     OW37204   7.354   7.645   7.621 -0.5468  0.1158 -0.9961
12209SOL    HW137205   7.281   7.617   7.676  2.0073 -2.7128  1.3139
12209SOL    HW237206   7.411   7.695   7.679  1.7522 -2.0978 -1.1615
12210SOL     OW37207   6.492   8.677   1.990  0.2513 -0.2029 -0.1251
12210SOL    HW137208   6.437   8.614   2.038 -0.2470  0.4893  0.2306
12210SOL    HW237209   6.451   8.683   1.904 -0.4353  0.5394  0.2367
12211SOL     OW37210   3.684   0.763   5.109  0.2122 -0.0238  0.4688
12211SOL    HW137211   3.624   0.690   5.095  1.1536 -0.8171  0.4841
12211SOL    HW237212   3.627   0.838   5.126 -0.7734 -0.7056  0.2414
12212SOL     OW37213   0.047   7.019   4.100 -0.2816 -0.3979 -0.4554
12212SOL    HW137214   0.038   6.937   4.147  1.9899  0.1488  1.1128
12212SOL    HW237215   0.108   7.000   4.029 -0.1324 -0.1799 -0.3871
12213SOL     OW37216   8.661   8.472   0.672 -0.1789 -0.2248 -0.0723
12213SOL    HW137217   8.722   8.408   0.709  2.3476  2.3245  0.5441
12213SOL    HW237218   8.680   8.471   0.578  0.4763  0.1724  0.0482
12214SOL     OW37219   9.353   5.033   6.924  0.1944  0.2858  0.2136
12214SOL    HW137220   9.437   5.056   6.966  0.4574 -0.2363 -0.0229
12214SOL    HW237221   9.337   4.942   6.951 -1.0603  0.8445  1.5109
12215SOL     OW37222   5.434   2.891   7.592 -0.1735  0.1146 -0.2339
12215SOL    HW137223   5.504   2.956   7.582 -0.5206  0.5582  0.2154
12215SOL    HW237224   5.476   2.818   7.638 -0.5381  1.3058  2.1200
12216SOL     OW37225   7.695   7.821   6.494 -0.3059  0.1219  0.1436
12216SOL    HW137226   7.639   7.785   6.562  0.1606  0.3125  0.6377
12216SOL    HW237227   7.675   7.769   6.416  0.8991 -1.7890  1.0190
12217SOL     OW37228   8.251   2.853   3.643  0.3162 -0.3894  0.2742
12217SOL    HW137229   8.236   2.824   3.733 -0.3664 -0.0397  0.2727
12217SOL    HW237230   8.225   2.945   3.642  1.8970  0.0869  0.1199
12218SOL     OW37231   4.007   7.335   1.653 -0.0353 -0.3877  0.1616
12218SOL    HW137232   3.935   7.355   1.712  1.0743  0.3831  1.2962
12218SOL    HW237233   4.032   7.245   1.675 -0.9916 -0.8631 -0.6281
12219SOL     OW37234   0.471   4.467   6.682  0.3507  0.1224 -0.4321
12219SOL    HW137235   0.436   4.432   6.764 -1.0483 -0.0231 -1.0664
12219SOL    HW237236   0.566   4.460   6.692  0.2494  0.6149  1.3892
12220SOL     OW37237   0.655   0.031   3.026 -0.0620 -0.5062  0.4059
12220SOL    HW137238   0.563   0.054   3.025  0.1413  0.4058 -1.4220
12220SOL    HW237239   0.670  -0.016   2.944  1.6600  1.9731 -0.8332
12221SOL     OW37240   1.213   8.782   0.664  0.1881 -0.6610 -0.5606
12221SOL    HW137241   1.127   8.810   0.632 -0.3675  1.3893  2.4099
12221SOL    HW237242   1.194   8.729   0.741  1.4102  3.3730  2.8533
12222SOL     OW37243   9.325   4.686   9.501  0.0351  0.2103 -0.0139
12222SOL    HW137244   9.335   4.780   9.516 -0.9353 -0.1473  3.8821
12222SOL    HW237245   9.232   4.674   9.479  0.1763  0.1638 -0.5934
12223SOL     OW37246   4.759   4.542   1.756 -0.3837  0.1555 -0.0629
12223SOL    HW137247   4.728   4.555   1.666 -1.1283 -1.5262 -0.0907
12223SOL    HW237248   4.688   4.574   1.811 -0.4441  0.0743 -0.0930
12224SOL     OW37249   5.361   0.755   4.657  0.0457 -0.0479  0.1635
12224SOL    HW137250   5.443   0.706   4.663  0.0893  0.1543  1.9527
12224SOL    HW237251   5.380   0.838   4.701 -0.7247  0.5948 -0.6801
12225SOL     OW37252   1.987   1.504   6.753  0.4473 -0.2776  0.4441
12225SOL    HW137253   1.976   1.553   6.671 -1.5621  0.1653  0.9247
12225SOL    HW237254   2.066   1.452   6.739  1.6494  1.7459 -0.7582
12226SOL     OW37255   2.710   1.434   7.012  0.1714  0.2471  0.3955
12226SOL    HW137256   2.767   1.510   7.021 -0.2422  0.6485 -0.2620
12226SOL    HW237257   2.738   1.393   6.930 -0.0384  0.0670  0.4145
12227SOL     OW37258   2.420   2.190   0.192 -0.1818 -0.2699  0.5140
12227SOL    HW137259   2.381   2.278   0.193  1.6721  0.6494 -0.9333
12227SOL    HW237260   2.350   2.132   0.222 -1.7489  1.5927  0.6472
12228SOL     OW37261   1.727   8.813   6.467 -0.0540 -0.0615  0.2139
12228SOL    HW137262   1.768   8.730   6.441  0.0434  0.4279 -1.2419
12228SOL    HW237263   1.771   8.836   6.549  1.4264 -0.3942 -0.4533
12229SOL     OW37264   1.042   8.113   5.037 -0.3958 -0.0748  0.2294
12229SOL    HW137265   1.123   8.148   4.999 -1.3316  0.4205 -1.3886
12229SOL    HW237266   1.031   8.162   5.119  1.1152 -0.4029  0.6565
12230SOL     OW37267   1.050   2.494   0.516 -0.0373  0.3112 -0.2191
12230SOL    HW137268   0.965   2.498   0.559 -0.4534  1.2201 -1.1030
12230SOL    HW237269   1.079   2.403   0.528 -0.2280  0.4622  1.7688
12231SOL     OW37270   6.036   6.998   9.013  0.2503  0.1378 -0.1380
12231SOL    HW137271   6.054   7.059   9.085 -1.6758  1.4886 -0.7395
12231SOL    HW237272   6.017   7.054   8.938  0.2924 -1.2413 -1.2208
12232SOL     OW37273   8.159   3.033   7.605  0.0531 -0.0658  0.0467
12232SOL    HW137274   8.235   3.068   7.558  0.0685  0.3205  0.3510
12232SOL    HW237275   8.180   3.047   7.697 -0.7668  0.8450  0.1095
12233SOL     OW37276   4.883   4.157   1.587  0.9094 -0.8696  0.4879
12233SOL    HW137277   4.891   4.219   1.659  1.2469 -1.0525  0.6112
12233SOL    HW237278   4.870   4.072   1.630  0.2116 -0.8557  0.3187
12234SOL     OW37279   0.389   0.524   4.415  0.1300 -0.0911 -0.1600
12234SOL    HW137280   0.414   0.610   4.447  1.9549 -0.5160 -0.3320
12234SOL    HW237281   0.398   0.467   4.491  0.5489 -0.3984 -0.4310
12235SOL     OW37282   1.702   2.660   4.547 -0.8445 -0.1386  0.5780
12235SOL    HW137283   1.660   2.666   4.633  1.3027 -1.0735  1.7783
12235SOL    HW237284   1.695   2.567   4.524 -0.8272 -0.0075  0.0310
12236SOL     OW37285   7.498   5.904   5.512  0.1985  0.0911  0.0119
12236SOL    HW137286   7.422   5.946   5.554  0.6394  0.1791  0.7292
12236SOL    HW237287   7.468   5.815   5.494 -0.0968  0.1417  0.2333
12237SOL     OW37288   1.052   0.580   4.260  0.2994 -0.4495  0.0349
12237SOL    HW137289   0.990   0.648   4.233  2.8614  1.6716 -0.9950
12237SOL    HW237290   1.047   0.514   4.190 -0.5736 -0.1770 -0.1694
12238SOL     OW37291   3.856   6.393   5.897  0.0460  0.1127  0.3870
12238SOL    HW137292   3.843   6.412   5.804 -0.4848  0.8964  0.6066
12238SOL    HW237293   3.891   6.304   5.899  1.5158  0.6317 -0.6426
12239SOL     OW37294   7.102   8.092   1.529  0.4754 -0.2102  0.6087
12239SOL    HW137295   7.029   8.045   1.569  0.5233 -2.0568 -1.3091
12239SOL    HW237296   7.180   8.049   1.563  0.5234 -1.4859 -0.9858
12240SOL     OW37297   6.613   3.797   5.240 -0.1314 -0.3129 -0.1773
12240SOL    HW137298   6.545   3.815   5.305  1.0293  2.0222  0.5150
12240SOL    HW237299   6.654   3.717   5.270 -1.5951 -0.9547  0.2201
12241SOL     OW37300   6.257   4.314   2.760  0.2068  0.5777  0.2886
12241SOL    HW137301   6.200   4.389   2.742 -0.6724  0.1415  1.1649
12241SOL    HW237302   6.230   4.284   2.847 -0.0281 -1.2596 -0.3704
12242SOL     OW37303   0.612   7.675   1.874 -1.0202 -0.1266  0.0135
12242SOL    HW137304   0.652   7.598   1.915 -1.2120 -0.6611 -0.7946
12242SOL    HW237305   0.518   7.660   1.884 -1.0869 -0.5956 -1.2171
12243SOL     OW37306   2.618   7.544   6.792 -0.3442  0.1489  0.3720
12243SOL    HW137307   2.525   7.555   6.812 -0.3596  1.2310 -0.1978
12243SOL    HW237308   2.619   7.508   6.703 -0.2222 -0.2626  0.5392
12244SOL     OW37309   8.266   1.278   2.275 -0.0435 -0.0930  0.3544
12244SOL    HW137310   8.332   1.242   2.335 -0.8653 -1.0901  0.6869
12244SOL    HW237311   8.227   1.351   2.323 -0.9103 -1.0759  1.1875
12245SOL     OW37312   2.345   1.176   3.343 -0.1104 -0.2430  0.6327
12245SOL    HW137313   2.272   1.124   3.377 -0.7433 -0.6369 -1.2445
12245SOL    HW237314   2.303   1.244   3.290  0.7394  1.7724  2.3732
12246SOL     OW37315   5.252   4.215   3.434 -0.1278 -0.1880 -0.0040
12246SOL    HW137316   5.271   4.141   3.491  0.3612  1.3645  1.9697
12246SOL    HW237317   5.338   4.245   3.404 -0.1731  0.5843  0.5977
12247SOL     OW37318   6.466   9.564   6.929 -0.0282  0.2938 -0.0759
12247SOL    HW137319   6.414   9.615   6.991  0.3082 -1.0284  1.3590
12247SOL    HW237320   6.550   9.552   6.973 -0.0914 -1.4459 -0.3653
12248SOL     OW37321   3.590   5.759   0.196  0.4628  0.5473  0.3139
12248SOL    HW137322   3.608   5.705   0.120 -0.0384  1.5333 -0.5355
12248SOL    HW237323   3.675   5.792   0.224  0.5527  0.9060 -0.3824
12249SOL     OW37324   7.761   4.011   6.452  0.0081  0.4826  0.2745
12249SOL    HW137325   7.715   4.025   6.369  1.4788 -1.4270 -0.9572
12249SOL    HW237326   7.843   4.059   6.442  0.6756 -0.6573  0.1399
12250SOL     OW37327   5.171   7.246   4.533  0.7743 -0.3026  0.3867
12250SOL    HW137328   5.093   7.196   4.558 -0.5220  2.1472  1.5419
12250SOL    HW237329   5.151   7.281   4.446 -0.7318  2.6042  1.7772
12251SOL     OW37330   3.485   3.353   1.906  0.5591 -0.0653  0.1256
12251SOL    HW137331   3.464   3.260   1.891 -0.5891  0.2934 -0.5720
12251SOL    HW237332   3.434   3.377   1.983  0.1170  0.2330 -0.2576
12252SOL     OW37333   9.486   8.181   4.820  0.0574 -0.0171  0.2720
12252SOL    HW137334   9.480   8.088   4.839  0.9784 -0.0856  0.2516
12252SOL    HW237335   9.473   8.187   4.725 -1.2794  0.0106  0.4401
12253SOL     OW37336   2.310   0.042   5.323 -0.7482  0.5280  0.3205
12253SOL    HW137337   2.387  -0.014   5.320 -0.9124  0.1791 -3.6146
12253SOL    HW237338   2.344   0.130   5.311 -0.8488  0.4420 -0.7333
12254SOL     OW37339   2.468   7.223   8.627  0.3686 -0.1598  0.2742
12254SOL    HW137340   2.551   7.183   8.600  0.5478  0.4803 -0.1436
12254SOL    HW237341   2.494   7.297   8.682  0.1969  1.4577 -1.7016
12255SOL     OW37342   1.057   9.480   6.973 -0.2567 -0.0422  0.3997
12255SOL    HW137343   1.106   9.526   6.906 -1.3413 -0.4255 -0.6845
12255SOL    HW237344   0.992   9.429   6.925 -0.7250 -0.7289  1.7107
12256SOL     OW37345   0.953   4.996   5.769 -0.7800 -0.4995  0.0347
12256SOL    HW137346   0.861   4.983   5.747 -0.6850 -0.9842 -0.0880
12256SOL    HW237347   0.992   4.909   5.760 -0.0811 -0.1013 -0.9636
12257SOL     OW37348   2.382   9.286   8.472  0.2742 -0.4730  0.3487
12257SOL    HW137349   2.381   9.190   8.475 -0.1546 -0.4543  1.0513
12257SOL    HW237350   2.306   9.308   8.417  0.5361 -0.5395 -0.0423
12258SOL     OW37351   3.361   1.673   6.231 -0.1836 -0.1161 -0.3429
12258SOL    HW137352   3.301   1.647   6.161 -0.6036  0.9156 -0.3826
12258SOL    HW237353   3.420   1.736   6.189 -0.6012  0.7067  0.2670
12259SOL     OW37354   2.344   6.759   5.005  0.6419  0.2092  0.0731
12259SOL    HW137355   2.329   6.827   5.071 -0.2759 -0.0014  0.0925
12259SOL    HW237356   2.330   6.677   5.052 -3.4823  0.0445 -1.0744
12260SOL     OW37357   8.131   5.479   0.738 -0.6547 -0.0809  0.5001
12260SOL    HW137358   8.051   5.501   0.787  0.1567  1.2057  1.3243
12260SOL    HW237359   8.128   5.537   0.662 -0.8761 -0.5872  0.1172
12261SOL     OW37360   5.632   2.052   3.883  0.1619 -0.7111 -0.3448
12261SOL    HW137361   5.547   2.058   3.839  0.9252 -1.2086 -1.9693
12261SOL    HW237362   5.627   2.116   3.954 -1.7012 -1.0243 -0.1621
12262SOL     OW37363   1.006   0.259   0.688 -0.4541 -0.5590 -0.3363
12262SOL    HW137364   1.086   0.297   0.652 -0.1458  0.6747  1.4870
12262SOL    HW237365   0.942   0.330   0.681 -1.2527 -1.3499 -1.2529
12263SOL     OW37366   9.834   7.265   0.441  0.7566 -0.7857  0.3737
12263SOL    HW137367   9.880   7.182   0.457  0.0795 -1.4774 -1.1206
12263SOL    HW237368   9.857   7.289   0.351  0.6258  0.4573  0.6530
12264SOL     OW37369   6.387   3.240   9.665 -0.6019  0.1255 -0.4914
12264SOL    HW137370   6.396   3.309   9.598 -0.7348 -0.9085 -1.6048
12264SOL    HW237371   6.462   3.182   9.650  0.2322  0.6805  1.2716
12265SOL     OW37372   1.870   2.022   6.665 -0.0954  0.2263  0.3618
12265SOL    HW137373   1.843   2.088   6.601  1.6036  0.8685  0.2403
12265SOL    HW237374   1.874   2.069   6.748  2.3326  0.6782  0.0655
12266SOL     OW37375   2.889   0.231   3.286  0.4527 -0.0483 -0.1034
12266SOL    HW137376   2.908   0.197   3.199  0.4882 -0.4858  0.0723
12266SOL    HW237377   2.899   0.156   3.344  1.2020  0.4238  0.3847
12267SOL     OW37378   4.637   0.080   8.911  0.2757 -0.4843  0.4621
12267SOL    HW137379   4.703   0.011   8.908 -0.1122 -0.8710  0.6733
12267SOL    HW237380   4.668   0.146   8.848 -0.7858 -2.1445 -1.9423
12268SOL     OW37381   8.076   8.588   7.504 -0.1633  0.3259 -0.3924
12268SOL    HW137382   8.042   8.652   7.567  0.3040  0.1744  0.0219
12268SOL    HW237383   8.009   8.520   7.502  1.8907 -2.2347  3.7822
12269SOL     OW37384   7.322   5.683   9.036 -0.6591 -0.0249  0.1179
12269SOL    HW137385   7.379   5.740   9.087  0.4235 -3.2334  2.9085
12269SOL    HW237386   7.237   5.727   9.037  0.6532  2.7325 -0.2908
12270SOL     OW37387   2.751   3.786   7.326 -0.0568 -0.0823 -0.0553
12270SOL    HW137388   2.764   3.748   7.413  0.5352  0.9659  0.3231
12270SOL    HW237389   2.837   3.783   7.285  0.1033  1.2602  0.1543
12271SOL     OW37390   3.269   3.208   5.510  0.2957  0.2014  0.4456
12271SOL    HW137391   3.330   3.147   5.551  0.5802  0.5907  0.6098
12271SOL    HW237392   3.318   3.245   5.436  0.6503  1.3182  1.2182
12272SOL     OW37393   3.890   8.544   8.382  0.1660  0.1410 -0.3117
12272SOL    HW137394   3.857   8.462   8.343 -3.5700 -0.2695  3.0199
12272SOL    HW237395   3.828   8.611   8.353  1.0745  1.0911 -0.1171
12273SOL     OW37396   3.208   7.589   5.290 -0.0001 -0.0460 -0.0821
12273SOL    HW137397   3.181   7.546   5.371 -0.8316 -0.2180 -0.4404
12273SOL    HW237398   3.127   7.626   5.254  0.4287  0.3979 -0.6217
12274SOL     OW37399   1.174   6.786   6.601 -0.2410 -0.1944  0.6340
12274SOL    HW137400   1.253   6.795   6.547  0.0026  2.1627  1.2623
12274SOL    HW237401   1.201   6.819   6.687 -1.6720 -0.1894  1.1002
12275SOL     OW37402   8.749   5.020   4.265 -0.3575 -0.0192  0.2899
12275SOL    HW137403   8.685   5.026   4.336 -1.7633  0.1438 -0.9357
12275SOL    HW237404   8.813   4.955   4.295 -0.8459  0.1338  1.7277
12276SOL     OW37405   9.261   8.479   0.530 -0.4882 -0.0791 -0.0816
12276SOL    HW137406   9.226   8.413   0.589 -0.6619 -0.8030 -0.9745
12276SOL    HW237407   9.225   8.562   0.563  1.0647 -0.1754  2.0404
12277SOL     OW37408   8.096   8.976   0.476  0.0425  0.5716  0.9788
12277SOL    HW137409   8.072   8.956   0.567 -0.2487  0.4996  0.8859
12277SOL    HW237410   8.180   9.021   0.483 -0.4715  1.4978  1.3619
12278SOL     OW37411   5.641   0.712   6.962 -0.0607  0.0560  0.0868
12278SOL    HW137412   5.649   0.636   7.019 -0.0193  0.5093  0.6994
12278SOL    HW237413   5.550   0.711   6.932  0.1660 -0.7173 -0.6170
12279SOL     OW37414   8.296   3.704   8.217  0.4462 -0.1671 -0.0538
12279SOL    HW137415   8.367   3.737   8.162  0.5401  1.3746  0.9301
12279SOL    HW237416   8.224   3.767   8.205  0.4496  0.1794  1.4977
12280SOL     OW37417   5.272   7.050   5.530 -0.7319  0.0828 -0.4051
12280SOL    HW137418   5.360   7.017   5.510 -1.9683 -5.1563  1.2890
12280SOL    HW237419   5.219   7.025   5.454 -1.3983  0.1362  0.0361
12281SOL     OW37420   4.980   7.034   5.337  0.0373 -0.6947 -0.5752
12281SOL    HW137421   5.067   7.046   5.299  1.1853  0.9042  2.2540
12281SOL    HW237422   4.928   7.105   5.299  1.0439  0.6448  0.4576
12282SOL     OW37423   7.584   8.081   6.379  0.0331 -0.0576  0.3955
12282SOL    HW137424   7.601   8.001   6.429 -0.8539  0.3546  1.4132
12282SOL    HW237425   7.521   8.129   6.433 -0.6930  0.5798 -0.9830
12283SOL     OW37426   5.023   4.151   5.136  0.2307 -0.0249  0.4618
12283SOL    HW137427   5.040   4.066   5.176 -1.0776 -0.2746  0.5483
12283SOL    HW237428   4.990   4.131   5.048  3.2375  0.5279 -0.9122
12284SOL     OW37429   5.933   1.691   3.003 -0.2410  0.2475  0.0232
12284SOL    HW137430   5.914   1.691   3.097 -1.1599 -2.0222 -0.0847
12284SOL    HW237431   5.923   1.782   2.976  1.5467  1.2355  2.3778
12285SOL     OW37432   6.957   7.245   2.679  0.0437  0.1804 -0.2216
12285SOL    HW137433   7.002   7.216   2.599  1.1670  1.4928 -0.1120
12285SOL    HW237434   7.016   7.220   2.750 -0.2284  0.3685  0.0720
12286SOL     OW37435   6.044   4.916   2.688 -0.3165  0.1418 -0.4638
12286SOL    HW137436   6.088   4.947   2.608 -1.2211  0.8617 -0.6889
12286SOL    HW237437   5.965   4.969   2.695 -0.3698 -0.0678  0.7990
12287SOL     OW37438   9.647   5.978   3.186  0.3896 -0.3863  0.0044
12287SOL    HW137439   9.620   6.048   3.245  0.2386  0.8743 -1.4735
12287SOL    HW237440   9.587   5.906   3.204 -1.0239  0.7297 -0.0503
12288SOL     OW37441   4.607   2.122   6.780  0.1539 -0.3431 -0.6749
12288SOL    HW137442   4.676   2.083   6.727  0.2577  2.0887 -2.4508
12288SOL    HW237443   4.616   2.216   6.768 -0.8595  0.2774  2.4270
12289SOL     OW37444   7.359   4.256   5.394 -0.0448  0.0348 -0.0296
12289SOL    HW137445   7.292   4.189   5.405 -1.0393  1.0242  0.0553
12289SOL    HW237446   7.436   4.219   5.437 -0.1643 -1.6018 -1.1308
12290SOL     OW37447   1.860   2.653   4.927 -0.2923 -0.2827 -0.0231
12290SOL    HW137448   1.777   2.698   4.914 -0.7036 -1.1194 -0.3854
12290SOL    HW237449   1.925   2.707   4.883 -0.6678  0.2921  0.1239
12291SOL     OW37450   4.461   7.782   7.025 -0.5557  0.1553 -0.0695
12291SOL    HW137451   4.371   7.763   6.998 -0.1360  1.4440 -2.6589
12291SOL    HW237452   4.513   7.710   6.989 -0.2195  0.9490 -1.2400
12292SOL     OW37453   8.368   3.569   3.331 -0.3091 -0.0218  0.1340
12292SOL    HW137454   8.335   3.479   3.324  1.0837 -0.6252  0.7396
12292SOL    HW237455   8.313   3.610   3.397  1.7612 -1.9002  3.3460
12293SOL     OW37456   1.291   5.684   2.907  0.2391  0.3051  0.1340
12293SOL    HW137457   1.344   5.607   2.924  0.0382 -0.1208 -1.0497
12293SOL    HW237458   1.275   5.723   2.993  1.5286 -0.1751  0.6029
12294SOL     OW37459   7.048   3.421   9.630 -0.1134 -0.1498 -0.0164
12294SOL    HW137460   7.050   3.499   9.685  0.3854  0.8379 -1.3611
12294SOL    HW237461   6.976   3.369   9.664 -1.1479  1.4112  0.2787
12295SOL     OW37462   6.282   8.565   9.970  0.3506 -0.4690  0.0602
12295SOL    HW137463   6.297   8.660   9.964  0.5208 -0.5815 -2.5029
12295SOL    HW237464   6.351   8.526   9.917 -0.2238 -1.9897  0.3739
12296SOL     OW37465   2.632   3.281   8.296 -0.4571 -0.1824 -0.5809
12296SOL    HW137466   2.580   3.276   8.376 -0.8132 -1.8719 -0.8732
12296SOL    HW237467   2.707   3.337   8.318 -1.3128  0.5947  0.4588
12297SOL     OW37468   2.973   6.497   4.129  0.3677  0.1872 -0.2212
12297SOL    HW137469   3.005   6.499   4.219 -0.2849 -3.5359  0.2289
12297SOL    HW237470   2.879   6.485   4.138  0.3896 -0.9641 -1.3607
12298SOL     OW37471   2.937   2.538   8.311 -0.0340 -0.3187 -0.5162
12298SOL    HW137472   2.893   2.604   8.365 -0.0736 -0.3368 -0.5260
12298SOL    HW237473   2.972   2.475   8.374 -1.3972 -1.1679 -0.5699
12299SOL     OW37474   7.231   1.629   5.310 -0.2691  0.5627 -0.2482
12299SOL    HW137475   7.224   1.610   5.404 -0.0288 -3.3763 -0.8730
12299SOL    HW237476   7.140   1.636   5.281 -0.3546  3.1097  0.3711
12300SOL     OW37477   1.150   3.193   1.317 -0.6437 -0.2007  0.0766
12300SOL    HW137478   1.114   3.209   1.404  0.1054 -0.2954  0.4089
12300SOL    HW237479   1.236   3.236   1.318 -1.7060  2.1250 -1.5109
12301SOL     OW37480   6.845   5.011   0.690  0.3961 -0.5493 -0.4138
12301SOL    HW137481   6.847   5.048   0.602 -1.4543 -1.3050 -0.8108
12301SOL    HW237482   6.843   4.916   0.676  2.0022 -0.7633  0.5200
12302SOL     OW37483   5.763   7.353   1.870 -0.0430 -0.1204 -0.2729
12302SOL    HW137484   5.712   7.398   1.803  0.2101  1.2102  0.3937
12302SOL    HW237485   5.723   7.380   1.953  2.1499  1.5797  0.3172
12303SOL     OW37486   9.578   5.425   8.104 -0.0214  0.5973 -0.1525
12303SOL    HW137487   9.522   5.476   8.045 -1.0299  0.0371  0.2977
12303SOL    HW237488   9.518   5.364   8.148  0.8608  0.3471  0.7439
12304SOL     OW37489   7.533   0.138   3.017 -0.2739 -0.4643 -0.5203
12304SOL    HW137490   7.525   0.081   3.094  0.4716  0.7360  0.4853
12304SOL    HW237491   7.478   0.213   3.038  1.1806  0.6146 -0.4172
12305SOL     OW37492   6.842   2.681   7.719 -0.1243 -0.2025  0.3111
12305SOL    HW137493   6.858   2.748   7.653 -0.5975  0.2205  0.6210
12305SOL    HW237494   6.880   2.716   7.799  0.0761 -0.5312  0.3618
12306SOL     OW37495   6.055   9.698   6.651 -0.3210  0.3968 -0.4314
12306SOL    HW137496   6.124   9.633   6.639 -0.8209 -0.3357  0.4490
12306SOL    HW237497   5.981   9.647   6.684 -0.8915  1.3445 -0.2235
12307SOL     OW37498   5.435   1.629   9.160  0.2137 -0.0106  0.6480
12307SOL    HW137499   5.485   1.563   9.112  0.0590  1.3901 -1.5890
12307SOL    HW237500   5.494   1.704   9.166 -1.4633  1.7379 -2.1724
12308SOL     OW37501   6.728   9.760   4.168  0.0521  0.2130 -0.0554
12308SOL    HW137502   6.802   9.813   4.140 -0.5797  0.8597 -0.5312
12308SOL    HW237503   6.719   9.693   4.101 -1.4069  1.7088 -1.4471
12309SOL     OW37504   4.441   3.983   1.568 -0.5281  0.1074 -0.2047
12309SOL    HW137505   4.368   4.042   1.549 -0.7072  0.1095  0.4752
12309SOL    HW237506   4.401   3.909   1.615 -0.1002  0.1013  0.1585
12310SOL     OW37507   7.675   7.765   8.271 -0.6010 -0.3284 -0.5020
12310SOL    HW137508   7.724   7.751   8.190  0.3291 -0.6601  0.1034
12310SOL    HW237509   7.731   7.824   8.322 -1.3493  0.1712 -0.2476
12311SOL     OW37510   0.581   8.647   4.161 -0.1539 -0.1936 -0.1954
12311SOL    HW137511   0.648   8.585   4.131 -0.7370 -0.9274  0.0099
12311SOL    HW237512   0.498   8.601   4.149 -0.6231  0.7010 -0.4137
12312SOL     OW37513   3.689   4.406   2.393 -0.2229  0.0774  0.3804
12312SOL    HW137514   3.610   4.419   2.340 -0.5864  2.2382  1.3331
12312SOL    HW237515   3.759   4.445   2.342 -0.4393  1.4637  1.1099
12313SOL     OW37516   9.392   8.225   0.998  0.4915  0.7578  0.2938
12313SOL    HW137517   9.342   8.267   1.068  1.3746 -0.1606  1.5268
12313SOL    HW237518   9.458   8.290   0.974 -0.1902  1.3078 -0.1280
12314SOL     OW37519   4.939   0.754   8.915  0.2642  0.0148 -0.4645
12314SOL    HW137520   4.861   0.747   8.859 -0.1432  0.1076  0.0920
12314SOL    HW237521   5.003   0.799   8.859  0.5977 -1.7929 -1.6220
12315SOL     OW37522   8.856   6.734   3.992 -0.0983  0.5785  0.4151
12315SOL    HW137523   8.801   6.813   3.990 -1.5849 -0.4375 -1.0679
12315SOL    HW237524   8.935   6.761   4.038  0.6480  3.7152 -2.3523
12316SOL     OW37525   3.817   9.192   8.466 -0.7851 -0.0219 -0.0141
12316SOL    HW137526   3.833   9.275   8.511 -1.4600  0.8476 -1.2883
12316SOL    HW237527   3.725   9.196   8.440 -0.8897 -1.2903  0.1271
12317SOL     OW37528   2.906   1.130   3.537  0.6119  0.4036 -0.1073
12317SOL    HW137529   2.850   1.205   3.558 -0.2922 -0.2019 -0.2810
12317SOL    HW237530   2.851   1.075   3.481  1.7636  0.2979 -1.1639
12318SOL     OW37531   7.948   0.320   4.494 -0.6429  0.1623  0.4211
12318SOL    HW137532   7.982   0.241   4.537 -0.0837  0.1278 -0.0653
12318SOL    HW237533   7.921   0.377   4.566  1.5384  0.6691  0.9102
12319SOL     OW37534   4.520   2.843   7.259 -0.4346  0.7174  0.7579
12319SOL    HW137535   4.497   2.869   7.348  0.4329 -1.9617  1.8552
12319SOL    HW237536   4.441   2.860   7.208 -1.7347  0.2021  2.4998
12320SOL     OW37537   8.116   0.078   6.811  0.1701  0.2446  0.5370
12320SOL    HW137538   8.209   0.062   6.795 -0.3214 -0.3569 -2.2834
12320SOL    HW237539   8.089   0.137   6.740 -1.9621 -1.1251  0.1140
12321SOL     OW37540   5.375   7.687   3.044 -0.2759  0.0280 -0.0382
12321SOL    HW137541   5.412   7.655   2.962  0.3393  1.3809 -0.3158
12321SOL    HW237542   5.289   7.646   3.049 -0.0789 -0.5489 -1.0563
12322SOL     OW37543   3.400   9.057   7.071  0.4340  0.7855 -0.1775
12322SOL    HW137544   3.308   9.080   7.056  0.0304 -0.9054 -0.5207
12322SOL    HW237545   3.396   8.985   7.135  1.5874  1.3942  0.6029
12323SOL     OW37546   9.014   0.042   3.520  0.1777 -0.4191 -0.2856
12323SOL    HW137547   8.938   0.084   3.481 -0.5562 -0.0153  1.4804
12323SOL    HW237548   9.028  -0.036   3.467 -0.4762  0.3111 -1.5963
12324SOL     OW37549   0.001   9.786   5.832 -0.4319 -0.1931  0.0622
12324SOL    HW137550   0.003   9.881   5.843  0.3356 -0.0736 -0.8915
12324SOL    HW237551   0.056   9.770   5.755  0.9807 -1.5748  1.3052
12325SOL     OW37552   3.468   9.511   4.725 -0.1082 -0.4991  0.0518
12325SOL    HW137553   3.452   9.560   4.806 -0.0478 -1.0197  0.3830
12325SOL    HW237554   3.563   9.513   4.715 -0.2109  0.8909 -0.8476
12326SOL     OW37555   8.247   4.639   7.678 -0.2092  0.8057 -0.0921
12326SOL    HW137556   8.235   4.721   7.726 -0.7443  1.4558 -1.2923
12326SOL    HW237557   8.219   4.659   7.589 -0.3748 -0.7023 -0.4053
12327SOL     OW37558   6.857   7.170   1.111 -0.2953 -0.2244  0.4332
12327SOL    HW137559   6.871   7.254   1.154  1.6811 -1.2659  1.9734
12327SOL    HW237560   6.896   7.180   1.024 -0.8970  0.6912  0.2508
12328SOL     OW37561   6.692   0.730   2.039  0.3527 -0.0642 -0.4149
12328SOL    HW137562   6.672   0.820   2.063 -0.8437 -0.0668 -1.3018
12328SOL    HW237563   6.612   0.698   1.997 -0.4344 -2.5429  2.5540
12329SOL     OW37564   0.608   4.611   1.890  0.0882  0.3323  0.0545
12329SOL    HW137565   0.629   4.521   1.917  0.9780  0.0096 -1.5816
12329SOL    HW237566   0.602   4.660   1.972  0.8255 -0.9683  0.9223
12330SOL     OW37567   2.827   0.039   1.842  0.4589 -0.2934  0.5611
12330SOL    HW137568   2.859  -0.022   1.775 -0.9119  0.1538 -0.5370
12330SOL    HW237569   2.872   0.121   1.823  0.5561 -0.3371  0.5997
12331SOL     OW37570   4.194   7.808   5.267 -0.3335  0.0962 -0.3388
12331SOL    HW137571   4.122   7.864   5.296  0.1292  0.9304 -0.7652
12331SOL    HW237572   4.192   7.734   5.328  0.2518  1.5163  1.5217
12332SOL     OW37573   2.511   4.482   8.497  0.1924 -0.3814 -0.0756
12332SOL    HW137574   2.483   4.555   8.550 -1.8151 -0.8675 -0.3963
12332SOL    HW237575   2.528   4.411   8.559  1.2408  0.0461  0.1537
12333SOL     OW37576   4.197   4.612   1.405 -0.5196 -0.2698 -0.0695
12333SOL    HW137577   4.250   4.664   1.345  1.1812 -1.1535  0.6089
12333SOL    HW237578   4.150   4.550   1.349  0.2332 -0.3879 -0.5778
12334SOL     OW37579   9.590   5.211   1.571 -0.3156 -0.2690 -0.2848
12334SOL    HW137580   9.534   5.142   1.606 -1.2775  0.4076 -0.4593
12334SOL    HW237581   9.560   5.291   1.615  0.6311  0.0782 -0.2504
12335SOL     OW37582   7.011   7.876   5.615 -0.3802  0.2611 -0.0502
12335SOL    HW137583   7.090   7.862   5.666 -1.3835  0.1498  1.5333
12335SOL    HW237584   6.958   7.798   5.631 -1.8075  1.3552  0.8620
12336SOL     OW37585   1.301   0.371   7.639 -0.0298  0.3633 -0.1339
12336SOL    HW137586   1.353   0.410   7.710  0.5082  0.8635 -0.7872
12336SOL    HW237587   1.360   0.309   7.597 -0.0265  0.7683 -0.7388
12337SOL     OW37588   6.060   1.361   7.260 -0.0827  0.4196 -0.3597
12337SOL    HW137589   6.011   1.288   7.298 -0.9918  1.3443  0.2749
12337SOL    HW237590   6.029   1.366   7.170 -1.0669  0.9113  0.0003
12338SOL     OW37591   1.599   0.019   1.647 -0.0813 -0.1375 -0.0491
12338SOL    HW137592   1.623   0.108   1.672  1.7566 -1.0453  1.6855
12338SOL    HW237593   1.573  -0.023   1.729 -0.3218 -1.3642 -0.7301
12339SOL     OW37594   4.944   4.815   6.707 -0.6422 -0.4625 -0.2044
12339SOL    HW137595   4.858   4.773   6.709 -1.5883  1.3527  1.5115
12339SOL    HW237596   4.938   4.879   6.635 -0.6211 -0.5500 -0.2838
12340SOL     OW37597   7.398  10.000   0.100  0.4248  0.4121 -0.3571
12340SOL    HW137598   7.423   9.933   0.036 -1.5359 -0.7381 -0.0133
12340SOL    HW237599   7.463   9.993   0.169  1.4855  0.3670 -1.3272
12341SOL     OW37600   2.141   3.872   5.366  0.0976 -0.2538  0.1235
12341SOL    HW137601   2.235   3.884   5.383 -0.2676 -0.4300  2.7861
12341SOL    HW237602   2.100   3.953   5.397 -0.5361  0.8320 -3.1747
12342SOL     OW37603   3.215   3.700   3.248 -0.0592 -0.2342 -0.1420
12342SOL    HW137604   3.296   3.731   3.290  1.4528 -3.0428 -0.7505
12342SOL    HW237605   3.239   3.684   3.157 -1.9785  1.0349 -0.9336
12343SOL     OW37606   5.031   0.147   0.734 -0.2688 -0.6477  0.4199
12343SOL    HW137607   5.037   0.052   0.730  0.2495 -0.5785 -0.7971
12343SOL    HW237608   5.106   0.179   0.684 -1.2799  0.3808 -0.5263
12344SOL     OW37609   1.112   2.637   1.706 -0.0930 -0.1733  0.2640
12344SOL    HW137610   1.061   2.585   1.644  0.0449 -0.2362  0.2041
12344SOL    HW237611   1.144   2.711   1.655 -1.2179  0.5775  0.6027
12345SOL     OW37612   8.752   3.546   4.841  0.0916 -0.0207 -0.0512
12345SOL    HW137613   8.697   3.612   4.800  0.0003 -0.0589  0.0088
12345SOL    HW237614   8.726   3.547   4.934 -0.7236 -0.9375 -0.2538
12346SOL     OW37615   5.108   7.732   2.644 -0.4416 -0.4359 -1.0153
12346SOL    HW137616   5.122   7.798   2.712  0.7698  0.1932 -1.8365
12346SOL    HW237617   5.025   7.691   2.668  0.6417 -1.2661  1.6531
12347SOL     OW37618   2.572   8.728   1.502 -0.2484 -0.0447  0.2355
12347SOL    HW137619   2.547   8.667   1.433  1.5839 -0.9559  0.2968
12347SOL    HW237620   2.589   8.811   1.457 -0.3008 -0.2808 -0.2211
12348SOL     OW37621   2.461   9.371   0.716 -0.3923  0.1021 -0.6773
12348SOL    HW137622   2.453   9.315   0.793  0.2949 -2.2952 -2.2238
12348SOL    HW237623   2.428   9.456   0.744 -0.5408 -0.7844  2.1129
12349SOL     OW37624   3.108   3.310   3.938 -0.4194  0.1511  0.8145
12349SOL    HW137625   3.082   3.323   3.847  0.4123 -1.5536  0.2918
12349SOL    HW237626   3.148   3.223   3.939 -0.4638  0.1169  2.8291
12350SOL     OW37627   3.440   6.021   7.038 -0.3714 -0.2886  0.3067
12350SOL    HW137628   3.502   6.054   6.972 -1.1169  0.6477  0.0494
12350SOL    HW237629   3.485   6.032   7.121  0.0087 -0.0893  0.0785
12351SOL     OW37630   9.073   6.943   4.038  0.3358 -0.1995  0.6724
12351SOL    HW137631   9.166   6.950   4.059  1.0072 -0.6027 -1.8486
12351SOL    HW237632   9.059   7.007   3.969 -0.8727 -1.2093 -0.0706
12352SOL     OW37633   3.471   2.470   6.433 -0.4446  0.0991  0.0987
12352SOL    HW137634   3.557   2.504   6.456  0.5229 -1.7679 -0.5255
12352SOL    HW237635   3.474   2.458   6.338 -0.3354 -2.5217  0.3590
12353SOL     OW37636   2.676   2.226   3.752  0.1744 -0.2314  0.0776
12353SOL    HW137637   2.689   2.210   3.845 -0.7109 -2.6278 -0.1511
12353SOL    HW237638   2.590   2.267   3.747 -0.0417 -0.6487  0.2872
12354SOL     OW37639   6.160   3.051   4.203 -0.7248 -0.3439  0.1195
12354SOL    HW137640   6.110   3.058   4.121  1.1376 -0.0600 -1.0584
12354SOL    HW237641   6.122   2.976   4.247 -2.1568 -0.1660 -0.7243
12355SOL     OW37642   3.873   0.278   0.054 -0.0332  0.2613 -0.0365
12355SOL    HW137643   3.927   0.267  -0.024  0.2823  0.3461  0.1637
12355SOL    HW237644   3.937   0.289   0.125 -0.3124 -0.0579  0.2693
12356SOL     OW37645   8.101   7.978   3.209  0.4440  0.4968 -0.2117
12356SOL    HW137646   8.134   7.988   3.120  0.2723 -1.3754 -0.5117
12356SOL    HW237647   8.023   7.924   3.200 -0.3255  1.3634  0.9573
12357SOL     OW37648   6.162   8.549   2.403 -0.0012  0.6855 -0.0811
12357SOL    HW137649   6.239   8.500   2.375  1.1502  1.0540  2.1950
12357SOL    HW237650   6.098   8.535   2.333  1.8659 -0.2051 -1.7151
12358SOL     OW37651   8.296   2.555   6.555 -0.0601  0.0073 -0.4089
12358SOL    HW137652   8.312   2.468   6.591 -0.0493  1.3340  3.0974
12358SOL    HW237653   8.374   2.605   6.576 -0.8223  1.3588 -0.6765
12359SOL     OW37654   9.599   7.281   8.206  0.1130 -0.4324  0.3070
12359SOL    HW137655   9.584   7.224   8.282  1.3190 -0.7827  0.3019
12359SOL    HW237656   9.512   7.310   8.181 -0.3921 -1.0581  1.2573
12360SOL     OW37657   5.493   7.501   6.941  0.4136 -0.3223  0.3445
12360SOL    HW137658   5.441   7.576   6.969  0.4118  0.9239 -2.5764
12360SOL    HW237659   5.433   7.427   6.947 -0.7891  0.5750 -0.1251
12361SOL     OW37660   9.575   1.863   9.225 -0.0617 -0.1972 -0.3617
12361SOL    HW137661   9.505   1.856   9.291 -0.1391 -1.7216 -0.5839
12361SOL    HW237662   9.529   1.859   9.141  0.3264 -2.0814 -0.5209
12362SOL     OW37663   1.893   2.837   5.383 -0.0747  0.1916  0.0361
12362SOL    HW137664   1.975   2.793   5.402  0.2965  0.5732 -0.6367
12362SOL    HW237665   1.835   2.768   5.351 -0.1036 -0.1184  0.7335
12363SOL     OW37666   7.125   5.960   5.830  0.0701  0.0796 -0.1171
12363SOL    HW137667   7.033   5.940   5.845  0.6750 -3.0700  0.0235
12363SOL    HW237668   7.173   5.898   5.884  2.3537  1.9287  0.1710
12364SOL     OW37669   7.858   3.335   6.624 -0.4017 -0.6908 -0.5735
12364SOL    HW137670   7.880   3.244   6.603  1.3546  0.1031 -2.5867
12364SOL    HW237671   7.911   3.387   6.564  1.8823  1.8456  3.2014
12365SOL     OW37672   1.373   7.268   0.755  0.0915  0.0858 -0.2992
12365SOL    HW137673   1.450   7.319   0.781 -0.0444 -0.0261  0.3393
12365SOL    HW237674   1.352   7.300   0.667  1.6773 -0.8376 -1.0473
12366SOL     OW37675   7.169   9.296   2.645 -0.0589 -0.1978 -0.3301
12366SOL    HW137676   7.092   9.348   2.664 -0.4736 -0.9535  0.1150
12366SOL    HW237677   7.240   9.338   2.694  0.0806  1.1994 -1.6879
12367SOL     OW37678   5.934   5.280   7.890 -0.3661 -0.3448 -0.4724
12367SOL    HW137679   5.881   5.202   7.874 -0.5062 -0.6292  1.1284
12367SOL    HW237680   5.906   5.343   7.824  0.4443 -1.9387 -2.4230
12368SOL     OW37681   4.297   5.766   9.404 -0.0627 -0.3178  0.4700
12368SOL    HW137682   4.294   5.767   9.499 -2.0613  0.9611  0.4423
12368SOL    HW237683   4.346   5.686   9.382 -1.2790 -1.7144  2.5419
12369SOL     OW37684   4.456   9.702   9.188  0.1024  0.0719 -0.3693
12369SOL    HW137685   4.412   9.621   9.213  0.7131  0.3825  1.9039
12369SOL    HW237686   4.388   9.769   9.195  0.1209  0.0650 -0.1058
12370SOL     OW37687   9.312   9.369   3.302  0.4337  0.7663 -0.1674
12370SOL    HW137688   9.258   9.371   3.223 -0.3957 -0.3458  0.3520
12370SOL    HW237689   9.284   9.446   3.352 -1.2061 -0.1727  0.4238
12371SOL     OW37690   9.251   4.213   2.448 -0.2626  0.3698  0.2054
12371SOL    HW137691   9.271   4.301   2.416  0.4357 -0.1134 -0.7515
12371SOL    HW237692   9.272   4.215   2.541  0.3077  1.0500  0.0655
12372SOL     OW37693   2.588   2.769   2.704 -0.3795  0.2750  0.3913
12372SOL    HW137694   2.535   2.747   2.781  2.5819 -0.7514  2.3091
12372SOL    HW237695   2.557   2.708   2.637 -1.3225 -0.5964  1.5567
12373SOL     OW37696   7.534   6.821   7.745  0.5705 -0.1160  0.6140
12373SOL    HW137697   7.449   6.802   7.706  0.4825  1.3391  0.0368
12373SOL    HW237698   7.532   6.775   7.830  0.0071 -1.6984 -0.2080
12374SOL     OW37699   4.533   5.004   2.607  0.0854 -0.8387 -0.4998
12374SOL    HW137700   4.535   4.994   2.702 -1.0020  0.6220 -0.2851
12374SOL    HW237701   4.604   5.065   2.587 -1.4776  1.1929 -0.2239
12375SOL     OW37702   2.377   6.862   3.270 -0.2920  0.3326  0.3010
12375SOL    HW137703   2.471   6.876   3.263 -0.3261 -0.1945 -1.8836
12375SOL    HW237704   2.338   6.943   3.238 -0.6402  0.9936  2.2628
12376SOL     OW37705   9.326   1.408   9.702  0.0968 -0.3441 -0.0279
12376SOL    HW137706   9.312   1.460   9.782 -0.9825 -1.1617  0.3404
12376SOL    HW237707   9.309   1.318   9.729 -0.8707 -0.5777 -1.3034
12377SOL     OW37708   5.935   0.720   4.739 -0.3303 -0.3870 -0.1930
12377SOL    HW137709   5.995   0.789   4.766 -0.9929  0.2952 -0.4347
12377SOL    HW237710   5.985   0.639   4.748  0.5060  0.1407 -0.0626
12378SOL     OW37711   8.281   0.236   8.623  0.3678  0.7926 -0.2086
12378SOL    HW137712   8.309   0.319   8.662 -1.5950  1.8049 -0.8116
12378SOL    HW237713   8.227   0.262   8.548 -1.6797 -0.9782  0.5560
12379SOL     OW37714   9.478   9.556   2.871 -0.3985 -0.2023 -0.0722
12379SOL    HW137715   9.503   9.573   2.780  0.3871 -0.6060  0.0575
12379SOL    HW237716   9.439   9.469   2.869 -0.8120 -0.0237 -0.0878
12380SOL     OW37717   2.584   8.388   6.998 -0.6725 -0.2963  0.1193
12380SOL    HW137718   2.531   8.402   7.077 -0.4475 -0.9890  0.4011
12380SOL    HW237719   2.542   8.443   6.931 -2.2597 -1.4387  0.1036
12381SOL     OW37720   7.259   3.855   3.076 -0.1494  0.3909 -0.3994
12381SOL    HW137721   7.238   3.762   3.065  0.7372  0.2052 -0.5991
12381SOL    HW237722   7.201   3.885   3.145 -0.7270 -0.2164 -0.6134
12382SOL     OW37723   6.404   8.307   5.307 -0.7216  0.6062 -0.0028
12382SOL    HW137724   6.348   8.317   5.230  0.0942 -0.2423 -0.7241
12382SOL    HW237725   6.343   8.300   5.380 -1.6456 -1.6042 -0.8911
12383SOL     OW37726   5.142   8.784   1.528 -0.6624 -0.5296 -0.2779
12383SOL    HW137727   5.053   8.796   1.563 -0.6500 -0.7983 -0.1560
12383SOL    HW237728   5.145   8.844   1.453 -1.0246 -0.6818 -0.4190
12384SOL     OW37729   2.889   4.076   8.867  0.1617 -0.0342 -0.5682
12384SOL    HW137730   2.830   4.072   8.942  2.9274 -0.7990  1.7349
12384SOL    HW237731   2.863   4.156   8.821 -1.6424  0.4651  1.1644
12385SOL     OW37732   2.962   0.052   5.865 -0.1266  0.0619  0.0338
12385SOL    HW137733   2.981   0.128   5.920 -2.1624 -0.4076  1.4731
12385SOL    HW237734   2.984  -0.023   5.919 -1.2612 -0.3959 -0.1206
12386SOL     OW37735   1.769   9.881   5.374  0.0676 -0.1022 -0.2393
12386SOL    HW137736   1.865   9.891   5.373  0.1990 -1.0121 -2.1707
12386SOL    HW237737   1.741   9.913   5.288 -1.4432  0.6761  0.5148
12387SOL     OW37738   8.062   3.018   7.249 -0.6770 -0.2831 -0.4881
12387SOL    HW137739   8.081   2.932   7.212  1.6188 -0.1429  0.2362
12387SOL    HW237740   8.093   3.012   7.339 -0.0186  1.4461 -0.5781
12388SOL     OW37741   4.515   7.822   9.916 -0.0046  0.1870 -0.0295
12388SOL    HW137742   4.568   7.874   9.976 -0.5622  0.7065  0.0215
12388SOL    HW237743   4.553   7.840   9.830  1.1707 -1.0150  0.2007
12389SOL     OW37744   8.801   9.223   2.197  0.5262 -0.3109 -0.0225
12389SOL    HW137745   8.881   9.184   2.162  0.1397 -1.1946  0.0532
12389SOL    HW237746   8.828   9.310   2.227  0.9068  0.4426 -2.3655
12390SOL     OW37747   7.916   8.214   8.301  0.3166  0.0841 -0.3587
12390SOL    HW137748   7.981   8.167   8.250  0.5855 -0.1707  0.2095
12390SOL    HW237749   7.920   8.304   8.268  1.3943  0.2147  0.0853
12391SOL     OW37750   3.688   5.408   9.813 -0.2358  0.5890  0.0605
12391SOL    HW137751   3.640   5.431   9.733  0.2160 -0.4840 -0.5293
12391SOL    HW237752   3.708   5.315   9.803  1.6108  0.9083  0.4823
12392SOL     OW37753   6.180   0.496   1.148  0.0187 -0.3028 -0.4589
12392SOL    HW137754   6.109   0.519   1.208  0.9414 -1.1473  0.9915
12392SOL    HW237755   6.219   0.580   1.124  0.1217  0.0035  0.7349
12393SOL     OW37756   5.204   3.879   2.027  0.1169  0.3182  0.1964
12393SOL    HW137757   5.218   3.955   2.084  0.8157  0.2819  0.0842
12393SOL    HW237758   5.290   3.838   2.020 -0.1850 -0.2929 -0.0232
12394SOL     OW37759   4.960   6.204   4.728 -0.0713  0.6439  0.8099
12394SOL    HW137760   5.042   6.175   4.769  0.5407 -0.0354 -0.8285
12394SOL    HW237761   4.985   6.230   4.640 -1.8158 -0.9498 -0.2360
12395SOL     OW37762   4.842   2.078   5.146  0.1804 -0.6760  0.1096
12395SOL    HW137763   4.881   2.159   5.178  0.4300 -0.3302 -1.0225
12395SOL    HW237764   4.875   2.010   5.206  1.7676 -0.2527 -0.2529
12396SOL     OW37765   6.526   6.522   5.863  0.3105  0.0024 -0.4351
12396SOL    HW137766   6.433   6.505   5.845  0.2775  0.0333 -0.2909
12396SOL    HW237767   6.543   6.480   5.947  0.5933 -0.5767 -0.7714
12397SOL     OW37768   2.708   7.072   9.880  0.3347 -0.1851 -0.2014
12397SOL    HW137769   2.770   7.145   9.878  2.2087 -1.7056 -1.6437
12397SOL    HW237770   2.679   7.063   9.789 -0.9575 -0.3986  0.2109
12398SOL     OW37771   5.472   4.072   7.739  0.0643 -0.0190 -0.1076
12398SOL    HW137772   5.503   3.982   7.730  0.4638  0.1563 -0.5453
12398SOL    HW237773   5.531   4.123   7.683 -0.3120  0.4782 -0.0561
12399SOL     OW37774   9.049   9.585   6.645 -0.0898 -0.3088 -0.3355
12399SOL    HW137775   9.018   9.500   6.613  0.5935 -0.0574 -1.7018
12399SOL    HW237776   8.972   9.624   6.687 -0.5603 -1.3572 -0.1994
12400SOL     OW37777   4.316   5.562   0.842 -0.2910  0.0719 -0.2107
12400SOL    HW137778   4.226   5.585   0.822  0.1446  0.4708 -1.8750
12400SOL    HW237779   4.347   5.515   0.765  1.8070  2.5896 -1.0831
12401SOL     OW37780   2.082   6.533   1.385 -0.1880 -0.0419 -0.1367
12401SOL    HW137781   2.087   6.606   1.447 -1.0192  0.3069 -0.4612
12401SOL    HW237782   2.108   6.571   1.301  0.7369 -0.4652 -0.0550
12402SOL     OW37783   3.716   2.851   0.170 -0.1819  0.2187 -0.0941
12402SOL    HW137784   3.750   2.939   0.184  0.4835  0.2665 -1.8038
12402SOL    HW237785   3.638   2.846   0.227  1.5309  0.7610  2.4593
12403SOL     OW37786   9.527   1.284   5.539 -0.5305  0.0044 -0.2474
12403SOL    HW137787   9.537   1.271   5.633 -3.0922  1.8181  0.3771
12403SOL    HW237788   9.549   1.199   5.501 -0.8621 -1.2219  2.0866
12404SOL     OW37789   9.644   2.686   5.736  0.0337  0.0930  0.3863
12404SOL    HW137790   9.690   2.753   5.686  0.4646 -0.2605  0.2944
12404SOL    HW237791   9.616   2.730   5.816  1.1909  0.1492  0.7867
12405SOL     OW37792   7.473   0.709   4.443 -0.7372  0.6244 -0.0776
12405SOL    HW137793   7.519   0.706   4.527 -0.1770  2.0503 -0.2920
12405SOL    HW237794   7.476   0.619   4.410  0.6778  0.4030  0.5718
12406SOL     OW37795   8.099   4.467   9.680  0.3034  0.2762  0.4072
12406SOL    HW137796   8.042   4.435   9.749 -0.5007 -0.9268 -0.7877
12406SOL    HW237797   8.064   4.554   9.659  0.3026  0.4792  1.1933
12407SOL     OW37798   0.282   3.583   7.622  0.2616  0.7128 -0.5219
12407SOL    HW137799   0.269   3.640   7.546  1.5967  2.0479  0.2167
12407SOL    HW237800   0.200   3.590   7.671 -0.5045  0.0696 -1.6514
12408SOL     OW37801   7.740   3.943   4.404  0.2948  0.0498  0.3878
12408SOL    HW137802   7.773   3.961   4.316 -1.4742 -1.3443 -0.6385
12408SOL    HW237803   7.805   3.982   4.463  1.1468  1.6667 -1.5195
12409SOL     OW37804   5.515   7.096   7.925  0.9418 -0.1075 -0.3735
12409SOL    HW137805   5.598   7.134   7.897  1.2749 -0.5614 -0.0313
12409SOL    HW237806   5.474   7.064   7.844  0.1454  1.8978 -0.8219
12410SOL     OW37807   7.755   3.852   0.254  0.3103 -0.1029  0.1695
12410SOL    HW137808   7.826   3.812   0.304  2.9782  1.5375 -2.0005
12410SOL    HW237809   7.753   3.802   0.172 -1.2318 -0.2682  0.2934
12411SOL     OW37810   4.771   5.754   5.418  0.0173 -0.2916  0.4014
12411SOL    HW137811   4.762   5.731   5.326  1.8889 -2.0286  0.5860
12411SOL    HW237812   4.746   5.674   5.465 -2.3311  1.0030  1.5266
12412SOL     OW37813   5.023   4.018   4.234  0.2885 -0.2880 -0.2551
12412SOL    HW137814   5.064   4.097   4.268  1.8868 -0.9103 -0.6541
12412SOL    HW237815   4.984   4.046   4.150 -0.0732  0.2890  0.0927
12413SOL     OW37816   0.945   5.500   9.308 -0.5962 -0.1847  0.4082
12413SOL    HW137817   0.871   5.553   9.279 -0.2520 -0.7785 -1.6960
12413SOL    HW237818   0.930   5.487   9.402 -3.3684 -0.5974 -0.0135
12414SOL     OW37819   0.452   9.116   2.864  0.3342 -0.2113  0.0319
12414SOL    HW137820   0.502   9.049   2.817  1.2284 -0.0786  0.7620
12414SOL    HW237821   0.471   9.197   2.818 -1.3317 -0.5080 -1.3121
12415SOL     OW37822   3.285   8.931   5.668 -0.3915 -0.4599 -0.1229
12415SOL    HW137823   3.254   8.865   5.606  0.5733  0.3068 -1.4832
12415SOL    HW237824   3.234   8.916   5.748 -2.6539 -0.6305 -1.5229
12416SOL     OW37825   4.142   6.011   8.103 -0.2375  0.0774 -0.0734
12416SOL    HW137826   4.150   5.987   8.195 -0.3490  3.2878  0.9125
12416SOL    HW237827   4.085   5.944   8.065 -0.8929 -0.8716  2.3782
12417SOL     OW37828   6.855   8.090   2.667 -0.7468 -0.1592  0.1077
12417SOL    HW137829   6.885   8.131   2.748  2.1007  0.4051 -1.1145
12417SOL    HW237830   6.854   7.997   2.687 -1.6451  0.0473  1.2012
12418SOL     OW37831   5.062   4.876   2.500 -0.4063 -0.1037  0.2354
12418SOL    HW137832   5.054   4.817   2.424 -1.5399  1.6551 -1.1081
12418SOL    HW237833   4.976   4.873   2.541  0.0613 -0.6720  1.2074
12419SOL     OW37834   3.103   2.528   1.155 -0.1652  0.5457 -0.3232
12419SOL    HW137835   3.096   2.433   1.159 -2.7433  0.6352 -1.1709
12419SOL    HW237836   3.099   2.548   1.061 -1.6065  1.5621 -0.0784
12420SOL     OW37837   8.140   4.128   7.640 -0.3932  0.0662 -0.3533
12420SOL    HW137838   8.069   4.094   7.586 -0.4473 -0.6450  0.1690
12420SOL    HW237839   8.116   4.219   7.656 -1.5600 -0.3561  0.4281
12421SOL     OW37840   8.256   6.362   9.564 -0.6742  0.0471 -0.0874
12421SOL    HW137841   8.301   6.391   9.484 -1.9152  1.6062 -0.2733
12421SOL    HW237842   8.181   6.421   9.571  0.1338  0.8874  2.9747
12422SOL     OW37843   6.854   3.298   6.843  0.2998 -0.3953 -0.9925
12422SOL    HW137844   6.940   3.330   6.869 -0.5028  1.2546 -0.1934
12422SOL    HW237845   6.872   3.223   6.787  2.2316 -0.4987 -0.3125
12423SOL     OW37846   0.766   9.622   3.781  0.6780  0.5855 -0.3685
12423SOL    HW137847   0.839   9.561   3.772 -0.5906 -0.7674 -2.4865
12423SOL    HW237848   0.689   9.566   3.790 -0.2147  1.9537  0.8881
12424SOL     OW37849   7.920   0.155   2.120 -0.2192 -0.4123 -0.5335
12424SOL    HW137850   7.965   0.102   2.054 -2.3097 -1.6674 -1.0789
12424SOL    HW237851   7.952   0.244   2.106  2.9637 -1.3422 -0.0002
12425SOL     OW37852   2.793   3.489   9.232 -0.1850 -0.1564 -0.4646
12425SOL    HW137853   2.877   3.531   9.217 -0.3812 -0.1224 -1.5377
12425SOL    HW237854   2.815   3.399   9.257  0.1733 -0.0809 -0.5075
12426SOL     OW37855   8.309   6.247   5.602 -0.0175  1.1227 -0.1691
12426SOL    HW137856   8.384   6.244   5.543  0.3062  0.7374  0.2457
12426SOL    HW237857   8.308   6.160   5.643 -1.6470  0.5332 -1.3315
12427SOL     OW37858   9.155   3.779   2.576 -0.2982  0.1193  0.1207
12427SOL    HW137859   9.193   3.800   2.662  0.3020 -0.1697 -0.0688
12427SOL    HW237860   9.219   3.813   2.513  0.8478 -2.4099 -0.2093
12428SOL     OW37861   9.812   8.522   7.943  0.3454 -0.5655  0.5610
12428SOL    HW137862   9.731   8.546   7.987 -0.5512 -0.6562 -0.9614
12428SOL    HW237863   9.873   8.593   7.964 -0.9844  0.9471 -0.4955
12429SOL     OW37864   3.295   0.975   6.376 -0.9959  0.0437 -0.6585
12429SOL    HW137865   3.346   0.900   6.407 -1.4490 -0.7382 -1.7395
12429SOL    HW237866   3.215   0.936   6.340 -3.4461  1.3263  2.8423
12430SOL     OW37867   4.097   1.156   6.031 -0.6372  0.6022  0.2205
12430SOL    HW137868   4.149   1.092   6.078 -1.2984 -0.6712 -0.7041
12430SOL    HW237869   4.147   1.175   5.952 -1.0187  0.2669 -0.1065
12431SOL     OW37870   1.907   7.085   1.454  0.3785  0.1864  0.2569
12431SOL    HW137871   1.909   6.998   1.415  0.5474  0.1491  0.3478
12431SOL    HW237872   1.821   7.120   1.431  0.4168  0.1030 -0.0120
12432SOL     OW37873   3.788   4.888   2.983 -0.5548  0.6278  0.4769
12432SOL    HW137874   3.751   4.848   2.904  0.9071 -0.1970  0.1578
12432SOL    HW237875   3.750   4.838   3.055 -0.8415  0.4629  0.2141
12433SOL     OW37876   6.943   2.542   0.278  0.1180 -0.1715 -0.1035
12433SOL    HW137877   7.038   2.552   0.276 -0.0035  1.0300 -0.7300
12433SOL    HW237878   6.921   2.535   0.371  0.5654  2.6784  0.3010
12434SOL     OW37879   8.678   3.437   7.720  0.3018 -0.4371 -0.7805
12434SOL    HW137880   8.603   3.381   7.704 -1.0644  1.1916 -0.3986
12434SOL    HW237881   8.700   3.424   7.812 -1.0206  0.7627 -0.2624
12435SOL     OW37882   8.784   8.365   6.735  0.0514 -0.3418  0.1337
12435SOL    HW137883   8.695   8.341   6.761  0.0818  1.2125  1.9533
12435SOL    HW237884   8.821   8.405   6.814  0.8156  3.0997 -1.7756
12436SOL     OW37885   5.795   3.089   6.276 -0.8251 -0.3409 -0.1535
12436SOL    HW137886   5.829   3.163   6.225 -0.8263 -0.2579 -0.0360
12436SOL    HW237887   5.729   3.129   6.334 -0.2043 -0.2927  0.5284
12437SOL     OW37888   6.721   6.109   2.025 -0.4361 -0.3821 -0.3972
12437SOL    HW137889   6.755   6.158   2.101 -1.3496 -1.0242  0.4444
12437SOL    HW237890   6.734   6.168   1.951  1.2169 -0.0494  0.1070
12438SOL     OW37891   7.212   5.720   7.998  0.3128  0.0847  0.4035
12438SOL    HW137892   7.141   5.672   7.954  0.7054  1.5781 -2.0309
12438SOL    HW237893   7.177   5.808   8.011  0.8485  0.1437  1.5067
12439SOL     OW37894   0.658   9.762   5.803  0.0934 -0.3131  0.2920
12439SOL    HW137895   0.673   9.668   5.790  0.5761 -0.0281 -1.4793
12439SOL    HW237896   0.663   9.774   5.898  2.2496 -1.7346  0.4333
12440SOL     OW37897   0.724   4.473   7.031  0.1244 -0.4676 -0.1763
12440SOL    HW137898   0.708   4.461   6.938 -2.5782  2.2393 -0.2363
12440SOL    HW237899   0.707   4.387   7.070  1.5998 -1.7122 -2.1256
12441SOL     OW37900   7.454   2.442   4.670  0.3580  0.4720  0.4598
12441SOL    HW137901   7.430   2.365   4.722  1.7282  0.8507  1.7480
12441SOL    HW237902   7.522   2.410   4.610 -1.7396 -0.1351 -1.7257
12442SOL     OW37903   6.253   1.865   8.590  0.3788  0.8327  0.2027
12442SOL    HW137904   6.243   1.960   8.588 -0.0697  0.7939  0.6508
12442SOL    HW237905   6.198   1.833   8.519 -1.4529  0.7382  1.6119
12443SOL     OW37906   2.740   1.502   8.118 -0.1648 -0.2064  0.9433
12443SOL    HW137907   2.752   1.412   8.150 -1.3130 -0.1436  1.6042
12443SOL    HW237908   2.785   1.503   8.034 -3.7415 -2.7683 -1.3273
12444SOL     OW37909   3.825   5.800   6.909  0.6752 -0.1872  0.0799
12444SOL    HW137910   3.850   5.891   6.924 -1.0748  0.4161 -0.4259
12444SOL    HW237911   3.902   5.749   6.935  2.4103  1.5129 -1.4639
12445SOL     OW37912   4.528   9.790   3.945  0.0315 -0.6662  0.0532
12445SOL    HW137913   4.609   9.822   3.904  0.1545 -1.8819 -0.6825
12445SOL    HW237914   4.525   9.836   4.030  0.7043  0.5161 -0.5346
12446SOL     OW37915   6.964   5.482   3.259  0.2775  0.6912  0.1247
12446SOL    HW137916   6.882   5.434   3.274  1.2053 -1.7593 -1.9607
12446SOL    HW237917   7.005   5.487   3.345 -1.2106  0.3319  0.8877
12447SOL     OW37918   2.032   3.559   3.802 -0.1925 -0.1826  0.1820
12447SOL    HW137919   2.062   3.650   3.792  2.1305 -0.8624  0.3907
12447SOL    HW237920   1.967   3.548   3.733 -1.4291  1.9582  0.8911
12448SOL     OW37921   3.758   5.059   5.076  0.6218  0.4661 -0.0395
12448SOL    HW137922   3.709   4.983   5.104 -1.5954  0.5820 -3.1127
12448SOL    HW237923   3.848   5.042   5.105 -0.0702 -2.6127  0.6258
12449SOL     OW37924   1.459   5.921   2.557 -0.0572 -0.4780 -0.0892
12449SOL    HW137925   1.497   5.921   2.645 -0.4516  0.3964  0.0860
12449SOL    HW237926   1.396   5.849   2.559 -0.6523  0.0472  0.6067
12450SOL     OW37927   1.113   4.584   8.797  0.5378 -0.4764  0.2194
12450SOL    HW137928   1.145   4.630   8.875 -0.7195 -1.9637  1.6954
12450SOL    HW237929   1.153   4.497   8.804 -0.4698 -0.9819 -0.2031
12451SOL     OW37930   9.263   2.750   0.596 -0.2446  0.1014  0.0802
12451SOL    HW137931   9.281   2.734   0.689 -3.0632 -0.9290  0.5618
12451SOL    HW237932   9.266   2.845   0.587 -1.9060  0.3719  1.7646
12452SOL     OW37933   4.166   9.303   9.191  0.3517  0.2320  0.3428
12452SOL    HW137934   4.169   9.208   9.205  1.1496  0.1293 -0.4881
12452SOL    HW237935   4.248   9.335   9.229 -0.0264  0.6254  0.8365
12453SOL     OW37936   8.080   9.044   5.409  0.3039 -1.2926  0.3276
12453SOL    HW137937   8.002   9.027   5.356 -2.2664  1.3686  2.8810
12453SOL    HW237938   8.055   9.017   5.498  3.1089 -2.2602  0.9282
12454SOL     OW37939   9.903   1.422   2.284  0.2943  0.0397 -0.1239
12454SOL    HW137940   9.928   1.339   2.327 -0.7302 -0.5069 -0.5647
12454SOL    HW237941   9.943   1.490   2.339  1.9715 -0.7611 -0.2912
12455SOL     OW37942   2.005   6.184   4.587  0.4762  0.0662  0.2956
12455SOL    HW137943   2.014   6.228   4.671  1.6035  0.1882  0.1304
12455SOL    HW237944   1.973   6.253   4.528  0.8415  0.2977  0.3623
12456SOL     OW37945   8.111   6.305   0.879 -0.5946  0.5004  0.0862
12456SOL    HW137946   8.186   6.276   0.932 -1.0066 -0.8707 -0.0266
12456SOL    HW237947   8.137   6.390   0.845  0.4611  0.5443  0.9478
12457SOL     OW37948   1.577   7.783   9.859  0.6892  0.0323 -0.3580
12457SOL    HW137949   1.655   7.833   9.836  0.7302  0.4959  0.7170
12457SOL    HW237950   1.611   7.702   9.899  0.6153 -0.4035 -1.1532
12458SOL     OW37951   2.512   0.876   1.507  0.6633 -0.4696  0.1034
12458SOL    HW137952   2.547   0.961   1.533  1.5846 -1.0513  0.8325
12458SOL    HW237953   2.489   0.833   1.589  0.0676 -0.8813 -0.2632
12459SOL     OW37954   2.888   5.541   7.540 -0.8303  0.3695 -0.0025
12459SOL    HW137955   2.816   5.484   7.568  0.4763 -0.4476  1.9188
12459SOL    HW237956   2.919   5.502   7.458 -1.4614 -0.3268  0.0772
12460SOL     OW37957   8.549  -0.006   3.902  0.1292 -0.1868  0.4222
12460SOL    HW137958   8.567   0.008   3.809 -0.7273  0.2645  0.3088
12460SOL    HW237959   8.454  -0.002   3.908 -0.0100 -2.6028  0.9574
12461SOL     OW37960   0.458   1.665   6.565  0.0618  0.0703 -0.1305
12461SOL    HW137961   0.522   1.594   6.562 -0.9120 -0.8230 -0.4806
12461SOL    HW237962   0.384   1.632   6.515 -0.0881  1.6891 -1.0226
12462SOL     OW37963   5.200   8.485   7.515  0.0393 -0.6502 -0.0122
12462SOL    HW137964   5.275   8.427   7.532 -0.0286 -1.1867 -1.3846
12462SOL    HW237965   5.229   8.571   7.546  1.6553 -0.6247 -1.4267
12463SOL     OW37966   0.692   7.410   4.111  0.5108  0.1358 -0.2526
12463SOL    HW137967   0.610   7.409   4.061 -0.1618  0.7717  0.7867
12463SOL    HW237968   0.760   7.422   4.045 -0.1321 -1.2861 -1.2446
12464SOL     OW37969   6.097   3.981   0.905  0.4199  0.1511  0.1719
12464SOL    HW137970   6.034   3.992   0.976  0.0023 -2.6504  0.3339
12464SOL    HW237971   6.046   3.945   0.832  1.8673 -3.4852  0.7369
12465SOL     OW37972   7.572   1.167   2.096 -0.1237  0.1758 -0.1556
12465SOL    HW137973   7.477   1.177   2.101 -0.0719  0.7732 -0.2925
12465SOL    HW237974   7.601   1.240   2.041  0.5534  0.8055  1.0094
12466SOL     OW37975   7.934   5.206   9.245  0.3568 -0.8256 -0.5084
12466SOL    HW137976   7.866   5.269   9.271  2.7957  1.9553 -0.3137
12466SOL    HW237977   7.931   5.139   9.313  0.5021  1.4649  1.9291
12467SOL     OW37978   9.822   5.280   8.171 -0.0481 -0.9613 -0.4147
12467SOL    HW137979   9.735   5.313   8.193  0.7881  1.8392 -0.9012
12467SOL    HW237980   9.865   5.354   8.127  2.3771 -2.4454 -0.7083
12468SOL     OW37981   5.127   0.263   8.243 -0.2241 -0.0839  0.3080
12468SOL    HW137982   5.155   0.189   8.297  1.1253  0.3388  0.2305
12468SOL    HW237983   5.150   0.340   8.295  3.3401  0.4427 -1.7127
12469SOL     OW37984   2.407   0.835   2.819  0.5798  0.1171  0.9622
12469SOL    HW137985   2.388   0.795   2.734 -2.9251  0.3097  1.5241
12469SOL    HW237986   2.449   0.918   2.797  1.6255 -0.7177 -0.4444
12470SOL     OW37987   1.222   5.279   2.008  0.2131  0.3688  0.2958
12470SOL    HW137988   1.299   5.241   2.050  3.2455  3.7404 -1.6409
12470SOL    HW237989   1.178   5.204   1.966  4.5010 -1.4805 -1.5084
12471SOL     OW37990   9.913   1.882   3.288  0.4423 -0.6866  0.2744
12471SOL    HW137991   9.898   1.937   3.211  0.8507  1.1264  1.4466
12471SOL    HW237992   9.906   1.792   3.254 -1.7709  0.0229 -1.4027
12472SOL     OW37993   1.285   1.903   6.222  0.4002  0.0149 -0.1529
12472SOL    HW137994   1.236   1.821   6.227  1.2196 -0.4685  0.1552
12472SOL    HW237995   1.236   1.963   6.278  0.4473 -0.6293  0.6114
12473SOL     OW37996   7.983   2.555   3.095 -0.3289  0.0954  0.5224
12473SOL    HW137997   8.025   2.471   3.113 -1.9980 -0.9140 -0.0340
12473SOL    HW237998   7.918   2.536   3.027 -1.2365  1.6798  0.8779
12474SOL     OW37999   2.854   8.553   5.361  0.2342 -0.2040 -0.0008
12474SOL    HW138000   2.846   8.499   5.282  0.6757 -0.6234  0.2344
12474SOL    HW238001   2.777   8.531   5.413  1.0560 -1.6084  0.6840
12475SOL     OW38002   5.837   7.886   2.757 -0.5045  0.1906 -0.1177
12475SOL    HW138003   5.771   7.871   2.824 -1.1338  0.6346 -0.6301
12475SOL    HW238004   5.874   7.799   2.740 -0.1796  0.1022  0.9421
12476SOL     OW38005   3.820   7.375   1.409  0.1363 -0.0089  0.2547
12476SOL    HW138006   3.854   7.308   1.468 -0.2291  0.0939  0.5849
12476SOL    HW238007   3.832   7.338   1.321 -0.6556 -0.7920  0.4617
12477SOL     OW38008   1.160   1.210   3.783 -0.1507  0.1305  0.8002
12477SOL    HW138009   1.069   1.240   3.792  0.0854  0.8684  0.8472
12477SOL    HW238010   1.154   1.126   3.738 -0.7691  0.8731 -0.5702
12478SOL     OW38011   9.172   2.587   8.146  0.5995 -0.0796 -0.2294
12478SOL    HW138012   9.261   2.570   8.115  0.3371  0.3348 -1.2726
12478SOL    HW238013   9.120   2.518   8.104  0.7538 -1.9143  2.3901
12479SOL     OW38014   0.649   6.770   5.847 -0.4111  0.2025 -0.1089
12479SOL    HW138015   0.589   6.758   5.920 -0.1929 -1.3521 -0.1579
12479SOL    HW238016   0.708   6.695   5.851  0.3151  0.6866 -1.2087
12480SOL     OW38017   5.123   1.524   5.138 -0.1867  0.3398  0.3891
12480SOL    HW138018   5.192   1.587   5.156 -1.4807  1.2964  2.5145
12480SOL    HW238019   5.093   1.545   5.050  1.0614  1.0453  0.1151
12481SOL     OW38020   2.405   4.387   7.817  0.1061  0.3229 -0.6693
12481SOL    HW138021   2.487   4.350   7.785 -1.8790 -4.3858 -1.1640
12481SOL    HW238022   2.419   4.400   7.911  1.4397 -0.4547 -0.7417
12482SOL     OW38023   4.202   9.650   8.878 -0.0043 -0.0484  0.1561
12482SOL    HW138024   4.195   9.746   8.880 -1.0692 -0.1191  0.7637
12482SOL    HW238025   4.175   9.623   8.966  0.9380 -0.8840  0.2086
12483SOL     OW38026   2.849   5.211   6.079 -0.3261  0.2478 -0.0198
12483SOL    HW138027   2.779   5.274   6.059 -0.4072 -0.0020 -0.5278
12483SOL    HW238028   2.921   5.266   6.111 -1.3841  0.3766  2.3933
12484SOL     OW38029   4.263   2.603   0.474 -0.4023 -0.0636  0.8513
12484SOL    HW138030   4.186   2.569   0.429 -0.2116 -2.0227  1.8983
12484SOL    HW238031   4.316   2.526   0.494  1.5309  1.1593  0.7522
12485SOL     OW38032   1.400   4.839   5.601 -0.0043 -0.3946 -0.1444
12485SOL    HW138033   1.474   4.780   5.590  0.7257  0.5503 -0.4402
12485SOL    HW238034   1.439   4.925   5.615 -1.0380  0.2431 -0.9814
12486SOL     OW38035   9.900   1.494   3.786 -0.2260 -0.1170  0.3519
12486SOL    HW138036   9.992   1.502   3.759 -0.6800  0.8339 -1.0283
12486SOL    HW238037   9.860   1.440   3.718 -0.8417  0.0540  0.5721
12487SOL     OW38038   5.026   2.318   4.758 -0.0288  0.3772  0.2383
12487SOL    HW138039   5.022   2.308   4.663 -0.5861 -0.7319  0.3555
12487SOL    HW238040   5.097   2.260   4.785  0.2510  0.8326  0.4792
12488SOL     OW38041   7.234   0.980   8.595  0.1026  0.1263 -0.4246
12488SOL    HW138042   7.263   1.025   8.516  1.9311 -0.0811  0.0851
12488SOL    HW238043   7.279   0.896   8.594  1.1555  0.6064  1.4188
12489SOL     OW38044   9.377   0.469   4.310 -0.1529  0.4282  0.0125
12489SOL    HW138045   9.351   0.406   4.376 -2.3725 -0.6066 -1.7168
12489SOL    HW238046   9.434   0.419   4.251  2.5926  1.5880  1.5252
12490SOL     OW38047   7.401   0.745   9.190  0.1181  0.3758  0.2006
12490SOL    HW138048   7.429   0.679   9.126 -0.1830  0.9100 -0.4968
12490SOL    HW238049   7.314   0.717   9.216  0.1629  0.2640  0.2314
12491SOL     OW38050   5.360   1.529   2.408 -0.4133  0.2650  0.3655
12491SOL    HW138051   5.344   1.435   2.396 -1.3509  0.3047  1.1825
12491SOL    HW238052   5.312   1.551   2.488  0.7176  1.2150  0.8056
12492SOL     OW38053   0.995   3.791   6.729  0.9988 -0.5788  0.4309
12492SOL    HW138054   1.067   3.791   6.791  0.8158 -0.4950  0.6442
12492SOL    HW238055   0.959   3.879   6.735  0.1189 -0.9743  1.2114
12493SOL     OW38056   9.641   2.391   7.221 -0.6188 -0.3538 -0.0970
12493SOL    HW138057   9.711   2.345   7.267 -0.1086 -1.1553 -1.6073
12493SOL    HW238058   9.686   2.460   7.172 -0.8149 -0.9980 -1.2365
12494SOL     OW38059   9.414   2.246   5.653  0.4281  0.6183 -0.3889
12494SOL    HW138060   9.467   2.235   5.732 -2.2419  0.4615  1.5273
12494SOL    HW238061   9.388   2.338   5.654 -1.3889  0.1484  0.2161
12495SOL     OW38062   3.277   8.993   0.424 -0.2292 -0.0745 -0.7584
12495SOL    HW138063   3.191   9.031   0.407  0.7824  2.0637 -1.4163
12495SOL    HW238064   3.326   9.007   0.344  1.3749  0.7056  0.2939
12496SOL     OW38065   9.922   7.986   0.850 -0.3283  0.6615 -0.5222
12496SOL    HW138066   9.926   7.924   0.923 -0.8423 -1.6052 -2.3005
12496SOL    HW238067   9.839   8.032   0.861 -0.0505  0.8996  0.7020
12497SOL     OW38068   7.783   4.394   8.757 -0.4569 -1.3575 -0.0294
12497SOL    HW138069   7.804   4.478   8.715  1.9367 -2.4538 -1.1730
12497SOL    HW238070   7.771   4.416   8.849 -0.9095  0.3707 -0.4583
12498SOL     OW38071   1.535   5.876   1.602  0.0509  0.2640  0.4721
12498SOL    HW138072   1.494   5.790   1.594  1.1185 -0.4534  2.0807
12498SOL    HW238073   1.520   5.918   1.518  0.8389 -2.1058 -0.9378
12499SOL     OW38074   1.475   1.418   2.695 -0.4677  0.2442  0.0773
12499SOL    HW138075   1.508   1.349   2.754 -1.1458  1.3648  1.8512
12499SOL    HW238076   1.419   1.372   2.633 -2.2214 -0.6618  2.2220
12500SOL     OW38077   0.025   7.903   0.376 -0.0952  0.1037 -0.4594
12500SOL    HW138078   0.037   7.809   0.364 -0.6770 -0.1838  1.0115
12500SOL    HW238079   0.028   7.939   0.287  1.3619 -1.1361 -0.9507
12501SOL     OW38080   4.286   9.426   6.687 -0.5756 -0.0844 -0.0237
12501SOL    HW138081   4.343   9.426   6.611 -0.2862 -0.3103  0.1876
12501SOL    HW238082   4.276   9.333   6.709  0.3078  0.0132  0.9120
12502SOL     OW38083   8.388   5.653   6.083  0.1257 -0.4317  0.2763
12502SOL    HW138084   8.472   5.696   6.069  0.3194 -0.9228 -0.0760
12502SOL    HW238085   8.355   5.693   6.164  0.8985 -0.5430  0.6660
12503SOL     OW38086   6.511   5.728   0.540  0.0534 -0.1937 -0.3055
12503SOL    HW138087   6.419   5.731   0.511 -0.6098 -1.8889  1.3950
12503SOL    HW238088   6.511   5.662   0.610  2.5927 -0.2342 -0.2855
12504SOL     OW38089   4.697   6.489   2.339 -0.4710  0.0519  0.0039
12504SOL    HW138090   4.697   6.571   2.289  0.8554 -0.2376 -0.5173
12504SOL    HW238091   4.610   6.452   2.325 -0.5327  0.5755 -1.1049
12505SOL     OW38092   1.115   3.006   5.505  0.1575  0.1750  0.2106
12505SOL    HW138093   1.126   2.911   5.504 -1.6204 -0.0765 -1.7809
12505SOL    HW238094   1.179   3.038   5.442  0.4545  0.2777  0.5591
12506SOL     OW38095   8.360   0.011   7.926 -0.0671  0.4674 -0.7565
12506SOL    HW138096   8.387  -0.063   7.872  0.9203  0.7966 -0.7183
12506SOL    HW238097   8.318   0.071   7.866  1.5168  1.0851 -1.2758
12507SOL     OW38098   1.461   2.942   9.505 -0.4190  0.3182 -0.4663
12507SOL    HW138099   1.451   3.002   9.431  0.5317  0.7977 -0.2233
12507SOL    HW238100   1.404   2.978   9.573 -0.5883  0.3969 -0.6483
12508SOL     OW38101   9.087   9.620   5.517  0.2363 -0.1648  0.5102
12508SOL    HW138102   9.132   9.627   5.600  0.8956  0.2361  0.1300
12508SOL    HW238103   9.137   9.556   5.467 -1.3137 -1.9444  1.1314
12509SOL     OW38104   5.624   8.625   9.395 -0.1119  0.5409 -0.3471
12509SOL    HW138105   5.582   8.690   9.339 -1.9049  0.2100  0.5432
12509SOL    HW238106   5.672   8.676   9.461 -0.0150  0.9336 -0.7200
12510SOL     OW38107   7.695   9.044   4.684 -0.0128 -0.3169 -0.1812
12510SOL    HW138108   7.717   9.019   4.594  3.2416  0.7107  0.2154
12510SOL    HW238109   7.692   8.961   4.732 -1.1153 -0.8152 -1.0533
12511SOL     OW38110   2.208   1.669   1.665  0.3347 -0.6084  0.5079
12511SOL    HW138111   2.267   1.666   1.740  1.0066  0.6681  0.0477
12511SOL    HW238112   2.265   1.681   1.589 -0.4194 -0.7166 -0.0931
12512SOL     OW38113   4.310   6.544   9.436 -0.6603  0.4358 -0.7149
12512SOL    HW138114   4.310   6.637   9.415  0.1958  0.6681  0.2706
12512SOL    HW238115   4.348   6.538   9.523 -0.3709 -0.8754 -0.9017
12513SOL     OW38116   9.216   9.277   7.437 -0.5817 -0.4277  0.0786
12513SOL    HW138117   9.230   9.277   7.342  0.0859  0.6239  0.1534
12513SOL    HW238118   9.209   9.185   7.460  0.3212 -0.7522 -0.8501
12514SOL     OW38119   0.100   1.358   2.569 -0.1956  0.5357 -0.4785
12514SOL    HW138120   0.101   1.291   2.501 -0.5947 -1.0418  1.0187
12514SOL    HW238121   0.164   1.423   2.539  0.0749 -0.3984 -2.0458
12515SOL     OW38122   8.311   2.462   3.558  0.0728  0.2181  0.0571
12515SOL    HW138123   8.378   2.485   3.622  0.4013 -1.9585  0.5637
12515SOL    HW238124   8.358   2.450   3.476 -0.2983  2.6349 -0.5688
12516SOL     OW38125   5.517   4.732   9.425  0.0615  0.0484  0.9383
12516SOL    HW138126   5.537   4.825   9.421 -0.7769  0.1958 -0.6753
12516SOL    HW238127   5.593   4.689   9.386 -1.1185  0.3814 -2.0007
12517SOL     OW38128   1.986   1.993   3.214  0.2171  0.1038 -0.1693
12517SOL    HW138129   1.994   1.899   3.229  0.4565  0.0764 -0.4469
12517SOL    HW238130   2.077   2.023   3.205  0.1528  0.3988  0.1379
12518SOL     OW38131   0.430   9.689   1.048  0.1773 -0.0318  0.1665
12518SOL    HW138132   0.440   9.656   0.958 -1.7052 -0.9406  0.2286
12518SOL    HW238133   0.337   9.709   1.055  0.3671  0.3816  1.8085
12519SOL     OW38134   8.638   0.579   5.182  0.5064 -0.1681 -0.6998
12519SOL    HW138135   8.637   0.640   5.256 -1.4377  0.4685 -1.1797
12519SOL    HW238136   8.721   0.533   5.190 -0.3061 -1.3066  2.8185
12520SOL     OW38137   6.100   2.945   7.719 -0.2753 -0.0029  0.1965
12520SOL    HW138138   6.008   2.921   7.708 -0.9111  1.6195  1.5975
12520SOL    HW238139   6.113   2.951   7.813  0.2326  3.3197  0.0324
12521SOL     OW38140   3.965   1.246   8.322  0.3193 -0.7145  0.1279
12521SOL    HW138141   4.046   1.245   8.373  0.9664 -0.7282 -0.8521
12521SOL    HW238142   3.901   1.290   8.378  1.0474 -0.5724  0.8662
12522SOL     OW38143   2.235   2.429   4.405 -0.7895  0.1184  0.3153
12522SOL    HW138144   2.308   2.455   4.462 -1.2220 -1.6417  1.7933
12522SOL    HW238145   2.273   2.424   4.318  1.2595 -1.9288  1.2057
12523SOL     OW38146   0.240   8.001   1.876  0.0917  0.3303 -0.0943
12523SOL    HW138147   0.278   8.038   1.796 -0.0883  0.4169 -0.1404
12523SOL    HW238148   0.211   8.076   1.927 -0.5862  0.2495 -0.3443
12524SOL     OW38149   5.910   4.152   6.826 -0.2342  0.3958  0.1781
12524SOL    HW138150   5.954   4.135   6.909 -0.6828 -1.2303  0.1229
12524SOL    HW238151   5.887   4.245   6.829  0.5887  0.5838  1.4539
12525SOL     OW38152   5.356   9.504   0.566 -0.5577  0.0127  0.0127
12525SOL    HW138153   5.366   9.413   0.593 -2.1790  0.1777  1.3960
12525SOL    HW238154   5.286   9.503   0.501 -0.4344  0.2283 -0.1244
12526SOL     OW38155   7.123   8.297   7.613 -0.0412 -0.5620  0.5356
12526SOL    HW138156   7.058   8.341   7.559 -0.8720  1.8375  3.2227
12526SOL    HW238157   7.206   8.337   7.589 -0.5350  1.2175  1.5873
12527SOL     OW38158   3.024   0.487   7.791 -0.2617  0.7500  0.1016
12527SOL    HW138159   3.068   0.498   7.707  1.6052 -1.1726  0.7167
12527SOL    HW238160   3.088   0.439   7.844 -2.3467 -0.3051  1.7850
12528SOL     OW38161   9.530   8.788   6.076 -0.3274 -0.3797 -0.5032
12528SOL    HW138162   9.478   8.862   6.044 -0.0860  0.5127  1.0353
12528SOL    HW238163   9.612   8.793   6.027 -0.5122  0.0673 -0.7767
12529SOL     OW38164   2.668   5.421   7.694  0.0586  0.4673  0.1419
12529SOL    HW138165   2.585   5.443   7.736  0.8769  1.8455  1.1103
12529SOL    HW238166   2.671   5.326   7.694 -2.4630  0.2835 -1.8187
12530SOL     OW38167   7.404   4.570   2.087  0.4682  0.4211  0.0342
12530SOL    HW138168   7.341   4.512   2.128  0.6436  0.7644  0.8149
12530SOL    HW238169   7.392   4.654   2.132  0.3222  0.9517 -0.9648
12531SOL     OW38170   0.538   0.401   3.820 -0.3382 -0.1843  0.3380
12531SOL    HW138171   0.456   0.425   3.778  0.4198  0.0667 -1.0826
12531SOL    HW238172   0.602   0.401   3.748  0.9893  0.1088  1.4811
12532SOL     OW38173   1.459   7.876   7.534 -0.9944  0.3024 -0.1054
12532SOL    HW138174   1.424   7.836   7.454 -1.0529  1.9288 -0.9332
12532SOL    HW238175   1.554   7.876   7.522 -0.8866 -0.7869  0.5240
12533SOL     OW38176   5.943   7.143   7.654  0.3522 -0.3515  0.1593
12533SOL    HW138177   5.960   7.223   7.604  1.1875  0.2861  1.3884
12533SOL    HW238178   6.028   7.121   7.693 -0.1514 -1.1049  0.8698
12534SOL     OW38179   3.625   4.378   6.833  0.3769  0.4923 -0.4102
12534SOL    HW138180   3.601   4.368   6.741  0.0737 -3.3882 -0.0669
12534SOL    HW238181   3.721   4.388   6.831  0.2236  2.1776 -1.1443
12535SOL     OW38182   8.116   9.856   8.574  0.3298  0.6216 -0.2767
12535SOL    HW138183   8.208   9.880   8.565  0.5147 -0.4402 -1.3602
12535SOL    HW238184   8.117   9.770   8.615 -0.2914  1.6871  2.1636
12536SOL     OW38185   5.087   2.461   9.297 -0.2161  0.0076 -0.0280
12536SOL    HW138186   5.029   2.536   9.283  1.3023  1.3028  0.4292
12536SOL    HW238187   5.055   2.395   9.235  0.2970  2.0976 -2.7092
12537SOL     OW38188   0.432   9.621   1.533  0.3419 -0.1073 -1.0442
12537SOL    HW138189   0.369   9.549   1.542 -1.3974  1.5142  0.4877
12537SOL    HW238190   0.461   9.640   1.622  0.9668  0.9435 -1.4470
12538SOL     OW38191   8.225   3.373   3.604  0.4548 -0.2963  0.7736
12538SOL    HW138192   8.294   3.437   3.625  0.1987  0.0720  0.5108
12538SOL    HW238193   8.248   3.342   3.517  0.8703 -0.9590  1.1117
12539SOL     OW38194   7.223   1.598   3.885 -0.6686 -0.0830 -0.0027
12539SOL    HW138195   7.225   1.552   3.969  0.5540 -1.8363 -0.9403
12539SOL    HW238196   7.235   1.530   3.819 -0.1674  1.4077 -1.5388
12540SOL     OW38197   7.650   4.135   5.775  0.0204  0.6003  0.2934
12540SOL    HW138198   7.711   4.079   5.822 -0.6522 -1.0174 -0.6728
12540SOL    HW238199   7.563   4.107   5.805 -0.3437  0.8672 -0.4704
12541SOL     OW38200   3.693   9.386   0.513 -0.2563 -0.1450 -0.5875
12541SOL    HW138201   3.696   9.303   0.467 -0.7591 -0.5940  0.1555
12541SOL    HW238202   3.642   9.368   0.592  0.5996  0.5843  0.1625
12542SOL     OW38203   5.257   6.672   8.472 -0.3524 -0.7948  0.2844
12542SOL    HW138204   5.187   6.657   8.408 -0.9993  0.1368  0.7519
12542SOL    HW238205   5.312   6.594   8.466 -0.4449 -0.7734 -1.3518
12543SOL     OW38206   6.944   9.874   3.622  0.0031  0.0019 -0.4501
12543SOL    HW138207   6.961   9.830   3.539 -0.0769 -0.6772 -0.1181
12543SOL    HW238208   6.859   9.841   3.650  0.2076 -0.0810  0.0907
12544SOL     OW38209   4.649   4.649   4.024  0.3299 -0.7445 -0.5730
12544SOL    HW138210   4.637   4.555   4.018 -1.3953 -0.8854  2.8970
12544SOL    HW238211   4.743   4.661   4.042  0.2585 -1.9569  0.7259
12545SOL     OW38212   2.023   4.818   6.088 -0.2020  0.6620 -0.3280
12545SOL    HW138213   1.979   4.891   6.044  0.8731  2.1302  0.9243
12545SOL    HW238214   1.990   4.820   6.177 -2.5652 -2.4527 -0.9707
12546SOL     OW38215   3.909   3.396   4.671 -0.5873 -0.1046  0.3594
12546SOL    HW138216   3.855   3.423   4.597 -0.0830 -1.1527 -0.4054
12546SOL    HW238217   3.991   3.365   4.632  1.0629  2.3770  1.5189
12547SOL     OW38218   2.725   0.799   4.316  0.1357  0.5145 -0.1695
12547SOL    HW138219   2.707   0.890   4.291  2.9510  0.8839 -1.2516
12547SOL    HW238220   2.773   0.806   4.399  2.3097  0.2638 -1.3293
12548SOL     OW38221   3.503   7.847   2.996  0.3661  0.3538 -0.5394
12548SOL    HW138222   3.577   7.884   2.946  0.7701  0.7101  0.3004
12548SOL    HW238223   3.464   7.923   3.040 -2.1342  0.6270 -2.9430
12549SOL     OW38224   3.008   4.956   5.587  0.0276  0.2484  0.1199
12549SOL    HW138225   2.976   4.916   5.506  0.7109  1.1158 -0.6018
12549SOL    HW238226   3.102   4.967   5.573 -0.2292  2.7316 -0.0044
12550SOL     OW38227   8.339   6.612   4.984 -0.4321 -0.1659  0.1068
12550SOL    HW138228   8.419   6.573   4.949  0.8766  2.1580  0.2977
12550SOL    HW238229   8.297   6.652   4.909  0.5770  1.8200  0.5361
12551SOL     OW38230   7.547   1.983   6.007  0.0831 -0.2538 -0.2006
12551SOL    HW138231   7.502   2.016   6.085  1.1538  2.1721 -0.5124
12551SOL    HW238232   7.577   2.062   5.962  2.3594 -1.6920 -1.3692
12552SOL     OW38233   6.065   1.247   5.542 -0.2006  0.3358 -0.0009
12552SOL    HW138234   5.977   1.217   5.518  0.2841 -1.2920  0.1359
12552SOL    HW238235   6.071   1.227   5.636 -0.3640  2.2594  0.4620
12553SOL     OW38236   1.511   6.346   2.514  0.3670  0.4892  0.0897
12553SOL    HW138237   1.561   6.293   2.576 -1.4970  0.1928  1.4192
12553SOL    HW238238   1.428   6.300   2.504 -0.3460  1.8762 -0.6704
12554SOL     OW38239   1.174   0.228   7.980 -1.0762  0.0592 -0.3019
12554SOL    HW138240   1.188   0.321   7.997 -1.6021  0.0896 -0.0400
12554SOL    HW238241   1.142   0.225   7.890 -1.7112  0.1890 -0.0824
12555SOL     OW38242   1.588   0.063   9.745 -0.1132 -0.4123 -0.1560
12555SOL    HW138243   1.606   0.010   9.823  0.6622  0.4838  0.2934
12555SOL    HW238244   1.622   0.011   9.673  0.5183 -0.6015  0.2678
12556SOL     OW38245   8.863   3.089   3.976 -0.2441  0.9640  0.2551
12556SOL    HW138246   8.936   3.151   3.973  0.6296 -0.0272  0.7255
12556SOL    HW238247   8.879   3.037   4.054 -2.1711  1.5700  1.1175
12557SOL     OW38248   7.678   4.553   2.016  0.4085  0.1720 -1.0350
12557SOL    HW138249   7.697   4.627   1.958  1.8739  0.5741 -0.0864
12557SOL    HW238250   7.583   4.556   2.028  0.3876  1.5877 -1.4237
12558SOL     OW38251   0.654   8.298   0.400 -0.3321 -0.2171 -0.1051
12558SOL    HW138252   0.713   8.232   0.435  0.3245 -0.8508 -2.2380
12558SOL    HW238253   0.569   8.278   0.439  0.1407 -1.4996  0.3087
12559SOL     OW38254   8.393   7.411   4.094 -0.2059 -0.1795  0.6075
12559SOL    HW138255   8.399   7.458   4.177  0.9590 -2.2267  1.7822
12559SOL    HW238256   8.370   7.321   4.119  0.8710 -1.0251 -1.2205
12560SOL     OW38257   5.776   7.944   4.881  0.4317  0.0548 -0.3204
12560SOL    HW138258   5.821   7.946   4.796  1.4876 -0.6771  0.2034
12560SOL    HW238259   5.838   7.901   4.940 -0.6305 -0.2036  0.6323
12561SOL     OW38260   1.115   7.054   3.705 -0.4023 -0.1719  0.2149
12561SOL    HW138261   1.140   6.987   3.641 -3.9693  0.1524 -1.7461
12561SOL    HW238262   1.070   7.006   3.774 -1.5872  0.0026 -0.4173
12562SOL     OW38263   4.328   3.669   6.561 -0.1875 -0.4626 -0.3646
12562SOL    HW138264   4.374   3.744   6.600 -1.1044 -1.2472  2.4898
12562SOL    HW238265   4.274   3.707   6.492 -1.0094  1.6534  1.3090
12563SOL     OW38266   2.241   8.311   7.019 -0.1787 -0.6255  0.3187
12563SOL    HW138267   2.213   8.381   7.077  0.9953  1.0586 -1.0168
12563SOL    HW238268   2.160   8.279   6.979 -0.6649  1.0743 -0.1798
12564SOL     OW38269   8.844   1.767   2.633 -0.8047 -0.1600  0.1591
12564SOL    HW138270   8.905   1.812   2.575 -1.2699  0.3009  0.0236
12564SOL    HW238271   8.767   1.751   2.580 -1.2785  0.3651  0.6706
12565SOL     OW38272   1.532   5.074   7.606 -0.4042  0.0989  0.3442
12565SOL    HW138273   1.449   5.084   7.654 -3.0765 -0.1986 -3.6677
12565SOL    HW238274   1.555   5.164   7.580  1.1072  0.2788  2.1797
12566SOL     OW38275   0.396   0.167   5.211 -0.1221  0.2300 -0.0991
12566SOL    HW138276   0.401   0.230   5.283  0.2217 -0.2413  0.3003
12566SOL    HW238277   0.450   0.094   5.240 -0.7471 -0.3742 -0.4288
12567SOL     OW38278   0.985   9.357   2.052  0.6312  0.0186 -0.4102
12567SOL    HW138279   1.039   9.384   1.978  0.3946 -0.0122 -0.5986
12567SOL    HW238280   0.928   9.432   2.069  3.4675  1.7589  2.4833
12568SOL     OW38281   1.885   7.847   4.693  0.1065 -0.2598 -0.3807
12568SOL    HW138282   1.863   7.769   4.641 -1.4638 -0.6821  0.8348
12568SOL    HW238283   1.856   7.825   4.781 -0.7839  1.8705 -0.0960
12569SOL     OW38284   5.124   0.465   9.229  0.5860  0.0996 -0.1063
12569SOL    HW138285   5.116   0.538   9.167  3.1053 -0.6926 -1.5207
12569SOL    HW238286   5.218   0.452   9.239  0.2255 -1.1779  2.3184
12570SOL     OW38287   4.139   1.288   3.881 -0.6393 -0.0587 -0.0542
12570SOL    HW138288   4.154   1.276   3.787 -1.8452  1.0974 -0.4356
12570SOL    HW238289   4.179   1.372   3.901 -1.0734  0.0745  0.2826
12571SOL     OW38290   4.796   8.231   8.106 -0.2023 -0.2933 -0.0229
12571SOL    HW138291   4.752   8.300   8.056 -1.2340 -1.2768 -0.4999
12571SOL    HW238292   4.743   8.222   8.185 -1.3603 -2.0038 -0.9375
12572SOL     OW38293   8.679   7.310   6.030  0.3338 -0.4580  0.0182
12572SOL    HW138294   8.592   7.334   6.061  1.1108 -0.5384  2.4323
12572SOL    HW238295   8.668   7.221   5.996 -1.2461  0.8072 -3.3032
12573SOL     OW38296   3.775   3.176   9.875 -0.6039 -0.0454 -0.2575
12573SOL    HW138297   3.816   3.123   9.943 -0.2069  0.5637 -0.0226
12573SOL    HW238298   3.696   3.127   9.851 -1.0182 -0.0196  0.9961
12574SOL     OW38299   2.758   1.234   1.534  0.3115 -0.0789  0.2809
12574SOL    HW138300   2.853   1.235   1.523  0.2438  0.3316 -0.3126
12574SOL    HW238301   2.739   1.316   1.580  0.0079  1.1353 -1.8624
12575SOL     OW38302   0.067   4.547   7.013  0.6020  0.3626 -0.1586
12575SOL    HW138303   0.145   4.597   6.988  0.2561  0.7977 -0.3650
12575SOL    HW238304  -0.004   4.611   7.017  0.4598  0.1648  1.1086
12576SOL     OW38305   4.753   3.163   9.646 -0.8024 -0.4614  0.5821
12576SOL    HW138306   4.732   3.115   9.565  1.5041  0.6897 -0.8195
12576SOL    HW238307   4.785   3.095   9.706  0.0659 -1.0209 -0.4798
12577SOL     OW38308   7.013   3.497   1.171 -0.5249 -0.0825  0.0277
12577SOL    HW138309   7.067   3.566   1.132  2.1237 -2.3115 -0.5538
12577SOL    HW238310   6.954   3.470   1.101 -1.0878  1.0731  0.0382
12578SOL     OW38311   9.920   6.451   7.850 -0.1154  0.1426 -0.4955
12578SOL    HW138312   9.852   6.453   7.918  0.3452  1.8576 -0.0446
12578SOL    HW238313   9.999   6.424   7.897 -0.0211  0.2815 -0.5757
12579SOL     OW38314   5.175   2.476   6.216  0.0093 -0.0201 -0.0893
12579SOL    HW138315   5.210   2.563   6.200  0.4614 -0.3525 -0.9860
12579SOL    HW238316   5.252   2.424   6.242  0.3145 -0.8231 -2.3340
12580SOL     OW38317   8.909   8.985   0.661  0.4846  0.0043 -0.3145
12580SOL    HW138318   8.899   8.961   0.569 -0.9539 -1.2619  0.1346
12580SOL    HW238319   9.003   9.001   0.671  0.5630  0.9570 -2.1573
12581SOL     OW38320   8.507   9.510   1.973  0.2246 -0.1041 -0.3731
12581SOL    HW138321   8.435   9.507   2.035 -2.0010  0.6231 -2.7496
12581SOL    HW238322   8.528   9.418   1.956 -0.7727 -0.3554 -0.3055
12582SOL     OW38323   0.949   5.049   2.418  0.4472  0.2073 -0.7999
12582SOL    HW138324   1.032   5.089   2.443  1.2981 -1.9702  0.1445
12582SOL    HW238325   0.923   4.999   2.496 -0.8202 -0.5861 -1.7017
12583SOL     OW38326   8.168   7.137   0.656  0.0991 -0.2431 -0.5968
12583SOL    HW138327   8.227   7.062   0.671 -1.4203 -1.6187 -1.2080
12583SOL    HW238328   8.210   7.186   0.586  1.0055 -0.6367 -0.3561
12584SOL     OW38329   2.422   3.397   2.225 -0.0843  0.2925 -0.3172
12584SOL    HW138330   2.478   3.335   2.272  0.6937  0.0291 -1.5434
12584SOL    HW238331   2.335   3.355   2.225  0.1534 -0.2124 -0.0631
12585SOL     OW38332   6.620   7.945   9.199 -0.5082 -0.4863  0.5020
12585SOL    HW138333   6.564   7.869   9.183  0.6735 -2.3140  3.9502
12585SOL    HW238334   6.702   7.924   9.157 -0.6007 -0.4828  0.3190
12586SOL     OW38335   4.630   1.883   9.853  0.1783 -0.1659  0.0510
12586SOL    HW138336   4.611   1.975   9.832 -0.7378  0.2452  2.3575
12586SOL    HW238337   4.624   1.838   9.770  1.1188  1.9283 -1.2443
12587SOL     OW38338   8.752   3.478   5.757 -0.1279 -0.6575 -0.5295
12587SOL    HW138339   8.769   3.479   5.851  0.0948  0.1777 -0.5729
12587SOL    HW238340   8.834   3.450   5.718  0.3866  0.8665 -0.5828
12588SOL     OW38341   8.003   3.379   1.058 -0.2109  0.0884  0.1335
12588SOL    HW138342   8.050   3.298   1.038 -0.4621  0.1281 -0.6770
12588SOL    HW238343   8.034   3.442   0.993 -1.6677 -0.0099 -0.7152
12589SOL     OW38344   9.900   8.052   5.597  0.3162  0.7361  1.1088
12589SOL    HW138345   9.912   8.086   5.508 -0.1298 -1.0526  0.3420
12589SOL    HW238346   9.983   8.073   5.641  1.2912 -0.0339 -0.2919
12590SOL     OW38347   6.544   0.094   5.317 -0.6552 -0.4615  0.0333
12590SOL    HW138348   6.572   0.051   5.397 -0.3563 -1.2140 -0.4692
12590SOL    HW238349   6.545   0.026   5.251 -1.1450  0.0936 -0.5653
12591SOL     OW38350   3.140   9.058   6.787 -0.0386  0.0566 -0.3554
12591SOL    HW138351   3.147   8.994   6.716 -0.9852  0.3675 -0.7580
12591SOL    HW238352   3.122   9.006   6.865 -1.2432 -0.1568 -0.7565
12592SOL     OW38353   9.924   7.934   1.904  0.0183 -0.2191 -0.0129
12592SOL    HW138354  10.015   7.912   1.886  0.5080  1.7453 -0.1423
12592SOL    HW238355   9.916   7.932   1.999  0.1481 -0.5768 -0.0106
12593SOL     OW38356   0.151   9.120   1.536  0.3557  0.6704 -0.1941
12593SOL    HW138357   0.066   9.164   1.525  1.1036  1.8955 -1.4208
12593SOL    HW238358   0.130   9.027   1.534 -0.8005  0.9014 -2.3690
12594SOL     OW38359   4.139   4.682   8.943  0.3394 -0.1754  0.3466
12594SOL    HW138360   4.054   4.682   8.898 -1.4053 -1.9885  3.3083
12594SOL    HW238361   4.143   4.768   8.985  0.3131  0.1601 -0.3122
12595SOL     OW38362   0.447   0.856   1.282 -0.4081 -0.7023  0.3586
12595SOL    HW138363   0.352   0.850   1.275 -0.4297  0.1672 -0.1612
12595SOL    HW238364   0.480   0.836   1.195 -0.2116  0.6961  0.0902
12596SOL     OW38365   2.021   3.358   7.503 -0.0389  0.3272  0.4378
12596SOL    HW138366   1.929   3.339   7.519 -0.1357  0.5540  0.1572
12596SOL    HW238367   2.067   3.278   7.527 -0.3912 -0.0933 -0.2629
12597SOL     OW38368   8.268   9.170   7.002  0.1438  0.4752 -0.3202
12597SOL    HW138369   8.235   9.148   6.915  2.2213  0.2489 -1.0939
12597SOL    HW238370   8.281   9.265   7.000  0.6839  0.3994 -0.4365
12598SOL     OW38371   2.225   5.109   0.910  0.1858 -0.6445 -0.4547
12598SOL    HW138372   2.179   5.166   0.972 -1.1075 -1.0920 -0.9697
12598SOL    HW238373   2.302   5.160   0.884 -0.0804  0.1908  0.3353
12599SOL     OW38374   1.877   1.395   7.366 -0.1077 -0.0132 -0.4837
12599SOL    HW138375   1.910   1.483   7.384  0.7146 -0.7351  1.8608
12599SOL    HW238376   1.925   1.367   7.288  0.1959  1.3068 -0.7958
12600SOL     OW38377   5.678   5.756   3.073 -0.1695  0.3647  0.2514
12600SOL    HW138378   5.653   5.839   3.032 -0.3450  1.6262  2.7765
12600SOL    HW238379   5.764   5.736   3.035  0.6517  2.6043  0.7862
12601SOL     OW38380   9.280   5.236   2.836  0.0764 -0.5681 -0.4150
12601SOL    HW138381   9.305   5.162   2.892 -1.4612 -0.3619  0.6212
12601SOL    HW238382   9.358   5.290   2.831  0.9961 -1.8726 -0.5521
12602SOL     OW38383   2.664   4.940   0.994 -0.7981 -0.2822  0.6508
12602SOL    HW138384   2.757   4.929   0.974 -0.7257 -1.4460  1.5688
12602SOL    HW238385   2.621   4.943   0.908  0.2043  1.7623  0.1567
12603SOL     OW38386   7.956   7.948   7.173 -0.1132 -0.0069 -0.0591
12603SOL    HW138387   7.941   7.870   7.226  1.1222 -2.2535 -2.8205
12603SOL    HW238388   7.883   8.006   7.195 -0.0852 -1.0805  3.4316
12604SOL     OW38389   5.881   4.028   0.217 -0.8460  0.9365  0.4123
12604SOL    HW138390   5.878   3.953   0.158 -0.6585 -0.1744  1.7652
12604SOL    HW238391   5.791   4.061   0.217 -0.9348  0.7178 -0.1918
12605SOL     OW38392   2.780   4.954   3.260 -0.0608  0.2169  0.4298
12605SOL    HW138393   2.840   4.963   3.186  1.5838  0.4789  1.7175
12605SOL    HW238394   2.793   4.865   3.292 -3.4125 -1.2096 -1.6657
12606SOL     OW38395   3.321   2.953   5.389  0.2582 -0.0019  0.1473
12606SOL    HW138396   3.375   2.883   5.423 -2.2431 -1.4382  1.5008
12606SOL    HW238397   3.358   2.974   5.304  0.8541 -3.3179 -0.5208
12607SOL     OW38398   8.913   5.434   7.902 -0.9158 -0.2996 -0.0613
12607SOL    HW138399   8.999   5.418   7.941 -0.6415 -1.0240 -0.9369
12607SOL    HW238400   8.859   5.465   7.975  0.1080  0.2486  0.4745
12608SOL     OW38401   2.511   4.610   2.337  0.2019 -0.3270 -0.7401
12608SOL    HW138402   2.446   4.623   2.406  2.0283  0.9836  0.8537
12608SOL    HW238403   2.459   4.604   2.256 -1.9105 -0.0245  0.5052
12609SOL     OW38404   0.365   6.364   7.607 -0.0509 -0.1619 -0.9948
12609SOL    HW138405   0.291   6.424   7.607  0.0761  0.0454 -2.5617
12609SOL    HW238406   0.430   6.404   7.665 -0.1887  0.9206 -1.5778
12610SOL     OW38407   7.985   9.745   1.461 -0.0532 -0.6475  0.4705
12610SOL    HW138408   7.981   9.657   1.498 -0.0949 -0.4186  1.0243
12610SOL    HW238409   8.049   9.739   1.391 -0.3589 -1.2160  0.2319
12611SOL     OW38410   5.518   9.932   5.143 -0.0324  0.6287  0.0530
12611SOL    HW138411   5.518   9.909   5.050  1.5287  0.2114  0.1361
12611SOL    HW238412   5.425   9.943   5.165 -0.5714 -1.3231 -1.0388
12612SOL     OW38413   8.080   3.707   6.492 -0.0861 -0.4710 -0.0206
12612SOL    HW138414   8.166   3.738   6.521 -0.2147 -0.1608  0.0383
12612SOL    HW238415   8.078   3.726   6.398  0.8839 -2.7657 -0.5622
12613SOL     OW38416   2.781   4.454   6.216 -0.2486 -0.2217 -0.8166
12613SOL    HW138417   2.738   4.537   6.196  1.7453  0.2318 -3.8722
12613SOL    HW238418   2.848   4.477   6.281 -0.3330  0.3879 -0.9360
12614SOL     OW38419   5.407   8.180   4.077  0.1387 -0.5192 -0.3942
12614SOL    HW138420   5.341   8.123   4.117  0.0459 -0.0375  0.1452
12614SOL    HW238421   5.469   8.120   4.037  1.3556 -1.1377  2.1923
12615SOL     OW38422   9.661   7.441   2.773 -0.5240 -0.4985 -0.4578
12615SOL    HW138423   9.729   7.377   2.789 -0.8394 -0.6632  0.3215
12615SOL    HW238424   9.580   7.390   2.767 -0.7019 -0.2268 -0.4063
12616SOL     OW38425   6.050   1.401   1.879  0.3366 -0.6699  0.2474
12616SOL    HW138426   6.075   1.340   1.810  1.9641 -2.2561  2.1128
12616SOL    HW238427   6.107   1.477   1.866 -0.0591 -0.5266 -0.7020
12617SOL     OW38428   8.274   4.241   1.730  0.4394 -0.1010  0.6976
12617SOL    HW138429   8.183   4.213   1.745  0.2769  0.9790  1.8916
12617SOL    HW238430   8.281   4.248   1.635 -0.6990 -0.3403  0.5784
12618SOL     OW38431   7.734   2.891   6.512 -0.5605  0.1074  0.4858
12618SOL    HW138432   7.687   2.974   6.507 -1.9071 -0.6863 -2.2284
12618SOL    HW238433   7.706   2.851   6.594 -1.9782  1.1658  0.5400
12619SOL     OW38434   0.934   7.684   3.777  0.3920  0.1612 -0.4607
12619SOL    HW138435   0.945   7.646   3.865  0.2788 -0.5820 -0.7572
12619SOL    HW238436   1.019   7.723   3.757 -0.1304  2.0854  0.7627
12620SOL     OW38437   3.358   2.334   1.862 -0.8114  0.2126 -0.2543
12620SOL    HW138438   3.444   2.377   1.864 -0.2661 -0.6058 -2.7054
12620SOL    HW238439   3.378   2.242   1.849 -2.0430  0.0861 -1.4885
12621SOL     OW38440   1.451   1.727   1.718  0.2515  0.2864 -0.4029
12621SOL    HW138441   1.519   1.747   1.654  0.5824 -1.2216 -0.5598
12621SOL    HW238442   1.418   1.812   1.746  1.9180  1.0340 -0.6304
12622SOL     OW38443   4.794   3.800   2.882 -0.2253 -0.2926 -0.2276
12622SOL    HW138444   4.800   3.870   2.947 -0.1475 -1.4474  1.0516
12622SOL    HW238445   4.885   3.778   2.860 -0.1922 -1.1742  0.7172
12623SOL     OW38446   7.997   1.508   2.589 -0.1647  0.3266  0.1654
12623SOL    HW138447   8.047   1.518   2.670  0.0892 -0.3737  0.0962
12623SOL    HW238448   7.915   1.554   2.607  0.0643  0.5493  0.6681
12624SOL     OW38449   4.105   5.482   0.608 -0.5782  0.0857  0.1344
12624SOL    HW138450   4.013   5.507   0.604 -0.7415 -0.1855  1.6263
12624SOL    HW238451   4.105   5.397   0.652  0.2640 -0.8342 -1.5573
12625SOL     OW38452   3.925   6.374   8.452 -0.6433 -0.6329  0.0765
12625SOL    HW138453   3.960   6.373   8.541 -2.5096 -0.1515  0.8639
12625SOL    HW238454   3.876   6.292   8.444 -1.1178 -0.3250 -0.2395
12626SOL     OW38455   4.398   9.591   5.832 -0.1754  0.8890 -0.1178
12626SOL    HW138456   4.450   9.563   5.757 -1.1825 -2.1299  0.1589
12626SOL    HW238457   4.456   9.580   5.907 -0.2491  0.5250 -0.1141
12627SOL     OW38458   2.031   8.036   1.064  0.0848 -0.0924 -0.2130
12627SOL    HW138459   1.965   8.006   1.126  0.4801 -0.7699 -0.1207
12627SOL    HW238460   2.088   7.961   1.050  0.1679  0.1310 -1.1826
12628SOL     OW38461   3.998   3.248   8.306  0.1237 -0.1175 -0.1630
12628SOL    HW138462   4.025   3.323   8.358 -1.0748 -0.7602  1.4731
12628SOL    HW238463   4.079   3.200   8.289  0.5649  0.1151  1.1547
12629SOL     OW38464   7.773   9.974   7.646  0.1779 -0.5057 -0.0214
12629SOL    HW138465   7.851   9.987   7.593  0.5176 -1.1599  0.3003
12629SOL    HW238466   7.800   9.911   7.714 -0.7198 -1.0338 -0.1316
12630SOL     OW38467   2.581   5.493   1.179  0.4251  0.0794 -0.6165
12630SOL    HW138468   2.529   5.567   1.208  0.1154  0.5667 -2.2820
12630SOL    HW238469   2.634   5.469   1.255 -2.4132 -0.6785  1.2896
12631SOL     OW38470   8.381   9.143   9.749 -0.3265  0.4667  0.5895
12631SOL    HW138471   8.297   9.130   9.704 -0.1549  1.8170 -0.1865
12631SOL    HW238472   8.419   9.055   9.756 -1.4944 -0.0713  0.3432
12632SOL     OW38473   8.453   4.901   6.665 -0.6164  0.0327  0.1392
12632SOL    HW138474   8.360   4.910   6.686 -0.1403  0.5573  2.2634
12632SOL    HW238475   8.494   4.974   6.709  0.8358 -0.2340 -0.7231
12633SOL     OW38476   8.899   3.619   2.025  0.4999  0.3843 -0.4846
12633SOL    HW138477   8.874   3.545   2.080 -1.0721 -0.2249 -1.9323
12633SOL    HW238478   8.871   3.594   1.937  0.5424  2.4222 -1.1271
12634SOL     OW38479   0.983   9.873   6.206 -0.0692 -0.0494 -0.3142
12634SOL    HW138480   0.971   9.918   6.290  0.0839  1.4565 -1.0522
12634SOL    HW238481   1.061   9.915   6.169  1.6440 -2.6951  0.0225
12635SOL     OW38482   2.113   4.436   8.700  0.7261  0.0380  0.2442
12635SOL    HW138483   2.170   4.407   8.630  0.5184 -0.6508  0.3472
12635SOL    HW238484   2.172   4.457   8.772  0.9758  1.2397 -0.2881
12636SOL     OW38485   2.927   7.647   4.260  0.0602  0.4495 -0.6473
12636SOL    HW138486   2.871   7.576   4.230  0.9424  0.1647 -1.6379
12636SOL    HW238487   2.964   7.615   4.342  0.5745 -0.2950 -1.1678
12637SOL     OW38488   5.864   7.788   8.151  0.4772 -0.2686 -0.3227
12637SOL    HW138489   5.837   7.875   8.181 -0.9933 -0.7766 -0.0895
12637SOL    HW238490   5.959   7.788   8.161  0.3704  0.8080  1.0319
12638SOL     OW38491   4.427   7.406   2.337  0.0893 -0.0677  0.5534
12638SOL    HW138492   4.389   7.482   2.292  0.7237  0.0303  0.1583
12638SOL    HW238493   4.353   7.349   2.355 -0.2289  0.0195 -0.3960
12639SOL     OW38494   6.117   3.250   0.124 -0.3912  0.0775  0.5964
12639SOL    HW138495   6.102   3.340   0.096  4.2064  1.5916  2.1326
12639SOL    HW238496   6.171   3.212   0.054  0.5889 -0.3036  1.5483
12640SOL     OW38497   4.488   4.969   8.316 -0.1993  0.6068  0.0854
12640SOL    HW138498   4.504   4.943   8.225  1.1426  2.2606 -0.2130
12640SOL    HW238499   4.519   4.895   8.368  0.9800  0.4707 -0.7679
12641SOL     OW38500   6.274   5.824   7.617  0.1992  0.1084  0.0682
12641SOL    HW138501   6.338   5.824   7.688  1.1257 -0.1464 -0.7561
12641SOL    HW238502   6.251   5.916   7.605  1.5047  0.3684 -0.5860
12642SOL     OW38503   3.705   6.651   8.594  0.5200 -0.0038  0.2044
12642SOL    HW138504   3.767   6.700   8.540  0.2001  1.4592  1.0990
12642SOL    HW238505   3.632   6.633   8.536 -0.1381  2.1732  0.2581
12643SOL     OW38506   1.773   8.363   4.576 -0.4191 -0.8247  0.2981
12643SOL    HW138507   1.780   8.275   4.614 -0.6507 -0.3986  1.3463
12643SOL    HW238508   1.857   8.404   4.597 -0.8441 -0.3220  1.0547
12644SOL     OW38509   6.203   8.545   4.580 -0.0463 -0.3591  0.3752
12644SOL    HW138510   6.291   8.551   4.618 -0.0166  0.1410  0.2366
12644SOL    HW238511   6.218   8.531   4.486 -0.1175 -1.0691  0.4696
12645SOL     OW38512   8.594   5.421   7.244 -0.2047 -0.1296 -0.0657
12645SOL    HW138513   8.664   5.452   7.301  0.8050 -0.2053 -1.2081
12645SOL    HW238514   8.539   5.367   7.300  0.1875  0.5947  1.0544
12646SOL     OW38515   0.583   5.175   0.491  0.6248  0.2200 -0.2879
12646SOL    HW138516   0.555   5.257   0.532  0.6404 -0.6435  1.5576
12646SOL    HW238517   0.648   5.139   0.551  0.0652 -1.5025 -0.6589
12647SOL     OW38518   9.283   5.627   6.011 -0.4155  0.6652 -0.1183
12647SOL    HW138519   9.231   5.562   6.059 -0.2534  1.8561  1.7545
12647SOL    HW238520   9.358   5.578   5.979 -0.9149 -0.3297  0.1866
12648SOL     OW38521   4.966   9.052   6.616 -0.5421 -0.4625  0.2395
12648SOL    HW138522   4.964   9.145   6.595 -0.9131 -0.3139  0.8872
12648SOL    HW238523   4.874   9.025   6.613 -0.4632 -0.7434  0.3210
12649SOL     OW38524   2.631   6.871   5.898 -0.1767  0.2228 -0.1224
12649SOL    HW138525   2.676   6.955   5.886 -1.9963  1.2798  0.1768
12649SOL    HW238526   2.700   6.811   5.926  0.8903  2.0083  1.2384
12650SOL     OW38527   9.937   1.247   1.208  0.1217  0.3534 -0.0417
12650SOL    HW138528   9.923   1.331   1.252 -2.7590 -0.8873  1.7347
12650SOL    HW238529   9.850   1.224   1.174  0.4499 -2.5498  0.8653
12651SOL     OW38530   2.141   4.889   8.848 -0.2603  0.0819 -0.1354
12651SOL    HW138531   2.178   4.971   8.815 -2.2238  1.0926  0.0274
12651SOL    HW238532   2.099   4.849   8.772 -1.1351  0.3070  0.2157
12652SOL     OW38533   1.318   0.143   5.921 -0.0042 -0.1505  0.0765
12652SOL    HW138534   1.340   0.222   5.969  1.2486 -0.6980  0.4618
12652SOL    HW238535   1.251   0.170   5.858 -2.2100  0.4571  2.5051
12653SOL     OW38536   2.047   0.965   6.604 -0.3983 -0.1731 -0.1700
12653SOL    HW138537   2.124   0.910   6.595 -1.1490 -1.1003 -1.2275
12653SOL    HW238538   1.980   0.908   6.642 -1.3105 -0.1504 -1.6692
12654SOL     OW38539   0.952   3.207   5.616 -0.5081 -0.4225  0.3790
12654SOL    HW138540   0.909   3.186   5.533  0.4418 -0.2675 -0.1785
12654SOL    HW238541   1.046   3.201   5.596 -0.2542  0.2829  1.2652
12655SOL     OW38542   1.309   3.878   3.711 -0.9431  0.2064 -0.1154
12655SOL    HW138543   1.349   3.796   3.742 -1.1418  0.2451  0.2531
12655SOL    HW238544   1.223   3.879   3.752  0.0554  1.9077  2.1311
12656SOL     OW38545   8.224   5.320   8.441  0.1176 -0.0189 -0.1326
12656SOL    HW138546   8.220   5.307   8.535  0.1611 -2.2187 -0.3749
12656SOL    HW238547   8.310   5.286   8.415  0.0796  0.4872 -0.9699
12657SOL     OW38548   7.561   6.644   1.851 -0.1656 -0.8050 -0.7140
12657SOL    HW138549   7.580   6.735   1.831  0.0452 -0.5844  0.4315
12657SOL    HW238550   7.614   6.594   1.789  1.2921 -0.1557 -0.0452
12658SOL     OW38551   9.682   8.843   7.869 -0.0213 -0.1090 -0.0977
12658SOL    HW138552   9.656   8.773   7.930  2.1113  0.0874  1.1450
12658SOL    HW238553   9.696   8.798   7.786 -0.0211 -0.9476  0.3370
12659SOL     OW38554   6.224   5.553   7.552 -0.0467 -0.2138  0.0557
12659SOL    HW138555   6.137   5.553   7.511 -0.6873 -0.6356  1.3699
12659SOL    HW238556   6.236   5.643   7.581 -1.6782 -0.8579  3.1101
12660SOL     OW38557   4.937   1.332   3.831  0.2101  0.5078 -0.2316
12660SOL    HW138558   4.868   1.300   3.890  0.5074  0.2183 -0.0350
12660SOL    HW238559   4.890   1.372   3.759 -0.2522 -2.0606 -1.4819
12661SOL     OW38560   7.739   8.975   6.498 -0.6023  0.0106  0.2377
12661SOL    HW138561   7.780   8.932   6.573 -0.1796 -0.5993 -0.3261
12661SOL    HW238562   7.672   8.913   6.469  0.0261 -0.2999 -0.5967
12662SOL     OW38563   7.447   7.304   6.522 -0.2632 -0.0688 -0.0871
12662SOL    HW138564   7.473   7.377   6.465  2.6882  0.3210  1.5493
12662SOL    HW238565   7.461   7.226   6.469  0.8114  0.3664 -0.4700
12663SOL     OW38566   0.644   0.060   7.601  0.3084  0.1697  0.4491
12663SOL    HW138567   0.564   0.105   7.573 -1.2366 -2.4129  0.4717
12663SOL    HW238568   0.677   0.019   7.522  0.5704 -0.3269  0.8163
12664SOL     OW38569   7.978   2.064   7.820  0.1620  0.0062 -0.3609
12664SOL    HW138570   8.014   2.118   7.749  0.6251  1.6431  1.0278
12664SOL    HW238571   7.891   2.039   7.790  0.9669 -0.7806 -2.1931
12665SOL     OW38572   8.465   6.932   7.150 -0.3053 -0.2606  0.6619
12665SOL    HW138573   8.435   6.851   7.109 -0.0519  0.5008 -1.0874
12665SOL    HW238574   8.528   6.969   7.088  2.2182 -0.3929  2.9227
12666SOL     OW38575   7.625   5.587   7.825  0.1490  0.0230 -0.3018
12666SOL    HW138576   7.660   5.670   7.857 -2.2019  1.2884 -0.8021
12666SOL    HW238577   7.554   5.566   7.885 -0.2765 -0.8205 -1.0692
12667SOL     OW38578   1.734   0.287   9.069  0.0485  0.2018  0.1840
12667SOL    HW138579   1.699   0.356   9.013  0.6054  0.8497  0.6168
12667SOL    HW238580   1.813   0.324   9.108  0.7913 -0.9520 -0.1504
12668SOL     OW38581   7.501   8.436   1.874 -0.2382  0.1122 -0.1903
12668SOL    HW138582   7.445   8.500   1.916  0.5656  0.8808 -0.2724
12668SOL    HW238583   7.518   8.472   1.787  0.9559  0.2497  0.0845
12669SOL     OW38584   0.776   5.209   9.403  0.2342  0.7248 -1.0102
12669SOL    HW138585   0.846   5.143   9.410 -0.7011 -0.3742 -1.7546
12669SOL    HW238586   0.802   5.264   9.329  1.4029  1.7178  0.0771
12670SOL     OW38587   8.041   2.223   7.586 -0.0905  0.0043 -0.0136
12670SOL    HW138588   8.065   2.214   7.494 -0.7575  1.8069 -0.4161
12670SOL    HW238589   7.964   2.280   7.584  0.3206  0.6602  1.6996
12671SOL     OW38590   3.291   8.665   4.990  0.4450  0.1164  0.0056
12671SOL    HW138591   3.231   8.600   5.027 -0.3910 -0.7029 -2.5788
12671SOL    HW238592   3.376   8.621   4.988 -0.3497 -1.5298 -2.8760
12672SOL     OW38593   6.057   6.687   5.923  0.0679 -0.5758 -0.0035
12672SOL    HW138594   6.004   6.720   5.850  1.2656  1.6615  0.0447
12672SOL    HW238595   6.001   6.695   6.000  0.0515  0.7100 -0.1248
12673SOL     OW38596   0.037   1.824   8.258 -0.3731 -0.6339  0.1567
12673SOL    HW138597  -0.054   1.827   8.290 -0.1169 -0.2550  0.8820
12673SOL    HW238598   0.035   1.869   8.174 -0.6225  0.5451  0.7766
12674SOL     OW38599   5.096   5.126   3.225  0.3030  0.2317 -0.2242
12674SOL    HW138600   5.059   5.133   3.137 -0.1176  0.2849 -0.0428
12674SOL    HW238601   5.191   5.123   3.210  0.2348  0.1820 -0.6824
12675SOL     OW38602   3.442   2.805   4.043 -0.0935  0.5940 -0.1268
12675SOL    HW138603   3.354   2.837   4.028 -0.8918 -1.5998 -0.4901
12675SOL    HW238604   3.488   2.821   3.960 -0.5815  0.4584 -0.4285
12676SOL     OW38605   8.314   7.498   2.477 -0.4332 -0.4667  0.1354
12676SOL    HW138606   8.267   7.507   2.559 -0.1087 -1.7761  0.4934
12676SOL    HW238607   8.251   7.460   2.416 -0.5437  0.0879 -0.1045
12677SOL     OW38608   8.035   5.643   7.870  0.1471 -0.3687  0.2407
12677SOL    HW138609   7.949   5.677   7.846  0.7109  1.5513  0.7129
12677SOL    HW238610   8.090   5.661   7.794 -0.4551 -4.4713 -1.3797
12678SOL     OW38611   3.752   0.447   8.768 -0.4643  0.2368  0.3157
12678SOL    HW138612   3.802   0.369   8.790 -1.5644 -0.1147  1.7051
12678SOL    HW238613   3.721   0.480   8.852 -0.9806  1.5169 -0.3513
12679SOL     OW38614   0.854   8.633   5.888  0.1415 -0.0846  0.2605
12679SOL    HW138615   0.841   8.603   5.798  1.0368  0.4648 -0.0622
12679SOL    HW238616   0.911   8.710   5.880  1.5256 -0.9347  1.3944
12680SOL     OW38617   5.858   0.158   6.346 -0.1761  0.0428  0.8920
12680SOL    HW138618   5.852   0.244   6.303 -0.9035 -0.0334  0.8367
12680SOL    HW238619   5.938   0.164   6.399 -0.2286  0.7611  0.9073
12681SOL     OW38620   2.284   7.871   2.574  0.8801 -0.1752 -0.5724
12681SOL    HW138621   2.246   7.884   2.660  0.3833  0.5926 -0.8976
12681SOL    HW238622   2.376   7.896   2.585  0.3475  2.0637 -0.7475
12682SOL     OW38623   8.296   6.548   3.362 -0.1120 -0.7605  0.8301
12682SOL    HW138624   8.314   6.455   3.348 -0.6718 -1.0309  1.8624
12682SOL    HW238625   8.335   6.591   3.285  0.2782 -1.8208  0.4113
12683SOL     OW38626   7.187   1.080   5.753  0.0166 -0.3452  0.4701
12683SOL    HW138627   7.281   1.099   5.754 -0.3479  2.3242 -1.8487
12683SOL    HW238628   7.174   1.026   5.675 -0.3404 -0.8687  0.8925
12684SOL     OW38629   5.541   4.574   8.695 -0.0679  0.3421  0.1019
12684SOL    HW138630   5.488   4.645   8.732 -0.3254  0.7099 -0.9380
12684SOL    HW238631   5.519   4.574   8.602  1.0070 -0.1696 -0.1660
12685SOL     OW38632   8.043   0.757   6.082 -0.2396  0.7609 -0.2355
12685SOL    HW138633   8.091   0.798   6.153  3.7343 -1.4239 -1.3133
12685SOL    HW238634   8.010   0.830   6.029 -0.7746  2.3897  2.2054
12686SOL     OW38635   9.896   0.151   6.351  0.2990 -0.1705  0.7274
12686SOL    HW138636   9.860   0.066   6.326  1.5739 -0.8698  1.1601
12686SOL    HW238637   9.947   0.179   6.274  1.9165 -1.0036  1.4388
12687SOL     OW38638   8.181   2.846   0.267  0.3277 -0.0576 -0.0245
12687SOL    HW138639   8.231   2.913   0.311 -0.1368  1.1347 -1.2460
12687SOL    HW238640   8.126   2.893   0.204 -1.9336 -1.3230  0.8451
12688SOL     OW38641   4.742   3.114   2.127 -0.4546 -0.1977  0.1732
12688SOL    HW138642   4.742   3.024   2.094 -0.3160 -0.8252  1.7886
12688SOL    HW238643   4.662   3.119   2.180 -0.7290  0.8071 -0.3137
12689SOL     OW38644   8.895   3.398   2.152 -0.2683  0.2687  0.0047
12689SOL    HW138645   8.959   3.329   2.162 -0.0401  0.7517  2.4709
12689SOL    HW238646   8.815   3.363   2.193 -0.3218  1.2172  0.7400
12690SOL     OW38647   3.826   0.956   4.761  0.9269 -0.2394  0.3061
12690SOL    HW138648   3.804   1.040   4.802  1.9139  0.2702 -0.1732
12690SOL    HW238649   3.881   0.980   4.686  2.5818 -1.3824  1.0825
12691SOL     OW38650   9.630   8.485   8.610 -0.9604 -0.4803  0.3188
12691SOL    HW138651   9.710   8.441   8.640 -0.7143 -0.3815 -0.1876
12691SOL    HW238652   9.572   8.413   8.583 -0.9410 -0.5398  0.4346
12692SOL     OW38653   9.382   2.410   4.159  0.1956  0.4127 -0.1740
12692SOL    HW138654   9.382   2.489   4.213 -1.0676 -0.1905  0.7441
12692SOL    HW238655   9.363   2.339   4.220 -1.5396 -0.2593 -1.4255
12693SOL     OW38656   4.478   6.771   2.546  0.1325 -0.6075  0.4050
12693SOL    HW138657   4.403   6.810   2.501  0.8733  0.0855 -0.2661
12693SOL    HW238658   4.446   6.688   2.580 -1.2460  0.1776  1.0847
12694SOL     OW38659   8.909   3.257   4.541  0.2849  0.0044  0.3249
12694SOL    HW138660   8.938   3.268   4.450  1.5904  1.8472  0.8836
12694SOL    HW238661   8.820   3.291   4.542  0.2160 -0.1493 -0.3042
12695SOL     OW38662   2.506   3.912   6.467 -0.3294  0.2612 -0.2552
12695SOL    HW138663   2.519   3.932   6.560  1.6901  1.1513 -0.6722
12695SOL    HW238664   2.502   3.817   6.463  2.3949  0.0156  0.5101
12696SOL     OW38665   6.496   0.419   3.274  0.2794  0.2672 -0.4621
12696SOL    HW138666   6.540   0.334   3.265  0.2592  0.0718  1.0099
12696SOL    HW238667   6.544   0.477   3.215 -0.6857 -1.0953 -2.6951
12697SOL     OW38668   8.277   1.117   1.467  0.5427 -0.4237  0.3926
12697SOL    HW138669   8.353   1.140   1.414  0.5295  2.9953  1.6098
12697SOL    HW238670   8.278   1.022   1.471  3.2011 -0.6012 -1.8052
12698SOL     OW38671   4.460   2.770   5.372 -0.6028 -0.6284 -0.6372
12698SOL    HW138672   4.522   2.790   5.443 -2.1002  0.8001  0.3307
12698SOL    HW238673   4.438   2.677   5.385 -1.5574 -0.1754  1.3877
12699SOL     OW38674   9.279   3.562   8.582  0.2334 -0.3604  0.3576
12699SOL    HW138675   9.218   3.525   8.646  1.9118 -0.2929  2.1140
12699SOL    HW238676   9.230   3.632   8.540 -0.9400 -0.3683  1.6337
12700SOL     OW38677   4.199   5.361   6.703  0.2931  0.0308  0.0128
12700SOL    HW138678   4.220   5.435   6.761  2.0592 -2.6125  3.0933
12700SOL    HW238679   4.109   5.338   6.726  0.5508 -0.2013  0.8385
12701SOL     OW38680   6.305   5.035   8.351 -0.2836  0.2817  0.2415
12701SOL    HW138681   6.316   5.078   8.266 -0.5711  0.4826  0.3028
12701SOL    HW238682   6.328   5.102   8.415 -1.5977  0.6520  0.3672
12702SOL     OW38683   1.540   5.986   0.277 -0.4159  0.3272 -0.0160
12702SOL    HW138684   1.497   5.932   0.343 -0.5885  1.2997  0.6954
12702SOL    HW238685   1.485   5.975   0.199 -0.6080 -0.2906  0.1960
12703SOL     OW38686   4.930   6.003   1.217  0.0509 -0.4745  0.6367
12703SOL    HW138687   4.949   6.044   1.301  2.6940  0.2862 -0.2429
12703SOL    HW238688   5.006   5.947   1.200  0.0196  0.0951 -1.6505
12704SOL     OW38689   9.041   3.188   9.699 -0.0528  0.2027  0.1983
12704SOL    HW138690   9.115   3.207   9.758 -0.8044  1.8305  0.6808
12704SOL    HW238691   8.964   3.189   9.756 -0.4204 -2.1935 -0.1779
12705SOL     OW38692   2.438   9.121   5.644  0.0846  0.6479  0.6642
12705SOL    HW138693   2.496   9.055   5.605 -0.2052  1.7507 -1.8483
12705SOL    HW238694   2.444   9.105   5.738  2.4729 -0.8914  0.3577
12706SOL     OW38695   4.223   4.195   1.222 -0.1229  0.2052 -0.0290
12706SOL    HW138696   4.303   4.177   1.173 -1.0714 -1.0758 -1.1557
12706SOL    HW238697   4.202   4.286   1.200  0.2111  0.0776 -0.9225
12707SOL     OW38698   2.073   3.962   6.151 -0.0776  0.1068 -0.0064
12707SOL    HW138699   2.165   3.979   6.133  0.3312 -1.2900  0.5806
12707SOL    HW238700   2.061   3.869   6.129 -1.4136  0.3318 -0.3262
12708SOL     OW38701   2.203   9.143   6.266  0.0191  0.2786  0.2076
12708SOL    HW138702   2.217   9.079   6.196 -1.5038  1.1143 -0.9236
12708SOL    HW238703   2.160   9.093   6.335  0.2329 -0.2508 -0.0364
12709SOL     OW38704   8.182   4.350   3.212 -0.6312  0.5240 -0.0512
12709SOL    HW138705   8.216   4.290   3.278 -1.5779  0.9110  0.8083
12709SOL    HW238706   8.222   4.434   3.233 -1.6590  0.8602  0.6342
12710SOL     OW38707   1.872   8.071   6.202  0.1548 -0.2243  0.4070
12710SOL    HW138708   1.961   8.037   6.214 -0.3845 -1.7106  0.3852
12710SOL    HW238709   1.853   8.118   6.284  0.7867 -0.2983  0.5972
12711SOL     OW38710   5.071   1.165   6.624 -0.3948 -0.0082  0.1186
12711SOL    HW138711   5.143   1.138   6.567  1.2207  2.3313  0.8769
12711SOL    HW238712   5.081   1.110   6.702 -2.0057 -2.5168 -1.3033
12712SOL     OW38713   4.894   0.895   6.615 -0.1076  0.5243  0.1415
12712SOL    HW138714   4.878   0.889   6.709 -1.5567 -1.1200 -0.1669
12712SOL    HW238715   4.948   0.819   6.595 -1.1031 -0.0153 -0.5841
12713SOL     OW38716   9.364   1.412   3.008 -0.6327 -0.6378  1.3213
12713SOL    HW138717   9.307   1.480   3.044  0.0562  1.0116 -0.5207
12713SOL    HW238718   9.445   1.419   3.057 -0.1367  0.7434  0.3460
12714SOL     OW38719   6.301   6.399   3.517 -0.2888  0.6330  0.3440
12714SOL    HW138720   6.223   6.379   3.568 -0.5685 -1.1820 -0.6970
12714SOL    HW238721   6.374   6.369   3.571 -0.6303 -2.2001 -0.5676
12715SOL     OW38722   0.718   4.344   1.998  0.1799 -0.3146  0.6653
12715SOL    HW138723   0.775   4.278   2.037 -0.8239 -2.0268 -0.6545
12715SOL    HW238724   0.641   4.296   1.969 -0.3843  1.3601 -0.8127
12716SOL     OW38725   2.790   9.626   9.471  0.2942 -0.6284 -0.1735
12716SOL    HW138726   2.696   9.640   9.469  0.3126 -0.4274  0.2236
12716SOL    HW238727   2.804   9.551   9.413 -0.1033 -0.6412 -0.2582
12717SOL     OW38728   4.465   8.161   4.602  0.4550 -0.3347 -0.0567
12717SOL    HW138729   4.526   8.236   4.604 -2.3785  2.1658 -0.0555
12717SOL    HW238730   4.498   8.106   4.531  3.1405  0.4173  0.4818
12718SOL     OW38731   1.708   9.832   2.316 -0.2070  0.3022 -0.1915
12718SOL    HW138732   1.789   9.878   2.294  0.3578 -0.6314 -0.1330
12718SOL    HW238733   1.700   9.765   2.248  0.2611 -1.0315  1.0134
12719SOL     OW38734   5.289   2.896   3.383  0.0441  0.1985 -0.3564
12719SOL    HW138735   5.204   2.852   3.389 -1.6560  2.9176 -2.2705
12719SOL    HW238736   5.294   2.925   3.292  3.6860 -0.9338 -0.6748
12720SOL     OW38737   8.898   6.732   0.697 -0.1901  0.5285  0.2656
12720SOL    HW138738   8.863   6.711   0.783  0.2097  0.9343  0.5296
12720SOL    HW238739   8.820   6.743   0.642 -0.4816  1.1840  0.7929
12721SOL     OW38740   6.041   2.654   5.222  0.4396 -0.4761 -0.0680
12721SOL    HW138741   5.972   2.588   5.231  0.0086 -0.5366 -3.0875
12721SOL    HW238742   6.102   2.617   5.159  0.7620  1.5469 -1.0200
12722SOL     OW38743   6.970   7.936   8.798 -0.5985 -0.2199  0.2387
12722SOL    HW138744   7.005   7.864   8.744 -0.3354  1.4362 -1.9227
12722SOL    HW238745   6.900   7.973   8.746 -0.2412  1.5750  0.9621
12723SOL     OW38746   2.556   9.514   1.026 -0.7281  0.1683 -0.5931
12723SOL    HW138747   2.643   9.540   0.997 -1.1177 -0.6340 -2.6103
12723SOL    HW238748   2.563   9.421   1.045 -0.9544  0.2815  0.0976
12724SOL     OW38749   0.348   3.727   5.911 -0.0846  0.7883 -0.3792
12724SOL    HW138750   0.417   3.790   5.889 -0.8621  1.1552 -1.9375
12724SOL    HW238751   0.319   3.753   5.998  0.9623  1.3409 -0.1712
12725SOL     OW38752   5.164   5.659   0.692  0.3655 -0.4258  0.0668
12725SOL    HW138753   5.259   5.657   0.687  0.4836  1.9258  0.3973
12725SOL    HW238754   5.137   5.725   0.628 -0.9009  0.2028  1.1855
12726SOL     OW38755   2.056   5.951   3.898 -0.2315  0.5141 -0.8565
12726SOL    HW138756   2.109   5.888   3.850 -0.5943  0.2190 -0.8754
12726SOL    HW238757   2.099   5.960   3.983 -1.5084 -1.6241  0.0896
12727SOL     OW38758   1.395   2.709   3.477  0.3402 -0.1637  0.3204
12727SOL    HW138759   1.400   2.671   3.389  2.2745 -0.2433  0.4206
12727SOL    HW238760   1.461   2.779   3.477 -0.7608  0.9303  1.2246
12728SOL     OW38761   4.839   3.804   5.095  0.3181  0.3476  0.0399
12728SOL    HW138762   4.917   3.827   5.144 -0.5782 -0.1204  1.7628
12728SOL    HW238763   4.840   3.708   5.090 -0.7964  0.2340  1.2944
12729SOL     OW38764   2.492   4.243   2.114  0.5014  0.4154  0.3897
12729SOL    HW138765   2.558   4.301   2.153  0.7087  0.5915 -0.2129
12729SOL    HW238766   2.470   4.285   2.030  1.5188 -0.9664 -0.6105
12730SOL     OW38767   2.387   2.423   3.456 -0.7373 -0.0594  0.1823
12730SOL    HW138768   2.296   2.428   3.427 -0.4390  0.5604 -0.6653
12730SOL    HW238769   2.425   2.507   3.430 -0.0322 -0.1362  0.9251
12731SOL     OW38770   0.064   5.464   5.476 -0.0790  0.1190 -0.4860
12731SOL    HW138771   0.153   5.489   5.452  0.4610  0.5517  1.7647
12731SOL    HW238772   0.049   5.382   5.430  0.4261  1.3711 -3.0672
12732SOL     OW38773   4.825   9.226   4.348 -0.5164  0.2232  0.4719
12732SOL    HW138774   4.834   9.230   4.443 -2.9398 -0.6404  0.8347
12732SOL    HW238775   4.756   9.289   4.328  0.9758  1.4771 -0.9478
12733SOL     OW38776   3.054   3.776   2.927  0.5021 -0.2323 -0.4833
12733SOL    HW138777   3.129   3.718   2.938 -0.6022 -1.9017 -1.1992
12733SOL    HW238778   2.997   3.730   2.865 -2.1340 -0.1552  1.6610
12734SOL     OW38779   7.474   7.363   2.496  0.1362 -0.6351  0.1692
12734SOL    HW138780   7.389   7.363   2.451  1.0899 -2.6986 -1.8491
12734SOL    HW238781   7.500   7.455   2.499 -0.8252 -0.2369 -1.9444
12735SOL     OW38782   6.823   7.356   4.655  1.0017 -0.1316 -0.0958
12735SOL    HW138783   6.853   7.339   4.745 -2.4992 -0.4896  1.1563
12735SOL    HW238784   6.841   7.449   4.641  2.1132 -0.1977  0.7431
12736SOL     OW38785   6.734   2.707   7.302  0.0406 -0.2637  0.2031
12736SOL    HW138786   6.662   2.769   7.316  1.3162  1.1665  0.6656
12736SOL    HW238787   6.810   2.762   7.283  1.4213 -1.6389  1.4550
12737SOL     OW38788   2.051   4.542   9.956  0.6314 -0.2610  0.7745
12737SOL    HW138789   2.065   4.575  10.045  2.9422  0.5140  0.1902
12737SOL    HW238790   2.138   4.512   9.928 -0.5471 -2.9921 -0.2851
12738SOL     OW38791   1.824   6.379   8.284 -0.3225  0.0503  0.2098
12738SOL    HW138792   1.881   6.375   8.207  0.0713 -1.1909  0.5401
12738SOL    HW238793   1.735   6.370   8.248 -0.0869 -1.7513 -0.0608
12739SOL     OW38794   0.594   5.994   7.571  0.0212 -0.1887 -0.2767
12739SOL    HW138795   0.604   6.007   7.665 -4.0145  0.3536  0.2669
12739SOL    HW238796   0.595   6.083   7.534 -1.3085 -0.1374 -0.2588
12740SOL     OW38797   3.560   7.560   6.613  1.2808 -0.1523 -0.5310
12740SOL    HW138798   3.483   7.502   6.609  2.3401 -1.6449 -0.0958
12740SOL    HW238799   3.530   7.636   6.663  0.3568 -1.1730  0.5170
12741SOL     OW38800   8.670   4.365   0.881 -0.3653  0.9239  0.3937
12741SOL    HW138801   8.672   4.275   0.912 -0.2609  0.9763  0.5476
12741SOL    HW238802   8.623   4.413   0.950 -0.3098  1.0073  0.3747
12742SOL     OW38803   5.711   4.593   5.951  0.5508  0.4460  0.0951
12742SOL    HW138804   5.706   4.612   6.044  1.4266  3.0872 -0.3132
12742SOL    HW238805   5.631   4.633   5.915 -0.4224 -1.6214 -0.2115
12743SOL     OW38806   2.891   0.842   2.358 -0.3170 -0.4509 -0.1696
12743SOL    HW138807   2.930   0.916   2.405  1.9192 -1.3853 -0.4282
12743SOL    HW238808   2.854   0.880   2.278  0.7977  0.3957 -0.2929
12744SOL     OW38809   3.432   4.052   2.426 -0.2410  0.3388  0.4568
12744SOL    HW138810   3.518   4.036   2.465 -0.8706 -0.6761  1.5090
12744SOL    HW238811   3.375   4.069   2.501 -1.1045  0.2541 -0.1611
12745SOL     OW38812   9.088   5.831   2.244 -0.8292 -0.2767  0.2246
12745SOL    HW138813   9.178   5.833   2.213 -0.4876  1.4812  1.1968
12745SOL    HW238814   9.074   5.741   2.272  0.1880 -0.8807 -1.1110
12746SOL     OW38815   0.207   3.345   8.660  0.2439 -0.0385  0.0844
12746SOL    HW138816   0.201   3.412   8.592  3.5576 -0.9373 -1.3276
12746SOL    HW238817   0.185   3.263   8.615 -2.3667 -0.1808  1.4392
12747SOL     OW38818   3.057   0.905   5.425 -0.1535 -0.2073 -0.4839
12747SOL    HW138819   3.031   0.972   5.362 -2.2539 -0.5982 -0.1154
12747SOL    HW238820   3.035   0.943   5.510  0.1957 -0.7048 -0.1657
12748SOL     OW38821   6.140   6.094   7.314 -0.1828 -0.2213  0.6737
12748SOL    HW138822   6.130   6.181   7.353  1.2236  0.4671 -0.3834
12748SOL    HW238823   6.083   6.095   7.237  2.2393  1.1169 -1.3063
12749SOL     OW38824   0.706   8.312   3.463  0.2976  0.6282  0.0994
12749SOL    HW138825   0.781   8.327   3.406  0.6087 -1.5608 -0.1698
12749SOL    HW238826   0.724   8.227   3.504 -1.8399  0.2248  0.3241
12750SOL     OW38827   0.897   9.280   3.905  0.2342 -0.6683 -0.4516
12750SOL    HW138828   0.938   9.291   3.991 -0.0571 -0.9691 -0.2725
12750SOL    HW238829   0.933   9.351   3.852 -1.7930  1.3757  0.7264
12751SOL     OW38830   6.204   2.687   2.048 -0.1548  0.2966  0.5664
12751SOL    HW138831   6.141   2.734   1.995  2.0375  0.2004 -2.3766
12751SOL    HW238832   6.226   2.747   2.119 -3.0606  0.5038  1.4186
12752SOL     OW38833   7.416   0.648   1.307  0.3589 -0.0149  0.5014
12752SOL    HW138834   7.449   0.559   1.324  2.2800  0.6482  0.5592
12752SOL    HW238835   7.455   0.701   1.377 -0.8889  0.8609  0.5536
12753SOL     OW38836   0.217   0.733   7.963  0.4799 -0.2847 -0.5655
12753SOL    HW138837   0.122   0.725   7.971  0.0097  2.3876 -2.1439
12753SOL    HW238838   0.230   0.771   7.876  2.8185  1.5338  0.4803
12754SOL     OW38839   0.868   5.469   0.335  0.1881 -0.2171 -0.4437
12754SOL    HW138840   0.911   5.555   0.335 -0.2389  0.0328  1.0719
12754SOL    HW238841   0.821   5.466   0.419 -1.3316 -1.1849 -1.2849
12755SOL     OW38842   8.887   1.555   6.104 -0.4460  0.4021 -0.1978
12755SOL    HW138843   8.873   1.642   6.141  1.0718  0.5051  0.2149
12755SOL    HW238844   8.981   1.551   6.085 -0.0675 -1.8149  1.6197
12756SOL     OW38845   4.083   5.952   1.473  0.2276 -0.1774  0.3273
12756SOL    HW138846   4.091   6.001   1.554  0.8912  1.5940 -0.7494
12756SOL    HW238847   4.167   5.908   1.463  0.2041 -0.2651  0.5081
12757SOL     OW38848   4.563   6.594   3.376  0.3582  0.6655  0.0399
12757SOL    HW138849   4.498   6.539   3.332 -0.4767  0.5570  1.3548
12757SOL    HW238850   4.598   6.650   3.307  0.1382 -0.4811 -1.0368
12758SOL     OW38851   0.861   3.122   0.200  0.4094 -0.4410  0.2295
12758SOL    HW138852   0.901   3.209   0.204 -2.2307  0.8250  1.9018
12758SOL    HW238853   0.818   3.111   0.285 -1.2786 -2.3796 -0.7721
12759SOL     OW38854   0.411   8.308   6.135 -0.2522  0.2542  0.3036
12759SOL    HW138855   0.402   8.264   6.219 -1.2874 -0.0946  0.0362
12759SOL    HW238856   0.413   8.401   6.156  0.0780  0.1417  0.7548
12760SOL     OW38857   0.229   2.048   0.411 -0.0866 -0.4987 -0.4074
12760SOL    HW138858   0.168   2.115   0.381  0.6130  0.8930  1.1853
12760SOL    HW238859   0.175   1.987   0.462 -0.0615  1.3277  1.9439
12761SOL     OW38860   9.032   9.124   9.943  0.2695  0.2356 -0.0630
12761SOL    HW138861   9.037   9.201   9.886 -0.0293 -0.0722 -0.5125
12761SOL    HW238862   9.122   9.112   9.975  0.1658  1.2453  0.6601
12762SOL     OW38863   6.572   5.897   8.234 -0.2672  0.3342 -0.0750
12762SOL    HW138864   6.624   5.942   8.301  0.2951  0.6352 -0.7101
12762SOL    HW238865   6.528   5.968   8.187 -3.2180  0.0366  1.9732
12763SOL     OW38866   6.894   8.230   2.449 -0.5105  0.0436  0.3399
12763SOL    HW138867   6.878   8.181   2.530 -0.2277  2.3896  1.9268
12763SOL    HW238868   6.989   8.235   2.442 -0.5284  0.5957  0.3912
12764SOL     OW38869   9.048   4.250   3.010 -0.1762 -0.0138  0.0980
12764SOL    HW138870   9.079   4.172   2.964 -1.1738  0.3261 -1.1967
12764SOL    HW238871   9.044   4.318   2.943 -0.4774  0.8448  0.9530
12765SOL     OW38872   5.206   6.195   7.276 -0.2648  0.5467  0.2237
12765SOL    HW138873   5.202   6.241   7.360  0.7510  0.4145  0.3671
12765SOL    HW238874   5.300   6.190   7.257 -0.5067  1.1852 -1.2684
12766SOL     OW38875   0.513   2.468   2.375  0.0171 -0.1240  0.3656
12766SOL    HW138876   0.576   2.397   2.360 -2.0545 -1.9557 -0.1744
12766SOL    HW238877   0.551   2.543   2.330  2.5785 -0.6641  1.4525
12767SOL     OW38878   3.618   7.042   0.105  0.3397 -0.0654  0.5642
12767SOL    HW138879   3.569   6.986   0.045 -1.0580  0.9522  0.6994
12767SOL    HW238880   3.575   7.127   0.099  0.6075  0.2626  2.4713
12768SOL     OW38881   7.107   3.028   2.775 -0.0131  0.5053 -0.2632
12768SOL    HW138882   7.092   3.063   2.687  0.8277 -1.5095 -1.2879
12768SOL    HW238883   7.079   2.936   2.768  2.7310 -0.4938  0.7091
12769SOL     OW38884   3.432   3.332   2.973 -0.3249 -0.1754 -0.6103
12769SOL    HW138885   3.343   3.302   2.954 -0.0003 -1.2676 -0.4608
12769SOL    HW238886   3.478   3.253   3.001  0.3010  0.6522  0.7726
12770SOL     OW38887   6.872   4.609   4.166 -0.2310 -0.2898  0.2976
12770SOL    HW138888   6.860   4.695   4.205 -0.7952  0.7404 -1.9656
12770SOL    HW238889   6.966   4.590   4.178  0.3452  1.5614 -0.8106
12771SOL     OW38890   4.540   6.913   0.594 -0.5874  0.4584  0.0770
12771SOL    HW138891   4.606   6.901   0.526 -0.4851  1.7031 -0.0747
12771SOL    HW238892   4.547   7.006   0.618 -0.6135  0.0389  1.7980
12772SOL     OW38893   3.405   1.056   6.011  0.3417 -0.4398  0.0248
12772SOL    HW138894   3.467   1.026   6.077  0.6040 -1.1147 -0.5121
12772SOL    HW238895   3.405   1.151   6.019  1.1603 -0.4575  0.2885
12773SOL     OW38896   8.386   7.687   4.930  0.3689 -0.4541  0.0042
12773SOL    HW138897   8.465   7.648   4.890 -0.6523 -2.2478 -0.3600
12773SOL    HW238898   8.417   7.725   5.012  1.5790 -1.3363 -0.0162
12774SOL     OW38899   8.930   7.534   2.266 -0.2377  0.1174  0.1292
12774SOL    HW138900   8.885   7.476   2.327  3.2819 -2.7890  0.3058
12774SOL    HW238901   8.956   7.610   2.319 -0.8771 -0.3646  1.1505
12775SOL     OW38902   4.483   7.131   6.331  0.3622  0.1163 -0.7855
12775SOL    HW138903   4.445   7.083   6.405  1.4581  0.1944 -0.1478
12775SOL    HW238904   4.506   7.063   6.267  2.3385 -0.3131  0.3061
12776SOL     OW38905   6.942   0.982   2.199 -0.5505 -0.0411  0.0889
12776SOL    HW138906   6.975   0.977   2.289 -0.6036 -1.6343  0.0416
12776SOL    HW238907   6.849   0.964   2.207 -0.1962 -2.5008 -0.4697
12777SOL     OW38908   4.647   5.563   1.299 -0.0264 -0.3399  0.0379
12777SOL    HW138909   4.677   5.642   1.253 -0.0200 -1.0089 -1.1343
12777SOL    HW238910   4.552   5.571   1.301 -0.0491 -0.5051 -0.4430
12778SOL     OW38911   4.952   1.544   6.401 -0.1853  0.4466  0.3306
12778SOL    HW138912   4.940   1.457   6.362 -0.5509  0.1133  1.1436
12778SOL    HW238913   5.035   1.537   6.448 -1.5588 -0.4485  2.8099
12779SOL     OW38914   5.246   7.648   5.682  0.4220 -0.4436  0.1514
12779SOL    HW138915   5.247   7.738   5.651 -0.0311 -1.0529 -1.7231
12779SOL    HW238916   5.153   7.624   5.682  0.4050 -0.5136  1.9521
12780SOL     OW38917   0.876   6.158   9.712 -0.0891  0.4129  0.3529
12780SOL    HW138918   0.922   6.226   9.663 -0.2955 -0.3972 -1.0107
12780SOL    HW238919   0.939   6.086   9.719 -1.0754 -0.7233 -1.5660
12781SOL     OW38920   9.161   6.747   6.605  0.2239  0.0730 -0.4996
12781SOL    HW138921   9.140   6.829   6.651 -0.2919 -0.4035  0.1482
12781SOL    HW238922   9.238   6.768   6.552  0.3632  0.8591 -0.0112
12782SOL     OW38923   1.244   7.745   8.928  0.7201 -0.1698  0.3670
12782SOL    HW138924   1.286   7.665   8.898  0.1183 -0.0270 -0.9555
12782SOL    HW238925   1.300   7.778   8.998  2.6090 -0.1881 -1.0560
12783SOL     OW38926   8.614   9.966   8.800  0.4833  0.6632 -0.3943
12783SOL    HW138927   8.696   9.967   8.750  1.7146  1.4937  1.5536
12783SOL    HW238928   8.627   9.899   8.867 -0.6700  0.4187 -0.3818
12784SOL     OW38929   3.928   2.423   3.051 -0.0111  0.1672 -0.5049
12784SOL    HW138930   3.856   2.372   3.013  0.4244  0.5215 -1.8549
12784SOL    HW238931   3.901   2.514   3.039  0.4959  0.2945 -0.6786
12785SOL     OW38932   2.586   1.280   2.347  0.5130 -0.1703  0.6682
12785SOL    HW138933   2.669   1.306   2.308  0.7588 -0.6726  0.8456
12785SOL    HW238934   2.530   1.258   2.273  0.7934 -0.5721  0.5697
12786SOL     OW38935   4.113   8.877   0.384 -0.0520 -0.0944  0.2094
12786SOL    HW138936   4.129   8.906   0.295  0.0145  0.4600  0.4016
12786SOL    HW238937   4.122   8.781   0.380  1.3251  0.0240 -0.0923
12787SOL     OW38938   7.234   7.921   5.006 -0.1585  0.6641 -0.0681
12787SOL    HW138939   7.259   7.975   4.931  1.7226  0.8222  0.6189
12787SOL    HW238940   7.167   7.862   4.972  0.1950  1.1589 -1.7135
12788SOL     OW38941   2.997   3.295   6.393  0.3058  0.5692 -0.0344
12788SOL    HW138942   2.930   3.301   6.325 -0.6516  0.4773  0.8704
12788SOL    HW238943   2.985   3.374   6.446  0.5640  0.2901  0.4498
12789SOL     OW38944   4.303   8.901   9.022  0.6472  0.2802  0.5158
12789SOL    HW138945   4.382   8.855   9.050  1.1164  0.8274  0.1126
12789SOL    HW238946   4.329   8.945   8.942 -0.6899 -1.3209 -0.8654
12790SOL     OW38947   6.977   6.290   8.679  0.1101  0.0060 -0.2795
12790SOL    HW138948   6.909   6.264   8.617  0.0226  0.2024 -0.2667
12790SOL    HW238949   6.968   6.385   8.686  0.6374  0.0832 -0.5731
12791SOL     OW38950   9.366   9.204   2.540 -0.0840  0.5496 -0.0088
12791SOL    HW138951   9.428   9.166   2.478  0.4265  1.6154 -0.1743
12791SOL    HW238952   9.378   9.154   2.621  0.8553  0.6187 -0.1003
12792SOL     OW38953   8.899   4.500   5.121  0.3048 -0.1271 -0.4963
12792SOL    HW138954   8.922   4.475   5.210 -2.6644  2.5077  1.2169
12792SOL    HW238955   8.959   4.571   5.099  2.0195 -1.7499 -1.2910
12793SOL     OW38956   2.164   9.911   1.793  0.0452 -0.8807  0.0953
12793SOL    HW138957   2.076   9.949   1.798  1.1143  1.9939 -0.6243
12793SOL    HW238958   2.198   9.920   1.882 -0.0719 -1.1430  0.1668
12794SOL     OW38959   8.182   1.207   2.584 -0.0709  0.0178 -0.0912
12794SOL    HW138960   8.140   1.230   2.501 -0.1485 -1.1495 -0.3911
12794SOL    HW238961   8.199   1.292   2.625 -2.3089  0.5859 -0.1526
12795SOL     OW38962   9.634   7.134   8.442  0.0295 -0.5625  0.4540
12795SOL    HW138963   9.721   7.109   8.412  0.0527  0.6065 -0.5742
12795SOL    HW238964   9.649   7.178   8.526  0.3621 -0.8261  0.5340
12796SOL     OW38965   0.579   5.529   6.184  0.2707 -0.4736 -0.0916
12796SOL    HW138966   0.672   5.531   6.207  0.1587  2.1253  0.4144
12796SOL    HW238967   0.578   5.522   6.089  0.9974  0.0327 -0.1424
12797SOL     OW38968   3.195   3.830   5.719  0.2639  0.0029  0.3519
12797SOL    HW138969   3.144   3.849   5.798 -0.6638  0.3821 -0.3246
12797SOL    HW238970   3.191   3.910   5.667  0.3416 -0.4429 -0.3608
12798SOL     OW38971   2.790   0.535   1.095 -0.0870 -0.2297 -0.5782
12798SOL    HW138972   2.735   0.544   1.017  0.4921 -2.2769 -1.2659
12798SOL    HW238973   2.756   0.459   1.141 -0.1272  0.6786  0.9729
12799SOL     OW38974   5.123   9.953   3.647 -0.5873 -0.0192 -0.0525
12799SOL    HW138975   5.078   9.877   3.611  3.4873 -3.3644  1.0905
12799SOL    HW238976   5.091   9.960   3.737 -3.1254  1.6934 -0.9852
12800SOL     OW38977   7.574   9.207   9.169 -0.6113  0.7186 -0.2349
12800SOL    HW138978   7.669   9.215   9.160 -0.5455 -0.5932 -1.0521
12800SOL    HW238979   7.548   9.148   9.098 -1.9113  0.2774  0.5694
12801SOL     OW38980   8.879   9.894   7.878 -0.0693 -0.3865 -0.5289
12801SOL    HW138981   8.887   9.976   7.829 -1.6719  1.0600  1.4442
12801SOL    HW238982   8.954   9.842   7.850  1.2402  1.8997 -1.5707
12802SOL     OW38983   7.304   1.463   7.744 -0.2523 -0.2515  0.1264
12802SOL    HW138984   7.363   1.404   7.697  0.0442 -0.8734  1.2241
12802SOL    HW238985   7.361   1.531   7.780  0.2621 -2.1000  3.1453
12803SOL     OW38986   8.562   7.079   0.707  0.2695 -0.2376  0.3725
12803SOL    HW138987   8.631   7.142   0.685  0.5031 -0.1849  1.2155
12803SOL    HW238988   8.515   7.066   0.625  0.4604  0.7391  0.0864
12804SOL     OW38989   0.575   8.904   8.489 -0.1084 -0.5478  0.5240
12804SOL    HW138990   0.565   8.933   8.398 -0.7505  1.8569  1.2839
12804SOL    HW238991   0.611   8.816   8.482  0.7329 -0.1000 -2.0595
12805SOL     OW38992   1.561   4.137   0.433  0.3900  0.0467  0.3804
12805SOL    HW138993   1.517   4.134   0.518 -2.9246 -0.6989 -1.2087
12805SOL    HW238994   1.502   4.187   0.377  1.4370 -1.2321 -2.0064
12806SOL     OW38995   3.964   5.528   9.681  0.3526  0.2479 -0.4468
12806SOL    HW138996   3.892   5.481   9.723 -0.3813  0.5957 -1.2844
12806SOL    HW238997   4.023   5.550   9.752  0.1888 -1.0201  0.1119
12807SOL     OW38998   8.971   2.373   9.489 -0.6102 -0.4831 -0.4386
12807SOL    HW138999   8.938   2.343   9.573  1.2372  0.1330  0.5643
12807SOL    HW239000   9.011   2.458   9.507  2.4101 -1.5797 -1.2292
12808SOL     OW39001   3.009   2.211   0.363 -0.0758 -0.0736  0.6292
12808SOL    HW139002   2.914   2.198   0.358 -0.4047  2.0415  0.7955
12808SOL    HW239003   3.038   2.148   0.430 -1.4442 -0.2816  1.0606
12809SOL     OW39004   8.139   7.903   5.942  0.4820 -0.3650  0.5307
12809SOL    HW139005   8.120   7.921   6.034 -1.3061 -1.1074  0.3390
12809SOL    HW239006   8.132   7.989   5.900  3.2189  0.3348  1.3218
12810SOL     OW39007   0.348   7.780   1.564  0.3385 -0.1512  0.4598
12810SOL    HW139008   0.352   7.690   1.531  0.7794  0.6411 -1.7639
12810SOL    HW239009   0.358   7.835   1.487 -0.2039  1.8417  1.7366
12811SOL     OW39010   4.504   1.560   8.032  0.2002  0.1902  0.7290
12811SOL    HW139011   4.581   1.507   8.054 -0.4073 -1.5119 -0.9841
12811SOL    HW239012   4.504   1.630   8.098  3.7122  0.8169  0.2694
12812SOL     OW39013   0.670   7.884   2.378 -0.5770 -0.2411 -0.6544
12812SOL    HW139014   0.717   7.926   2.449  0.3255  0.3924 -1.5883
12812SOL    HW239015   0.594   7.843   2.419  0.9873 -1.6580  0.9890
12813SOL     OW39016   8.396   2.914   1.905 -0.1495  0.5497 -0.0772
12813SOL    HW139017   8.461   2.852   1.873 -0.8984 -0.0715 -0.4130
12813SOL    HW239018   8.332   2.921   1.834 -0.0954  1.6870 -0.0371
12814SOL     OW39019   9.632   7.789   0.639  0.3354  0.1237 -0.1992
12814SOL    HW139020   9.699   7.723   0.623  3.8118  3.2294  0.3258
12814SOL    HW239021   9.639   7.808   0.733 -1.6787  0.2075 -0.0273
12815SOL     OW39022   8.726   2.593   0.583 -0.5323  0.3579  0.1511
12815SOL    HW139023   8.704   2.669   0.637 -0.5391  0.7475 -0.3908
12815SOL    HW239024   8.799   2.552   0.629  0.4596  1.5372 -0.3024
12816SOL     OW39025   1.458   1.351   4.763 -0.0247 -0.4792 -0.0948
12816SOL    HW139026   1.467   1.436   4.805 -0.6773 -0.5810  0.2697
12816SOL    HW239027   1.448   1.371   4.670 -1.7274 -0.0335  0.1442
12817SOL     OW39028   0.718   3.776   4.298 -0.0542  0.1952 -0.2124
12817SOL    HW139029   0.749   3.843   4.358 -0.9759  0.6312 -0.2064
12817SOL    HW239030   0.786   3.709   4.299 -0.1281  0.1085  1.4453
12818SOL     OW39031   0.452   4.431   8.788 -0.4539 -0.1868 -0.4795
12818SOL    HW139032   0.405   4.488   8.848  0.8385 -1.6634  2.0805
12818SOL    HW239033   0.506   4.490   8.736  0.4888  1.0151  1.7411
12819SOL     OW39034   4.611   1.380   2.837  0.3687  0.1623 -0.3282
12819SOL    HW139035   4.700   1.414   2.836  0.3731  0.2338  0.7587
12819SOL    HW239036   4.595   1.350   2.748  2.1947 -1.6972 -0.0982
12820SOL     OW39037   5.425   2.956   1.785 -0.7039 -0.9638 -0.0751
12820SOL    HW139038   5.363   3.027   1.769 -0.5795 -0.7604  0.3311
12820SOL    HW239039   5.464   2.977   1.870  2.3471  0.6557 -1.7270
12821SOL     OW39040   6.247   1.152   4.339 -0.6301 -0.2945  0.3569
12821SOL    HW139041   6.304   1.227   4.322 -1.2509  1.1697  3.8503
12821SOL    HW239042   6.158   1.186   4.329 -0.9127 -0.8510  0.8632
12822SOL     OW39043   9.306   9.554   9.612 -0.1484 -0.6089 -0.2773
12822SOL    HW139044   9.326   9.641   9.578 -0.0175 -0.5246  0.0142
12822SOL    HW239045   9.343   9.553   9.700 -1.8357 -0.2656  0.4857
12823SOL     OW39046   9.650   1.922   9.678  0.1900 -0.2478 -0.3109
12823SOL    HW139047   9.710   1.935   9.752  0.6967 -0.1781 -0.7312
12823SOL    HW239048   9.707   1.905   9.603 -0.2711  0.8670 -0.9373
12824SOL     OW39049   7.409   5.071   0.858  0.0458 -0.0049  0.3766
12824SOL    HW139050   7.358   5.006   0.810 -0.3119  1.8205 -1.9037
12824SOL    HW239051   7.344   5.121   0.907 -0.2303  1.2256 -1.1737
12825SOL     OW39052   4.682   0.167   2.146 -0.2904 -0.3498 -0.0003
12825SOL    HW139053   4.681   0.084   2.194 -1.9938  0.2319  1.0772
12825SOL    HW239054   4.600   0.167   2.096  0.5801 -0.1214 -1.4964
12826SOL     OW39055   3.455   2.625   1.591 -0.5377  0.2789 -0.2042
12826SOL    HW139056   3.527   2.570   1.561 -0.9059 -0.2855 -0.0600
12826SOL    HW239057   3.470   2.636   1.685  0.1088  1.2901 -0.4155
12827SOL     OW39058   7.589   6.428   1.650 -0.1394 -0.4086  0.0293
12827SOL    HW139059   7.646   6.443   1.574 -1.1534  0.9071 -0.5297
12827SOL    HW239060   7.502   6.416   1.612 -0.6990  0.4706  0.9674
12828SOL     OW39061   1.664   1.597   6.179  0.0347 -0.1099 -0.2453
12828SOL    HW139062   1.705   1.581   6.094  2.3767 -0.8753  0.9627
12828SOL    HW239063   1.571   1.576   6.165  0.4632 -0.7067 -2.4670
12829SOL     OW39064   6.918   4.365   8.445  0.1604  0.7397  0.4744
12829SOL    HW139065   6.864   4.312   8.503 -0.0350 -1.0025 -1.2167
12829SOL    HW239066   6.859   4.393   8.375  1.4958 -2.2547 -2.1002
12830SOL     OW39067   9.115   8.965   8.066 -0.5429 -0.1463 -0.0075
12830SOL    HW139068   9.113   8.951   7.972 -0.3249 -2.4174  0.2720
12830SOL    HW239069   9.206   8.951   8.091 -0.4216  1.2870  0.4675
12831SOL     OW39070   5.022   9.479   7.768 -0.2681 -0.1271 -0.1150
12831SOL    HW139071   4.960   9.491   7.696 -0.7610  0.0979  0.3436
12831SOL    HW239072   4.999   9.546   7.832  1.4089  0.9618 -0.5692
12832SOL     OW39073   0.815   7.797   7.157  0.0753 -0.1171  0.3384
12832SOL    HW139074   0.782   7.783   7.068  1.2037 -1.3748  0.0828
12832SOL    HW239075   0.806   7.891   7.172 -0.7807  0.0096 -0.8324
12833SOL     OW39076   6.852   4.963   5.782 -0.5223 -0.1278 -0.1257
12833SOL    HW139077   6.894   4.967   5.697 -0.6400 -0.9895 -0.2389
12833SOL    HW239078   6.898   4.892   5.828 -1.5427 -0.7921 -0.0968
12834SOL     OW39079   2.541   8.390   1.471  0.3383 -0.6286 -0.2423
12834SOL    HW139080   2.532   8.296   1.487  0.0014 -0.5177  0.2173
12834SOL    HW239081   2.483   8.431   1.534 -1.5843 -0.2211 -2.1739
12835SOL     OW39082   9.804   7.805   1.711 -0.3833 -0.0630 -0.6743
12835SOL    HW139083   9.727   7.853   1.681 -1.8138 -0.7171  1.6970
12835SOL    HW239084   9.840   7.859   1.782 -0.6175 -1.3028  0.4288
12836SOL     OW39085   3.712   5.994   2.489 -0.6145  0.5117 -0.2565
12836SOL    HW139086   3.618   5.984   2.473 -0.3460  0.9810 -2.3740
12836SOL    HW239087   3.735   6.076   2.445  1.0544 -0.3537 -1.0732
12837SOL     OW39088   7.764   3.081   2.799  0.7628 -0.3779 -0.6831
12837SOL    HW139089   7.846   3.076   2.847  1.3584 -3.4910 -1.7905
12837SOL    HW239090   7.789   3.103   2.709 -0.0344  2.1537 -0.3619
12838SOL     OW39091   7.632   0.481   1.022 -0.2044 -0.2405 -0.4251
12838SOL    HW139092   7.579   0.410   0.985  0.3652  0.1848 -2.2034
12838SOL    HW239093   7.721   0.445   1.022 -0.0488  0.1430 -0.4848
12839SOL     OW39094   4.699   4.304   6.342 -0.2119 -0.4267  0.2032
12839SOL    HW139095   4.785   4.274   6.312 -0.5344 -0.5472 -0.6548
12839SOL    HW239096   4.686   4.259   6.425  2.1169  2.4123  2.3064
12840SOL     OW39097   2.930   4.688   7.383 -0.0617 -0.5573 -0.3533
12840SOL    HW139098   2.914   4.767   7.434  0.1692 -0.3027 -0.6681
12840SOL    HW239099   3.018   4.660   7.410  1.0689  0.9023 -2.2907
12841SOL     OW39100   4.302   9.259   4.102 -0.6348  0.1025  0.2979
12841SOL    HW139101   4.378   9.274   4.158  0.6022  0.2233 -1.3414
12841SOL    HW239102   4.259   9.344   4.096  1.1870  0.9774 -1.6334
12842SOL     OW39103   2.027   2.355   6.733  0.9101 -0.2914 -0.2057
12842SOL    HW139104   1.995   2.269   6.763 -0.0644 -0.4428 -1.6143
12842SOL    HW239105   2.044   2.403   6.814 -1.4197 -0.7654  0.6526
12843SOL     OW39106   5.211   8.586   1.764 -0.0681 -0.5852 -0.0760
12843SOL    HW139107   5.270   8.662   1.761  0.4477 -1.0029 -2.0272
12843SOL    HW239108   5.241   8.535   1.839 -0.8326  1.4088  1.6924
12844SOL     OW39109   5.737   1.647   6.475  0.0754  0.6838  0.2629
12844SOL    HW139110   5.734   1.702   6.396  0.2980  0.1381 -0.1338
12844SOL    HW239111   5.790   1.696   6.537  0.5541  0.7642 -0.2074
12845SOL     OW39112   7.427   3.099   7.584  0.2427  0.7972  0.0358
12845SOL    HW139113   7.444   3.083   7.491 -0.3497  1.5297 -0.2113
12845SOL    HW239114   7.370   3.177   7.585 -1.7261 -0.5741  0.8797
12846SOL     OW39115   2.965   7.549   5.102  0.1313  0.1797  0.4605
12846SOL    HW139116   3.047   7.504   5.082 -1.6974 -3.3291  0.1485
12846SOL    HW239117   2.928   7.571   5.017 -1.5718 -3.0181  0.2364
12847SOL     OW39118   0.593   5.958   2.142  0.0650 -0.2146  0.0783
12847SOL    HW139119   0.635   5.874   2.122  1.0464 -0.0904  1.4540
12847SOL    HW239120   0.515   5.959   2.087  0.8074 -1.3614 -1.0733
12848SOL     OW39121   3.859   3.292   7.699 -0.5526 -0.7437 -0.4438
12848SOL    HW139122   3.780   3.345   7.710 -1.1791 -1.5165 -1.0599
12848SOL    HW239123   3.923   3.352   7.663 -1.1087 -0.2892 -0.6922
12849SOL     OW39124   2.356   5.736   4.001  0.2996 -0.3255 -0.0653
12849SOL    HW139125   2.415   5.682   4.055  1.5488  1.1022  0.0548
12849SOL    HW239126   2.415   5.793   3.952 -0.8608 -1.0380 -2.3950
12850SOL     OW39127   1.923   6.711   2.159 -0.3458 -0.7754  0.0378
12850SOL    HW139128   1.996   6.661   2.195  0.3747 -0.5535 -1.0513
12850SOL    HW239129   1.916   6.682   2.068  0.0427  1.0037 -0.6130
12851SOL     OW39130   3.133   5.776   1.424  0.5028 -0.1445 -0.1686
12851SOL    HW139131   3.111   5.690   1.459  1.2198 -1.3994 -2.5276
12851SOL    HW239132   3.066   5.794   1.358 -0.1517  1.5752  0.8890
12852SOL     OW39133   3.657   0.535   0.524  0.0298  0.3665 -0.3872
12852SOL    HW139134   3.731   0.548   0.466 -1.0083  0.3402 -1.7714
12852SOL    HW239135   3.608   0.462   0.486  0.8904 -1.7195  2.2257
12853SOL     OW39136   3.322   1.197   3.347  0.0656  0.6279 -0.2084
12853SOL    HW139137   3.335   1.103   3.332 -1.9850  0.2896 -0.1677
12853SOL    HW239138   3.246   1.219   3.293 -0.6173  1.8359  1.1849
12854SOL     OW39139   2.801   0.450   2.877 -0.1100 -0.0364  0.1871
12854SOL    HW139140   2.873   0.467   2.817  0.6022 -1.5592  0.5520
12854SOL    HW239141   2.743   0.391   2.829  0.5491 -1.3991  0.9990
12855SOL     OW39142   6.815   0.554   2.256 -0.2688 -0.6483 -0.1304
12855SOL    HW139143   6.907   0.561   2.282 -0.6973  0.6859  1.1551
12855SOL    HW239144   6.803   0.621   2.188 -0.9014  1.1698  1.6859
12856SOL     OW39145   4.380   1.733   4.743 -0.6522 -0.6756  0.0859
12856SOL    HW139146   4.318   1.683   4.690 -2.5922  0.2715  1.3592
12856SOL    HW239147   4.400   1.810   4.690 -1.0597 -0.6723 -0.0663
12857SOL     OW39148   2.274   2.163   5.603 -0.0837 -0.1022 -0.1718
12857SOL    HW139149   2.195   2.119   5.634 -0.9862  1.9734  0.7024
12857SOL    HW239150   2.288   2.129   5.515 -2.2660 -0.1645 -0.5410
12858SOL     OW39151   8.056   5.858   6.182 -0.5717 -0.6483 -0.2800
12858SOL    HW139152   7.966   5.868   6.215 -0.0618 -0.4214  1.1176
12858SOL    HW239153   8.056   5.906   6.099 -1.7715 -0.7635 -0.3762
12859SOL     OW39154   2.193   5.275   6.665 -0.1639 -0.5161  0.1827
12859SOL    HW139155   2.099   5.293   6.669  0.4037  3.6136 -0.7690
12859SOL    HW239156   2.210   5.257   6.572  0.0666 -0.9809  0.3100
12860SOL     OW39157   3.457   1.508   8.925 -0.6345  0.5169 -0.5576
12860SOL    HW139158   3.426   1.547   9.007 -2.1754  0.9904 -1.3227
12860SOL    HW239159   3.392   1.534   8.860  1.2694  1.3075 -2.2344
12861SOL     OW39160   1.685   7.337   5.842  0.2548  0.0113  0.1331
12861SOL    HW139161   1.768   7.385   5.842 -0.5129  1.3944 -0.0574
12861SOL    HW239162   1.619   7.404   5.831 -0.8646 -1.1500 -0.4485
12862SOL     OW39163   3.735   4.520   0.127  0.0572  0.2509 -0.4151
12862SOL    HW139164   3.763   4.511   0.036  0.7162  0.8685 -0.2750
12862SOL    HW239165   3.664   4.456   0.136  0.9282 -0.8242 -0.9756
12863SOL     OW39166   1.297   3.381   5.974  0.1068 -0.7857 -0.4395
12863SOL    HW139167   1.270   3.426   6.054  2.2292  2.6268 -1.4498
12863SOL    HW239168   1.377   3.335   5.999 -0.5198 -1.7398 -0.1052
12864SOL     OW39169   9.720   2.014   2.534  0.3597 -0.5408 -0.2498
12864SOL    HW139170   9.727   1.922   2.507  1.6507 -0.9764  1.4648
12864SOL    HW239171   9.746   2.015   2.626  0.0099  1.5060 -0.1198
12865SOL     OW39172   3.750   1.339   8.108 -0.3585  0.1123  0.5501
12865SOL    HW139173   3.821   1.279   8.131 -0.8541 -0.8730 -0.3889
12865SOL    HW239174   3.720   1.309   8.022 -1.4501  0.9339  0.6194
12866SOL     OW39175   4.513   8.721   7.697 -0.0570  0.3769  0.1260
12866SOL    HW139176   4.537   8.639   7.655  3.3817 -0.4350  3.1802
12866SOL    HW239177   4.432   8.701   7.745  0.1274 -0.8816 -0.0562
12867SOL     OW39178   8.418   8.242   1.422  0.4090 -0.2276 -0.3712
12867SOL    HW139179   8.406   8.151   1.397 -0.2623 -0.1357 -0.4191
12867SOL    HW239180   8.495   8.243   1.477  0.0310 -0.9259  0.1775
12868SOL     OW39181   5.714   5.129   4.646 -0.0837 -0.9003  0.1233
12868SOL    HW139182   5.655   5.135   4.571  0.5244 -1.5736 -0.4240
12868SOL    HW239183   5.801   5.133   4.608  0.2364  0.0788  0.9252
12869SOL     OW39184   1.685   0.650   1.167 -0.3071 -0.2733  0.9326
12869SOL    HW139185   1.740   0.602   1.229 -0.3111  0.2504  1.3443
12869SOL    HW239186   1.677   0.738   1.204 -1.3626 -0.3142  0.8535
12870SOL     OW39187   6.423   7.768   0.034 -0.1010  0.2509 -0.7089
12870SOL    HW139188   6.390   7.680   0.019 -0.1006  0.0172  0.5837
12870SOL    HW239189   6.388   7.793   0.119  1.3264  0.8088 -0.2431
12871SOL     OW39190   1.834   8.415   6.900  0.4757 -0.6584  0.0247
12871SOL    HW139191   1.826   8.386   6.991 -0.0912 -1.9512 -0.4024
12871SOL    HW239192   1.746   8.443   6.876  0.4174 -1.1733 -0.3836
12872SOL     OW39193   0.367   4.324   2.933  0.0748  0.1599 -0.1639
12872SOL    HW139194   0.433   4.256   2.919 -0.9373 -1.1233  1.0722
12872SOL    HW239195   0.288   4.277   2.957 -0.8161  1.7679  0.2375
12873SOL     OW39196   2.021   7.049   6.461  0.3011  0.1398 -0.4181
12873SOL    HW139197   1.989   7.084   6.545 -0.5388 -1.5247 -0.0087
12873SOL    HW239198   1.941   7.024   6.414  0.6934  1.9300 -2.1669
12874SOL     OW39199   6.285   4.961   5.334 -0.5772  0.1570  0.1379
12874SOL    HW139200   6.328   4.909   5.266  1.5545  1.2492  0.5805
12874SOL    HW239201   6.333   4.942   5.414 -1.3871  0.8737  0.8198
12875SOL     OW39202   7.120   4.605   9.568 -0.0924  0.2003  0.5882
12875SOL    HW139203   7.155   4.529   9.521 -1.6107  0.1249 -0.4958
12875SOL    HW239204   7.112   4.673   9.502 -1.2888  0.4319  0.9562
12876SOL     OW39205   3.784   7.081   6.924  0.3293  0.3200  0.3073
12876SOL    HW139206   3.724   7.126   6.865  1.9005  0.2029 -1.5093
12876SOL    HW239207   3.746   6.994   6.937  0.8770 -0.3930 -2.2570
12877SOL     OW39208   5.882   0.393   7.900 -0.0007  0.0668 -0.1612
12877SOL    HW139209   5.825   0.445   7.844 -0.5527  0.4758  0.7516
12877SOL    HW239210   5.942   0.350   7.840 -0.7663  0.2499 -1.0876
12878SOL     OW39211   5.081   3.134   3.213 -0.4729  0.0524  0.4981
12878SOL    HW139212   5.150   3.084   3.169 -0.1840 -0.1996  1.2266
12878SOL    HW239213   5.005   3.126   3.155  0.6487  2.0944 -1.4247
12879SOL     OW39214   7.198   5.389   7.721  0.3697 -0.8187  0.1089
12879SOL    HW139215   7.271   5.437   7.680 -0.0042 -1.3169 -1.1903
12879SOL    HW239216   7.158   5.453   7.781  2.6862 -0.9383  1.9271
12880SOL     OW39217   8.527   3.965   9.731 -0.8871 -0.4262  0.2317
12880SOL    HW139218   8.504   3.884   9.684 -0.2923  0.2105 -1.2287
12880SOL    HW239219   8.509   3.945   9.823 -2.4213 -1.6302 -0.2716
12881SOL     OW39220   3.740   6.996   0.323 -0.2410 -0.0812 -0.5083
12881SOL    HW139221   3.706   7.016   0.235 -0.3231 -0.9454 -0.6799
12881SOL    HW239222   3.824   7.041   0.327 -0.6265  0.6899 -0.6985
12882SOL     OW39223   7.723   4.835   8.838 -0.3586 -0.0370 -0.2964
12882SOL    HW139224   7.692   4.915   8.794 -1.1547 -0.0286  0.2484
12882SOL    HW239225   7.776   4.867   8.911  0.1061 -0.0271 -0.6394
12883SOL     OW39226   9.128   6.812   4.494  0.5053  0.2774  0.1626
12883SOL    HW139227   9.217   6.844   4.480  0.5958  0.2347  0.6328
12883SOL    HW239228   9.093   6.799   4.406  1.2301 -0.4535 -0.0313
12884SOL     OW39229   4.752   7.981   3.249  0.2862  0.1563  0.0043
12884SOL    HW139230   4.672   8.032   3.235  1.1901  1.1262 -1.9382
12884SOL    HW239231   4.792   8.021   3.326 -1.4475 -0.8860  1.5436
12885SOL     OW39232   8.023   4.860   9.292 -0.0051  0.0912  0.3885
12885SOL    HW139233   8.035   4.877   9.386 -0.9504 -1.1764  0.7754
12885SOL    HW239234   8.017   4.764   9.286 -0.2583  0.1698 -0.9276
12886SOL     OW39235   9.220   0.920   3.506  0.3615 -0.4795  0.2397
12886SOL    HW139236   9.278   0.864   3.456  0.7476  0.3411 -0.2430
12886SOL    HW239237   9.234   1.008   3.471 -0.2645 -0.0794  0.9506
12887SOL     OW39238   2.454   5.494   7.492 -0.3198 -0.7487 -0.0410
12887SOL    HW139239   2.512   5.418   7.489  0.7473 -0.0617  1.7362
12887SOL    HW239240   2.388   5.472   7.557 -1.3386 -0.9999 -1.1183
12888SOL     OW39241   1.102   4.205   5.382 -0.4824  0.6371 -0.3823
12888SOL    HW139242   1.064   4.200   5.294 -0.7066 -1.0250 -0.2182
12888SOL    HW239243   1.143   4.120   5.395 -1.9611  0.1723  1.7791
12889SOL     OW39244   6.312   7.836   3.860  0.1402 -0.5916  0.0300
12889SOL    HW139245   6.266   7.877   3.933  0.1841 -0.9898  0.2878
12889SOL    HW239246   6.274   7.875   3.782 -0.2651 -0.5329  0.2558
12890SOL     OW39247   3.613   5.960   8.284  0.0847 -0.0951  0.4824
12890SOL    HW139248   3.555   6.036   8.284  0.2626  0.0428  0.7544
12890SOL    HW239249   3.561   5.890   8.245 -0.1006  0.1515  0.2895
12891SOL     OW39250   0.222   6.858   3.594 -0.5510  0.0691 -0.8834
12891SOL    HW139251   0.214   6.822   3.505  0.6743 -2.3371 -0.1353
12891SOL    HW239252   0.315   6.881   3.601 -0.4849 -0.4124 -0.0456
12892SOL     OW39253   7.308   1.207   0.388  0.4832 -0.3985  0.1722
12892SOL    HW139254   7.360   1.163   0.455  0.7975 -0.2805  0.0077
12892SOL    HW239255   7.351   1.185   0.305  0.4206 -0.0931  0.0569
12893SOL     OW39256   9.880   9.684   3.954  0.3777 -0.1846  0.7401
12893SOL    HW139257   9.797   9.659   3.996 -0.0038 -0.1297  0.0473
12893SOL    HW239258   9.856   9.697   3.862  1.1204  0.0433  0.5770
12894SOL     OW39259   2.113   8.773   9.172  0.1206 -0.4374  0.3057
12894SOL    HW139260   2.171   8.848   9.160 -0.7403  0.3185  0.8068
12894SOL    HW239261   2.109   8.760   9.267 -0.0970 -0.8386  0.2461
12895SOL     OW39262   3.974   4.495   3.641  0.4825  0.0001  0.0636
12895SOL    HW139263   4.054   4.486   3.589 -0.9097  0.7676 -2.4174
12895SOL    HW239264   3.921   4.420   3.615 -1.1803  1.6146 -1.5746
12896SOL     OW39265   1.438   7.028   6.944  0.5941 -0.0791 -0.1709
12896SOL    HW139266   1.437   7.093   7.014  1.5142 -0.3724  0.1308
12896SOL    HW239267   1.528   6.996   6.942  0.1629 -1.3422 -0.3122
12897SOL     OW39268   3.618   7.332   3.010  0.0935  0.3749 -0.0698
12897SOL    HW139269   3.617   7.421   3.046 -0.1611  0.4969 -0.3747
12897SOL    HW239270   3.540   7.328   2.956  0.8568  0.4321 -1.1998
12898SOL     OW39271   3.935   4.278   0.792 -0.1531  0.5016 -0.0148
12898SOL    HW139272   3.897   4.242   0.713  0.4481 -0.2557  0.0324
12898SOL    HW239273   4.028   4.254   0.788 -0.3875 -0.8920  1.6368
12899SOL     OW39274   6.582   2.940   4.445  0.2717 -0.2258  0.0816
12899SOL    HW139275   6.672   2.916   4.465  0.8204 -0.0083 -1.8575
12899SOL    HW239276   6.590   2.999   4.369 -1.4528  0.4272  0.3680
12900SOL     OW39277   0.096   3.488   1.398  0.2839  0.0628  0.3555
12900SOL    HW139278   0.182   3.500   1.358  0.9477 -1.4911  1.2139
12900SOL    HW239279   0.049   3.569   1.379  2.1398  1.2021  0.3637
12901SOL     OW39280   8.858   7.682   7.035 -0.0782 -0.5848  1.2104
12901SOL    HW139281   8.947   7.699   7.067  0.1626 -0.9491  0.7572
12901SOL    HW239282   8.870   7.616   6.966 -0.5812  0.0972  0.4452
12902SOL     OW39283   5.528   4.349   2.756  0.6626 -0.0295  0.1127
12902SOL    HW139284   5.481   4.298   2.690  0.8345 -0.3737  0.2523
12902SOL    HW239285   5.498   4.313   2.840  1.8230 -0.8668  0.1933
12903SOL     OW39286   8.880   3.580   9.420  0.6571 -0.3525  0.2132
12903SOL    HW139287   8.854   3.672   9.415 -0.4489 -0.7134 -1.3523
12903SOL    HW239288   8.803   3.536   9.456  0.8038 -0.8001 -0.0166
12904SOL     OW39289   9.760   9.884   0.170 -0.4557  0.0165 -0.0777
12904SOL    HW139290   9.677   9.885   0.123  0.1769  0.7898 -1.2087
12904SOL    HW239291   9.765   9.796   0.208 -1.8154 -0.0100  0.0690
12905SOL     OW39292   4.083   8.894   7.655  0.0572 -0.0944  0.1260
12905SOL    HW139293   4.040   8.881   7.570 -0.8999 -0.0726  0.5923
12905SOL    HW239294   4.174   8.914   7.633  0.2757 -1.9271 -0.8316
12906SOL     OW39295   2.639   1.221   0.283 -0.3891  0.1784  0.4760
12906SOL    HW139296   2.682   1.183   0.360  1.2149  0.7051 -0.1297
12906SOL    HW239297   2.546   1.220   0.305 -0.1848 -1.8182  1.4730
12907SOL     OW39298   1.568   5.588   9.176  0.4059  0.1552 -0.0237
12907SOL    HW139299   1.514   5.654   9.133  1.0436  0.3950 -0.4667
12907SOL    HW239300   1.586   5.625   9.263  0.7239  0.5483 -0.2532
12908SOL     OW39301   8.400   0.589   1.934  0.0348  0.5292 -0.0200
12908SOL    HW139302   8.471   0.524   1.930 -0.0856  0.4569 -1.6991
12908SOL    HW239303   8.443   0.668   1.965  0.2640 -0.2265  1.6941
12909SOL     OW39304   6.171   0.040   7.800 -0.3734  0.3962 -0.2362
12909SOL    HW139305   6.261   0.070   7.812 -0.2851  0.7228 -1.6102
12909SOL    HW239306   6.158  -0.025   7.869  0.9206  0.3288 -0.0406
12910SOL     OW39307   4.228   5.371   4.182  0.4236 -0.0642  0.3021
12910SOL    HW139308   4.190   5.337   4.101 -1.1169  0.0012  0.9632
12910SOL    HW239309   4.232   5.466   4.168  0.8456 -0.1233  0.0243
12911SOL     OW39310   8.073   5.955   7.273  0.1526  0.4011  0.3885
12911SOL    HW139311   8.070   5.861   7.256 -3.6560  0.4006  0.0970
12911SOL    HW239312   8.118   5.992   7.197 -1.0212 -1.0099 -1.0737
12912SOL     OW39313   3.420   0.173   6.616 -0.7703 -0.1106  0.4726
12912SOL    HW139314   3.338   0.165   6.567 -1.1155  0.1954  0.9920
12912SOL    HW239315   3.437   0.085   6.649 -0.7768 -0.2193  0.1888
12913SOL     OW39316   6.120   3.367   3.063 -0.1256  0.4839  0.7483
12913SOL    HW139317   6.095   3.299   3.126  0.9857 -0.7021 -0.0331
12913SOL    HW239318   6.053   3.435   3.073 -0.3380  0.0438  2.7363
12914SOL     OW39319   7.288   2.560   7.137  0.3869 -0.1866  0.4314
12914SOL    HW139320   7.269   2.520   7.052 -2.1218  0.5874  0.5323
12914SOL    HW239321   7.336   2.640   7.116 -0.9474  0.4353 -0.3621
12915SOL     OW39322   6.538   0.830   1.179  0.8029  0.0496 -0.0787
12915SOL    HW139323   6.551   0.921   1.155  0.7146 -0.1898 -1.0587
12915SOL    HW239324   6.615   0.784   1.146  0.6077 -0.3123 -0.0433
12916SOL     OW39325   1.067   8.636   7.144  0.1539 -0.3859 -0.2214
12916SOL    HW139326   1.036   8.608   7.057 -0.3378  0.9618 -0.4962
12916SOL    HW239327   1.127   8.708   7.126  0.6568 -0.6082  0.5274
12917SOL     OW39328   4.683   9.109   0.285 -0.4185 -0.2401 -0.0220
12917SOL    HW139329   4.743   9.181   0.263 -3.0329  1.5561 -1.8941
12917SOL    HW239330   4.670   9.117   0.379  1.3373  0.0698  0.2259
12918SOL     OW39331   4.692   1.084   2.964  0.0629  0.2756 -0.0218
12918SOL    HW139332   4.634   1.145   3.009  0.5314 -0.5943  1.8793
12918SOL    HW239333   4.678   1.001   3.008  0.5040 -0.6714 -1.5920
12919SOL     OW39334   7.676   3.602   5.170 -0.2268 -0.3133  0.0748
12919SOL    HW139335   7.622   3.524   5.188  0.5361 -0.8682  0.0193
12919SOL    HW239336   7.613   3.672   5.154 -0.9429 -1.0863 -0.5748
12920SOL     OW39337   5.923   1.335   3.761 -0.4435  0.2161 -0.1914
12920SOL    HW139338   5.878   1.415   3.788 -0.8510 -0.6280  1.8521
12920SOL    HW239339   5.953   1.296   3.843  0.7346 -1.1653 -1.2263
12921SOL     OW39340   9.440   0.232   6.662  0.4032 -0.0167  0.1853
12921SOL    HW139341   9.365   0.287   6.639  0.1604  0.9073  2.8760
12921SOL    HW239342   9.427   0.151   6.612 -2.2619  0.1945  0.4178
12922SOL     OW39343   7.969   0.686   9.055 -0.1483 -0.4434 -0.5094
12922SOL    HW139344   7.954   0.750   8.986 -1.2713  0.0433  0.1704
12922SOL    HW239345   7.979   0.738   9.135 -1.3251 -1.0917  0.0902
12923SOL     OW39346   3.545   0.418   3.555  0.1407  0.2641  0.7791
12923SOL    HW139347   3.470   0.470   3.583  0.9485  1.8836  0.0152
12923SOL    HW239348   3.517   0.376   3.474 -0.9921 -1.7000  2.0779
12924SOL     OW39349   9.143   6.147   8.008 -0.0199 -0.3411  0.5117
12924SOL    HW139350   9.161   6.227   7.959  0.6929 -0.0121  1.2962
12924SOL    HW239351   9.061   6.115   7.970 -1.5702  1.9600  1.6661
12925SOL     OW39352   9.194   4.091   2.144  0.4632 -0.5567 -0.8071
12925SOL    HW139353   9.167   4.004   2.113 -2.1524  0.0341 -0.3941
12925SOL    HW239354   9.196   4.083   2.239  2.4069 -0.6977 -0.8171
12926SOL     OW39355   9.705   4.411   6.612  0.2489  0.2333 -0.1274
12926SOL    HW139356   9.796   4.431   6.635  0.4855 -0.6492 -0.2791
12926SOL    HW239357   9.705   4.318   6.590 -0.9568 -0.1103  1.1974
12927SOL     OW39358   3.497   2.883   0.326 -0.4802 -0.1692  0.3014
12927SOL    HW139359   3.444   2.807   0.347  1.7687 -1.3847  2.0102
12927SOL    HW239360   3.453   2.956   0.371 -1.3662 -0.8728  0.6030
12928SOL     OW39361   5.146   0.358   3.364  0.0040 -0.4831  0.8861
12928SOL    HW139362   5.068   0.323   3.406 -1.0402  2.1004  1.2863
12928SOL    HW239363   5.119   0.443   3.329  1.9531 -0.6612 -1.3560
12929SOL     OW39364   1.107   3.466   0.531  0.2026 -0.3185  0.2052
12929SOL    HW139365   1.149   3.489   0.614 -1.7216 -2.2284  1.8271
12929SOL    HW239366   1.048   3.393   0.553 -4.1579  2.2282 -1.7498
12930SOL     OW39367   7.912   5.198   8.313 -0.2302  0.7554 -0.4876
12930SOL    HW139368   7.851   5.125   8.320  2.3294 -1.6953 -1.5606
12930SOL    HW239369   7.937   5.217   8.404  0.7438 -1.3761 -0.2236
12931SOL     OW39370   1.226   7.039   7.487  0.3626  0.8644 -0.5539
12931SOL    HW139371   1.278   7.084   7.421  0.3375  1.5803 -0.0861
12931SOL    HW239372   1.283   7.033   7.563 -0.3878  2.0913  0.1277
12932SOL     OW39373   6.482   2.736   1.705 -0.1747  0.4499  0.4385
12932SOL    HW139374   6.395   2.714   1.738 -0.4759 -0.3371 -0.8171
12932SOL    HW239375   6.521   2.652   1.681  0.1638  0.9455 -0.8228
12933SOL     OW39376   1.628   3.005   3.076 -0.2002  0.5057 -0.0674
12933SOL    HW139377   1.718   3.010   3.107  0.0957  0.2066 -0.8552
12933SOL    HW239378   1.590   3.090   3.097  0.2089  0.5666  0.4329
12934SOL     OW39379   6.729   1.746   4.175 -0.1134 -0.1403  0.8785
12934SOL    HW139380   6.799   1.810   4.192  0.5090 -0.4274 -0.4495
12934SOL    HW239381   6.776   1.666   4.151 -0.8925 -1.0368  2.2150
12935SOL     OW39382   6.115   8.537   6.349 -0.4464  0.1079  0.4001
12935SOL    HW139383   6.063   8.494   6.416 -1.8123  2.2385  0.8133
12935SOL    HW239384   6.052   8.589   6.299  1.2120  3.0724  1.1374
12936SOL     OW39385   4.623   1.340   0.580  0.0932 -0.2960 -0.1436
12936SOL    HW139386   4.586   1.267   0.630  0.3335  0.2010  0.7698
12936SOL    HW239387   4.702   1.304   0.541 -0.0451 -0.6621 -0.0908
12937SOL     OW39388   5.935   5.714   7.762  0.1330  0.1798  0.0353
12937SOL    HW139389   5.950   5.739   7.671 -0.3593  0.4751  0.0343
12937SOL    HW239390   5.892   5.790   7.801 -2.2379 -0.9785 -0.1974
12938SOL     OW39391   2.952   8.349   2.871  0.6479  0.5592  0.0011
12938SOL    HW139392   3.035   8.374   2.912 -0.0593  0.3921  1.6164
12938SOL    HW239393   2.890   8.416   2.900  0.2494  0.7954 -1.3469
12939SOL     OW39394   7.058   7.668   7.352 -0.0457  0.3097  0.0982
12939SOL    HW139395   7.152   7.679   7.341  0.2654 -0.4744  1.6033
12939SOL    HW239396   7.050   7.583   7.396 -1.5436 -0.2041 -1.0782
12940SOL     OW39397   8.822   9.471   0.826  0.5745 -0.1045  0.0979
12940SOL    HW139398   8.820   9.492   0.733 -0.5931  0.2792  0.2004
12940SOL    HW239399   8.855   9.381   0.829  1.6497  0.2427 -0.6040
12941SOL     OW39400   5.056   8.377   5.193 -0.5121 -0.1948 -0.3653
12941SOL    HW139401   5.051   8.421   5.108  0.2551 -2.0420 -1.4263
12941SOL    HW239402   5.150   8.374   5.212 -0.5649 -1.2373 -0.2512
12942SOL     OW39403   5.647   4.613   0.281  0.0025 -0.1094 -0.3519
12942SOL    HW139404   5.687   4.697   0.258 -0.5816  0.2768 -0.0031
12942SOL    HW239405   5.634   4.619   0.376 -2.1461  0.3694 -0.6166
12943SOL     OW39406   4.020   4.045   3.357 -0.0638 -0.1029 -0.0230
12943SOL    HW139407   4.058   3.967   3.316  2.4547  1.9205 -1.8312
12943SOL    HW239408   3.983   4.094   3.283  1.7838  2.1635  0.4883
12944SOL     OW39409   4.923   8.346   6.970 -0.8071  0.9714 -0.7851
12944SOL    HW139410   4.964   8.280   6.914  0.5212  1.8255 -0.8681
12944SOL    HW239411   4.838   8.361   6.930 -0.4661  0.4908 -1.7254
12945SOL     OW39412   4.822   8.009   1.749 -0.3427 -0.0856 -0.2021
12945SOL    HW139413   4.882   7.966   1.809  0.9446  1.7960 -0.0769
12945SOL    HW239414   4.857   7.991   1.662 -1.2980 -1.4445 -0.3390
12946SOL     OW39415   0.024   7.206   6.908  0.4241  0.1115 -0.0084
12946SOL    HW139416   0.100   7.158   6.940  0.2264 -0.6194 -0.6246
12946SOL    HW239417  -0.051   7.158   6.942  0.1735  1.8055  2.0922
12947SOL     OW39418   0.285   3.416   9.821  0.1804 -0.0131  0.4671
12947SOL    HW139419   0.353   3.463   9.772  0.5708 -0.6347  0.4130
12947SOL    HW239420   0.277   3.332   9.777  1.1890 -0.9606  2.0217
12948SOL     OW39421   3.778   3.047   5.185 -0.5756  0.9532 -0.0736
12948SOL    HW139422   3.770   2.980   5.117  0.8842  0.3136  0.3310
12948SOL    HW239423   3.759   3.001   5.266 -1.7946  1.5900  0.0194
12949SOL     OW39424   4.304   2.857   0.319 -0.4822  0.1845 -0.2718
12949SOL    HW139425   4.304   2.777   0.371  2.2609 -1.0718 -1.9783
12949SOL    HW239426   4.213   2.868   0.291 -1.3571 -0.9638  1.9313
12950SOL     OW39427   8.408   5.775   7.213 -0.1280  0.0351  0.1760
12950SOL    HW139428   8.325   5.739   7.182 -1.4038  0.4357  2.8159
12950SOL    HW239429   8.474   5.733   7.158 -1.8416 -2.6751 -0.0404
12951SOL     OW39430   9.873   1.161   1.573 -0.1401  0.2211 -0.1231
12951SOL    HW139431   9.943   1.225   1.586 -0.0279 -0.1139  1.0249
12951SOL    HW239432   9.898   1.113   1.494 -0.5612  1.9984 -1.4207
12952SOL     OW39433   5.019   2.076   0.279  0.5555 -0.1182  0.1810
12952SOL    HW139434   4.963   2.153   0.283  2.3341  1.2615 -0.1611
12952SOL    HW239435   4.965   2.005   0.313 -2.1363  0.6216 -2.1455
12953SOL     OW39436   5.775   1.228   2.862 -0.4587  0.1730 -0.5132
12953SOL    HW139437   5.834   1.166   2.903 -0.3372  0.0684 -0.8455
12953SOL    HW239438   5.832   1.290   2.817 -0.6122 -0.5216 -1.7045
12954SOL     OW39439   3.374   0.297   1.094 -0.3649  0.0790  0.2484
12954SOL    HW139440   3.332   0.221   1.133  1.5799 -1.8630 -1.2090
12954SOL    HW239441   3.466   0.291   1.121  0.9068 -0.9033 -3.6296
12955SOL     OW39442   1.198   8.460   2.554 -0.2495  0.4802  0.8370
12955SOL    HW139443   1.212   8.538   2.501  1.4809  0.1404  0.7173
12955SOL    HW239444   1.213   8.490   2.644 -0.1063  0.3981  0.8404
12956SOL     OW39445   8.230   3.459   7.842 -0.2576 -0.0259 -0.2659
12956SOL    HW139446   8.265   3.375   7.813  2.9947  1.1876 -0.2467
12956SOL    HW239447   8.246   3.518   7.768  0.3092  1.2081  0.8028
12957SOL     OW39448   6.045   9.883   0.302  0.6807  0.3509 -0.4494
12957SOL    HW139449   6.079   9.807   0.257  2.2918  0.4198  0.5933
12957SOL    HW239450   6.086   9.958   0.258  0.7125  0.5088 -0.1568
12958SOL     OW39451   2.363   2.736   7.894  0.2278 -0.0977  0.7331
12958SOL    HW139452   2.443   2.731   7.946  0.0638  0.5116  1.0555
12958SOL    HW239453   2.330   2.647   7.891  0.5985 -0.2500  1.1124
12959SOL     OW39454   5.351   1.746   7.737 -0.6064  0.0293 -0.0873
12959SOL    HW139455   5.363   1.676   7.673  0.0899  2.1688 -2.4272
12959SOL    HW239456   5.262   1.733   7.771 -0.1892 -2.4440  0.2289
12960SOL     OW39457   5.627   8.765   4.769 -0.0349 -0.2863 -0.6463
12960SOL    HW139458   5.686   8.811   4.828  0.5426  0.6593 -1.9180
12960SOL    HW239459   5.569   8.833   4.734 -1.5471 -1.1006  0.1470
12961SOL     OW39460   8.677   0.361   6.484  0.4179 -0.3561 -0.4479
12961SOL    HW139461   8.720   0.276   6.484  1.1003 -0.0201 -0.8847
12961SOL    HW239462   8.716   0.408   6.410 -0.4821  0.0697 -0.6688
12962SOL     OW39463   8.503   6.806   6.793 -0.2730  0.4555 -0.1016
12962SOL    HW139464   8.588   6.797   6.837 -0.5768 -1.3326  0.2159
12962SOL    HW239465   8.520   6.862   6.717  0.5571  2.4930  1.4830
12963SOL     OW39466   2.408   2.416   4.178  0.8239 -0.2285  0.1141
12963SOL    HW139467   2.436   2.445   4.091  0.1634 -0.3137 -0.1369
12963SOL    HW239468   2.486   2.425   4.233  1.6077 -1.3841 -0.7647
12964SOL     OW39469   5.017   0.378   4.745  0.6777  0.2206 -0.0531
12964SOL    HW139470   4.998   0.410   4.657 -1.8094  0.1141  0.3791
12964SOL    HW239471   5.060   0.452   4.788  0.1537  0.9702 -0.7778
12965SOL     OW39472   6.113   1.480   2.941  0.5691  0.0191 -0.5213
12965SOL    HW139473   6.065   1.561   2.959 -0.5567 -0.1688 -2.4044
12965SOL    HW239474   6.097   1.425   3.018  1.6317  1.6532  0.9430
12966SOL     OW39475   0.356   3.424   8.892  0.1239  0.0760 -0.0045
12966SOL    HW139476   0.312   3.502   8.926 -0.5506 -0.7442  1.0698
12966SOL    HW239477   0.308   3.403   8.812 -0.5122  0.0512  0.3709
12967SOL     OW39478   0.628   3.076   7.115  0.1415  0.0614  0.2237
12967SOL    HW139479   0.562   3.079   7.046 -0.5342  0.4151  0.8713
12967SOL    HW239480   0.595   3.134   7.183  0.7717 -0.3107  0.8676
12968SOL     OW39481   4.435   4.854   0.779 -0.4605 -0.3117 -0.1483
12968SOL    HW139482   4.352   4.897   0.758  0.2718  1.2416 -0.0309
12968SOL    HW239483   4.470   4.827   0.694  0.5861  2.3284 -0.6708
12969SOL     OW39484   0.946   0.253   0.287 -0.2766  0.2720 -0.0634
12969SOL    HW139485   0.855   0.228   0.301 -0.3201  0.5483  0.1628
12969SOL    HW239486   0.950   0.345   0.314  0.4573 -0.2240  1.6612
12970SOL     OW39487   4.893   0.863   3.546 -0.5100 -0.3463  0.4413
12970SOL    HW139488   4.881   0.958   3.539 -0.6578 -0.2866  1.4853
12970SOL    HW239489   4.986   0.852   3.562 -0.5844 -0.3524  0.8608
12971SOL     OW39490   7.850   5.462   1.041  0.0585 -0.2364 -0.3211
12971SOL    HW139491   7.808   5.409   0.974 -1.0339 -1.0745  0.9799
12971SOL    HW239492   7.792   5.536   1.053 -0.1807 -0.5134  0.2680
12972SOL     OW39493   3.525   0.543   2.679 -0.2047  0.3410  0.1826
12972SOL    HW139494   3.542   0.574   2.767  0.7595 -0.7497  0.4085
12972SOL    HW239495   3.432   0.521   2.678 -0.7034  2.2932  0.2743
12973SOL     OW39496   8.939   6.752   7.577 -0.1017 -0.4214  0.2762
12973SOL    HW139497   9.030   6.768   7.598 -0.0252 -0.0761 -0.2974
12973SOL    HW239498   8.933   6.767   7.482 -0.8092 -0.1458  0.3554
12974SOL     OW39499   9.564   0.988   6.228  0.3049 -0.3805 -0.5210
12974SOL    HW139500   9.470   0.996   6.214  0.2541 -1.8545 -1.1959
12974SOL    HW239501   9.598   1.077   6.216 -1.1950  0.5399  1.5356
12975SOL     OW39502   7.697   2.746   6.741  0.1036  0.5692 -0.4556
12975SOL    HW139503   7.727   2.659   6.764 -0.2203  0.8661  1.1953
12975SOL    HW239504   7.602   2.742   6.747  0.0848  1.0368 -0.3589
12976SOL     OW39505   4.080   5.702   7.534 -0.0237 -0.0290 -0.5989
12976SOL    HW139506   4.021   5.775   7.517 -0.1617  0.0477  0.1536
12976SOL    HW239507   4.101   5.710   7.627 -0.0915 -0.9856 -0.4948
12977SOL     OW39508   1.018   6.818   3.294 -0.1851 -0.2459 -0.0487
12977SOL    HW139509   0.997   6.902   3.335 -1.7775 -0.9775  0.7130
12977SOL    HW239510   1.066   6.842   3.215  1.0211  1.2987  1.0694
12978SOL     OW39511   0.671   6.360   9.476  0.4080 -0.3378 -0.3387
12978SOL    HW139512   0.744   6.312   9.514  0.2564 -0.9439 -0.7868
12978SOL    HW239513   0.609   6.371   9.548  1.3480  1.0463  0.2934
12979SOL     OW39514   1.199   7.776   6.920 -0.0877 -0.2123 -0.1494
12979SOL    HW139515   1.252   7.697   6.911 -0.3182 -0.4696  0.6813
12979SOL    HW239516   1.134   7.754   6.986  0.5886  1.0455  1.0086
12980SOL     OW39517   9.762   3.614   6.283  0.5820 -0.5072  0.0009
12980SOL    HW139518   9.677   3.606   6.241 -0.3958 -0.8501  1.9458
12980SOL    HW239519   9.782   3.526   6.315  0.5690  0.0340  1.5595
12981SOL     OW39520   3.174   4.138   6.236  0.0056  0.7262 -0.5105
12981SOL    HW139521   3.084   4.140   6.268  0.4608 -1.3943  1.1281
12981SOL    HW239522   3.223   4.194   6.297  0.3073 -0.7527  0.6782
12982SOL     OW39523   1.346   9.669   5.059  0.0617  0.0129 -0.4051
12982SOL    HW139524   1.398   9.665   5.139 -0.3918 -0.9297 -0.1377
12982SOL    HW239525   1.256   9.652   5.088  0.0159 -1.2913 -1.2172
12983SOL     OW39526   2.921   7.911   4.159 -0.2177  0.0578  0.1577
12983SOL    HW139527   2.938   7.818   4.140  0.6806  0.0934  0.7395
12983SOL    HW239528   2.835   7.911   4.199  1.2650 -1.0643  3.7416
12984SOL     OW39529   3.025   7.499   2.412 -0.2236  0.4236  0.2366
12984SOL    HW139530   2.956   7.519   2.476  0.4864  2.2901  0.4708
12984SOL    HW239531   2.978   7.491   2.329 -0.7756  1.3590  0.4449
12985SOL     OW39532   6.288   9.956   3.099  0.4660 -0.1712  0.7615
12985SOL    HW139533   6.198   9.979   3.075 -0.0846 -1.2769  1.6876
12985SOL    HW239534   6.284   9.935   3.192  1.6696 -0.3297  0.7914
12986SOL     OW39535   9.063   3.348   5.339 -0.0881  0.0940  0.2982
12986SOL    HW139536   9.149   3.318   5.311 -0.6061 -1.2114  0.0296
12986SOL    HW239537   9.008   3.341   5.261 -0.2783  1.6311  0.2708
12987SOL     OW39538   5.546   3.532   1.381 -0.0668 -0.3181 -0.3263
12987SOL    HW139539   5.534   3.464   1.314  1.0988 -1.3026  0.4154
12987SOL    HW239540   5.461   3.575   1.387 -0.6615 -1.3036 -1.2663
12988SOL     OW39541   7.143   7.433   7.456  0.7006 -0.2229  0.3802
12988SOL    HW139542   7.213   7.400   7.513  0.2076 -1.9170  0.0430
12988SOL    HW239543   7.157   7.390   7.372 -1.0310 -0.9982  0.4485
12989SOL     OW39544   8.887   3.892   9.907 -0.8255 -0.4981  0.1607
12989SOL    HW139545   8.824   3.905   9.977  0.0184  0.3976  0.7687
12989SOL    HW239546   8.957   3.955   9.924 -0.8325  0.1196 -1.7747
12990SOL     OW39547   8.417   0.578   3.925  0.2704 -0.0479  0.1464
12990SOL    HW139548   8.492   0.579   3.984  0.9022 -0.8201 -0.6053
12990SOL    HW239549   8.344   0.548   3.979  0.3306  1.3528  1.0528
12991SOL     OW39550   1.456   0.635   0.403 -0.4328 -0.2968 -0.0699
12991SOL    HW139551   1.439   0.618   0.310 -1.4406  0.7457 -0.1032
12991SOL    HW239552   1.528   0.699   0.402 -0.0813 -0.6916 -0.1127
12992SOL     OW39553   0.727   0.369   3.441  0.1414 -0.2752  0.2431
12992SOL    HW139554   0.649   0.363   3.386 -0.3122  0.5972  0.7650
12992SOL    HW239555   0.799   0.348   3.383 -0.4624 -0.9188 -0.2953
12993SOL     OW39556   3.672   6.182   4.184  0.4330 -0.5089 -0.2669
12993SOL    HW139557   3.674   6.210   4.276 -0.6176  0.8972 -0.6308
12993SOL    HW239558   3.670   6.264   4.134 -0.4399 -1.2279 -1.4864
12994SOL     OW39559   0.506   6.506   6.426  0.1104 -0.0073  0.0255
12994SOL    HW139560   0.440   6.506   6.496  0.3619  1.2244  0.2919
12994SOL    HW239561   0.589   6.520   6.471  0.3824 -0.0828 -0.4451
12995SOL     OW39562   6.982   3.161   7.573  0.6944 -0.4587 -0.3143
12995SOL    HW139563   6.951   3.155   7.664 -1.2522  0.0444 -0.8885
12995SOL    HW239564   6.904   3.186   7.523  1.8762 -0.0363 -2.0391
12996SOL     OW39565   3.503   9.943   2.531  0.0152 -0.4267 -0.3208
12996SOL    HW139566   3.450   9.987   2.598  0.0109 -0.9547  0.0266
12996SOL    HW239567   3.498  10.001   2.455  0.0123  0.1753  0.1291
12997SOL     OW39568   4.467   0.819   4.977 -0.2499 -0.2074 -0.5603
12997SOL    HW139569   4.392   0.878   4.978 -0.2863 -0.2177 -1.4745
12997SOL    HW239570   4.494   0.812   5.069  0.6320  2.3137 -0.5566
12998SOL     OW39571   0.162   1.654   9.028 -0.0900 -0.5265  0.0534
12998SOL    HW139572   0.072   1.687   9.035  0.4755  1.2931 -0.6892
12998SOL    HW239573   0.177   1.646   8.934  0.6810 -0.3394  0.1556
12999SOL     OW39574   1.845   3.801   5.933 -0.0422 -0.2045  0.2385
12999SOL    HW139575   1.839   3.892   5.962 -1.1856  0.0479 -0.6979
12999SOL    HW239576   1.869   3.806   5.840 -1.8883 -0.7379 -0.3325
13000SOL     OW39577   4.446   4.776   9.854 -0.7470  0.0670  0.3485
13000SOL    HW139578   4.418   4.788   9.944  1.1694 -0.2582  1.0447
13000SOL    HW239579   4.484   4.688   9.852  1.6140  1.0114 -0.0480
13001SOL     OW39580   4.919   2.941   7.558  0.0145  0.5288  0.1108
13001SOL    HW139581   5.008   2.910   7.541 -1.4901 -3.0734 -2.4005
13001SOL    HW239582   4.892   2.982   7.476 -0.6807  1.6304  0.8639
13002SOL     OW39583   4.618   5.969   3.590  0.2278 -0.6187 -0.4164
13002SOL    HW139584   4.613   5.955   3.495 -1.7228  1.7040 -0.7498
13002SOL    HW239585   4.677   6.044   3.600 -0.1387 -0.3961  0.1326
13003SOL     OW39586   3.732   6.577   0.691  0.0944 -0.0828 -0.2512
13003SOL    HW139587   3.784   6.504   0.659 -1.0349 -1.2336  0.4387
13003SOL    HW239588   3.781   6.610   0.767 -0.4515 -1.5307  0.7518
13004SOL     OW39589   8.447   4.179   4.113 -0.7178 -0.4504 -0.4305
13004SOL    HW139590   8.452   4.142   4.024 -1.7210 -1.2484 -0.1709
13004SOL    HW239591   8.355   4.173   4.136 -0.5998  0.5500  0.3513
13005SOL     OW39592   0.390   5.764   5.230 -0.1604  0.1406 -0.1189
13005SOL    HW139593   0.405   5.749   5.323 -0.3053  0.8546  0.0286
13005SOL    HW239594   0.309   5.815   5.227 -0.8667 -0.9684 -0.7217
13006SOL     OW39595   2.143   8.953   2.509  0.5932  0.7520 -0.0170
13006SOL    HW139596   2.178   8.998   2.432  0.2190  0.4617 -0.3587
13006SOL    HW239597   2.177   8.864   2.502  0.6870  0.7667  0.2400
13007SOL     OW39598   5.846   1.793   8.907  0.2814 -0.0423 -0.0215
13007SOL    HW139599   5.805   1.797   8.821  1.7960 -1.9991 -0.9290
13007SOL    HW239600   5.836   1.702   8.935 -1.9997  0.9462  2.9207
13008SOL     OW39601   2.166   9.873   1.326  0.6147  0.1003 -0.4188
13008SOL    HW139602   2.140   9.955   1.369  0.8993 -0.3493  0.6390
13008SOL    HW239603   2.258   9.885   1.305 -0.2838  1.6928 -4.1627
13009SOL     OW39604   9.629   1.248   6.146  0.3782 -0.2173  0.2089
13009SOL    HW139605   9.718   1.234   6.116  0.4318  1.5467 -0.5680
13009SOL    HW239606   9.626   1.340   6.171 -1.4373 -0.0198 -0.5559
13010SOL     OW39607   7.444   2.277   6.980 -0.4551  0.1025  0.3089
13010SOL    HW139608   7.475   2.206   7.036 -1.9003  0.3920  1.5523
13010SOL    HW239609   7.351   2.258   6.966 -0.8324  1.6502  0.5325
13011SOL     OW39610   6.113   1.978   4.251 -1.0029 -0.2215 -0.3354
13011SOL    HW139611   6.171   1.919   4.203 -0.7934  0.8542 -1.4495
13011SOL    HW239612   6.148   2.065   4.234 -1.4144  0.2604  1.1392
13012SOL     OW39613   6.003   2.882   5.629  0.0546  0.4495 -0.0532
13012SOL    HW139614   6.024   2.973   5.609 -0.0145  0.4234 -0.2480
13012SOL    HW239615   6.058   2.860   5.705  1.4801  0.0737 -1.1545
13013SOL     OW39616   0.770   3.341   1.832 -0.2321  0.0540 -0.2971
13013SOL    HW139617   0.714   3.331   1.909 -0.1747 -3.1821 -0.5571
13013SOL    HW239618   0.744   3.269   1.774  1.6497  0.7239 -2.0624
13014SOL     OW39619   9.450   3.673   2.752 -0.2130 -0.4567 -0.3686
13014SOL    HW139620   9.426   3.596   2.802  0.5717  0.2281  1.1454
13014SOL    HW239621   9.542   3.660   2.729 -0.1963 -0.1686 -0.4802
13015SOL     OW39622   8.015   1.981   5.504  0.3633  0.0985 -0.0853
13015SOL    HW139623   8.089   1.996   5.446  0.4481 -1.2498 -0.3577
13015SOL    HW239624   8.041   1.906   5.558 -0.1322  0.6688  0.9852
13016SOL     OW39625   1.089   6.828   3.941  0.5049 -0.1584  0.4429
13016SOL    HW139626   1.105   6.736   3.921  0.7163  0.0836 -0.5718
13016SOL    HW239627   1.017   6.827   4.004 -1.1708 -0.9269 -1.4066
13017SOL     OW39628   1.265   4.754   4.627  0.2459 -0.0310  0.8011
13017SOL    HW139629   1.202   4.684   4.637  0.7984 -0.5918  0.4343
13017SOL    HW239630   1.302   4.741   4.539 -1.0864  1.9148 -0.1264
13018SOL     OW39631   4.463   9.547   7.885 -0.2568  0.5170  0.1634
13018SOL    HW139632   4.526   9.579   7.820 -1.1033  0.4445 -0.7128
13018SOL    HW239633   4.515   9.490   7.941  0.5835  0.9032 -0.1964
13019SOL     OW39634   6.855   7.641   6.362  0.2258  0.1407 -0.9363
13019SOL    HW139635   6.910   7.715   6.335  0.3062  0.3997 -0.1006
13019SOL    HW239636   6.906   7.596   6.429 -0.5225  0.3178 -0.2282
13020SOL     OW39637   7.079   7.926   7.177 -0.1033  0.3090 -0.1118
13020SOL    HW139638   7.012   7.986   7.143 -1.5417 -1.4446 -0.5396
13020SOL    HW239639   7.147   7.924   7.109  0.8950  2.7682  0.7039
13021SOL     OW39640   6.924   4.833   3.061  0.8469 -0.6228 -0.3824
13021SOL    HW139641   6.874   4.768   3.011  1.6859 -0.5048 -1.4006
13021SOL    HW239642   6.916   4.913   3.009 -1.8133  0.7082  1.8109
13022SOL     OW39643   9.803   1.654   6.877 -0.0822 -0.3772  0.1406
13022SOL    HW139644   9.865   1.722   6.904  1.3831 -1.2696 -0.8318
13022SOL    HW239645   9.725   1.670   6.931  1.7529 -0.5360  3.0542
13023SOL     OW39646   4.467   3.899   4.255 -0.4551  0.3794  0.3052
13023SOL    HW139647   4.431   3.968   4.310  1.1561  0.8078  0.8590
13023SOL    HW239648   4.451   3.929   4.165  0.8117  1.8136  0.5319
13024SOL     OW39649   2.661   6.597   2.287 -0.0490  0.4553 -0.0196
13024SOL    HW139650   2.752   6.614   2.263  0.2270 -3.1105 -2.3322
13024SOL    HW239651   2.666   6.551   2.371  0.4205 -0.5639 -0.5877
13025SOL     OW39652   3.795   9.168   8.174 -0.2156  0.7285  0.1792
13025SOL    HW139653   3.802   9.178   8.269  0.9488 -1.8491  0.4552
13025SOL    HW239654   3.870   9.216   8.139  1.7910 -1.6271  0.9469
13026SOL     OW39655   4.850   3.653   9.644  0.2649 -0.5546 -0.2089
13026SOL    HW139656   4.849   3.737   9.599 -1.8277  0.5242  1.6812
13026SOL    HW239657   4.941   3.624   9.639  0.6744  0.8889 -2.4932
13027SOL     OW39658   3.509   8.063   0.480 -0.2606 -0.3182 -0.0267
13027SOL    HW139659   3.534   8.150   0.447  0.0479 -0.7212 -0.8933
13027SOL    HW239660   3.505   8.008   0.402 -0.8428 -0.9980  0.4694
13028SOL     OW39661   1.292   1.154   1.876  0.3582 -0.3798 -0.2095
13028SOL    HW139662   1.212   1.207   1.864 -0.3319 -1.2504  0.4325
13028SOL    HW239663   1.322   1.137   1.786 -0.4203 -0.3967 -0.4796
13029SOL     OW39664   9.575   7.735   2.875  0.0021  0.1278 -0.0959
13029SOL    HW139665   9.623   7.657   2.846 -0.0305 -0.1577  0.6026
13029SOL    HW239666   9.642   7.791   2.913  0.1861  0.8939 -1.4887
13030SOL     OW39667   1.604   1.947   7.261 -0.4111  0.2062  0.2214
13030SOL    HW139668   1.552   1.977   7.336 -0.9274  0.3292 -0.1783
13030SOL    HW239669   1.550   1.968   7.184  1.1020  2.2327 -0.3633
13031SOL     OW39670   8.099   3.375   9.479 -0.0381  0.4805 -0.3152
13031SOL    HW139671   8.170   3.364   9.542 -0.1333  0.0670 -0.2796
13031SOL    HW239672   8.022   3.341   9.523 -0.1514  0.4093 -0.5639
13032SOL     OW39673   9.301   0.327   0.612 -0.3666 -0.4646  0.3937
13032SOL    HW139674   9.326   0.345   0.702 -2.6212  0.3278  0.9135
13032SOL    HW239675   9.240   0.253   0.618 -2.2260  0.9623 -0.1959
13033SOL     OW39676   7.540   9.303   8.086  0.3872  0.1343  0.4030
13033SOL    HW139677   7.488   9.243   8.140  0.2080 -1.0230 -0.9987
13033SOL    HW239678   7.552   9.380   8.141  0.2627 -1.0103  2.1118
13034SOL     OW39679   1.193   8.492   5.712  0.6199  0.3152 -0.0533
13034SOL    HW139680   1.284   8.510   5.688  1.0278 -1.4880 -0.0110
13034SOL    HW239681   1.146   8.492   5.629  1.2657 -1.7766 -0.4821
13035SOL     OW39682   1.669   7.890   5.131  0.2848 -0.5523 -0.4274
13035SOL    HW139683   1.699   7.965   5.182  1.1614  0.6886 -2.6052
13035SOL    HW239684   1.699   7.813   5.179  2.4971  0.5802  0.1197
13036SOL     OW39685   2.178   1.129   7.493 -0.4036  0.6596  0.1550
13036SOL    HW139686   2.249   1.080   7.535  0.4420  0.0197 -1.9009
13036SOL    HW239687   2.106   1.124   7.555  0.1648 -1.8556  0.7436
13037SOL     OW39688   3.817   2.939   4.172  0.5311 -0.3928  0.9685
13037SOL    HW139689   3.910   2.939   4.192  0.7297  0.3826  0.1549
13037SOL    HW239690   3.792   3.032   4.175 -0.3756 -0.6571  1.8801
13038SOL     OW39691   3.444   1.609   9.461  0.3683 -0.0477  0.3079
13038SOL    HW139692   3.400   1.571   9.538  0.8954  0.8887  1.0978
13038SOL    HW239693   3.537   1.590   9.476  0.3107 -1.6579 -1.1448
13039SOL     OW39694   0.208   6.341   0.616 -0.2058 -0.0611  0.3684
13039SOL    HW139695   0.128   6.372   0.575 -2.3035 -3.9521  1.0584
13039SOL    HW239696   0.274   6.346   0.546 -1.0194  2.8176 -0.3412
13040SOL     OW39697   5.885   7.851   4.350 -0.0472 -0.2733 -0.1738
13040SOL    HW139698   5.811   7.896   4.310 -1.0740 -1.9112 -0.2124
13040SOL    HW239699   5.898   7.895   4.434 -0.2837  0.7677 -0.6619
13041SOL     OW39700   1.121   4.077   7.572  0.5451 -0.4491 -0.0112
13041SOL    HW139701   1.180   4.083   7.497  2.2514 -1.2679  1.2018
13041SOL    HW239702   1.081   4.164   7.578  0.6238 -0.2736 -1.6479
13042SOL     OW39703   7.321   5.848   7.775  0.2538  0.4246  0.0406
13042SOL    HW139704   7.364   5.925   7.811 -0.6861  0.9618  0.0345
13042SOL    HW239705   7.298   5.794   7.851 -1.8585  1.6237  0.3253
13043SOL     OW39706   5.823   4.792   6.554  0.0253 -0.4491  0.0139
13043SOL    HW139707   5.880   4.715   6.556  0.0767 -0.4127 -0.0309
13043SOL    HW239708   5.809   4.808   6.460  0.7050  0.1040  0.0034
13044SOL     OW39709   6.654   1.644   6.827  0.3399 -0.7269  0.2897
13044SOL    HW139710   6.575   1.595   6.802  0.3359 -0.6588  0.1702
13044SOL    HW239711   6.675   1.611   6.915  0.6751 -1.3626 -0.0234
13045SOL     OW39712   5.412   9.945   8.895 -0.4057  0.3893  0.3013
13045SOL    HW139713   5.468  10.017   8.925 -0.6355  0.1807  1.2677
13045SOL    HW239714   5.331   9.954   8.946 -1.5768  1.1200 -1.5866
13046SOL     OW39715   1.238   6.903   6.817 -0.0460  0.1159 -0.2179
13046SOL    HW139716   1.211   6.856   6.896 -1.9361  0.7673 -0.4146
13046SOL    HW239717   1.318   6.948   6.842  0.3669 -1.0967  0.7680
13047SOL     OW39718   5.216   5.311   4.259 -0.0932  0.3838  0.1956
13047SOL    HW139719   5.171   5.290   4.177  0.7820 -0.6635 -0.0387
13047SOL    HW239720   5.146   5.318   4.324 -0.7271  0.4579 -0.4819
13048SOL     OW39721   7.780   2.282   3.651 -0.2601  0.2668 -0.3322
13048SOL    HW139722   7.738   2.345   3.593 -0.3652 -0.5242 -1.1457
13048SOL    HW239723   7.867   2.319   3.669 -0.5924  0.9876 -0.1919
13049SOL     OW39724   5.836   2.464   0.794  0.0473 -0.2583 -0.3648
13049SOL    HW139725   5.845   2.383   0.845 -0.2396 -0.7886 -1.1422
13049SOL    HW239726   5.917   2.512   0.811  0.7371 -1.2367 -0.7996
13050SOL     OW39727   6.136   0.692   5.569 -0.5701  0.0516  0.4928
13050SOL    HW139728   6.123   0.646   5.486  2.3194  0.0995 -0.0964
13050SOL    HW239729   6.228   0.678   5.590 -0.7219  1.7432  2.6795
13051SOL     OW39730   9.903   1.120   6.731 -0.2002 -0.3340  0.9305
13051SOL    HW139731   9.991   1.111   6.769 -0.4276 -1.3003  1.2560
13051SOL    HW239732   9.843   1.099   6.802 -0.6865 -0.2940  0.5399
13052SOL     OW39733   3.390   6.063   5.710  0.2484 -0.6221 -0.2103
13052SOL    HW139734   3.462   6.126   5.714 -0.8673  0.6994 -0.1800
13052SOL    HW239735   3.344   6.083   5.628 -1.1714 -0.1853  0.6590
13053SOL     OW39736   1.427   8.694   0.960 -0.1398 -0.2125 -0.0758
13053SOL    HW139737   1.444   8.602   0.977 -1.5268 -0.3722  0.6472
13053SOL    HW239738   1.337   8.696   0.926  0.1578  0.7936 -0.8557
13054SOL     OW39739   3.326   4.357   1.717 -0.1466  0.4430 -0.6410
13054SOL    HW139740   3.287   4.444   1.711  1.6612  1.2729 -0.8626
13054SOL    HW239741   3.317   4.320   1.630  1.4242  1.4857 -1.2819
13055SOL     OW39742   9.018   5.000   1.083 -0.0732 -0.3434  0.5029
13055SOL    HW139743   9.072   5.055   1.140 -1.4249 -0.3380  1.8659
13055SOL    HW239744   9.039   5.029   0.995 -0.0338  1.7271  1.1265
13056SOL     OW39745   8.098   2.792   1.328  0.2539 -0.1111 -0.5195
13056SOL    HW139746   8.082   2.870   1.381 -0.2495 -0.7724  0.3096
13056SOL    HW239747   8.043   2.724   1.367  0.4059 -0.7885 -1.4629
13057SOL     OW39748   2.152   2.082   9.918  0.4484 -0.1641  0.5038
13057SOL    HW139749   2.195   2.136   9.852 -1.8860  0.5088 -0.5887
13057SOL    HW239750   2.122   2.145   9.984 -0.2723 -0.3871  0.3990
13058SOL     OW39751   2.819   6.205   4.769  0.3895 -0.8520 -0.2077
13058SOL    HW139752   2.833   6.255   4.849  0.6579  1.6750 -1.7268
13058SOL    HW239753   2.885   6.136   4.771  1.1648 -0.0892  1.1578
13059SOL     OW39754   3.822   8.116   9.955  0.0954 -0.1647 -0.0018
13059SOL    HW139755   3.799   8.027   9.983 -0.2580 -0.3046 -0.7046
13059SOL    HW239756   3.739   8.153   9.925  0.4094  0.0794 -0.5721
13060SOL     OW39757   6.026   4.906   3.730 -0.0446 -0.1165  0.2897
13060SOL    HW139758   6.106   4.875   3.772  1.4927  2.2888 -0.6900
13060SOL    HW239759   5.976   4.947   3.800  0.3800 -0.1419  0.6088
13061SOL     OW39760   6.020   7.241   0.614 -0.1123 -0.2204 -0.2201
13061SOL    HW139761   5.986   7.161   0.575 -0.1829 -0.4239  0.2436
13061SOL    HW239762   6.038   7.217   0.705 -1.5775  0.7045  0.3418
13062SOL     OW39763   5.066   4.439   7.364 -0.0617 -0.2036 -0.1155
13062SOL    HW139764   5.012   4.468   7.438 -0.3578 -1.6541  0.2708
13062SOL    HW239765   5.156   4.458   7.391 -0.1734 -0.6608  0.5921
13063SOL     OW39766   8.623   3.636   2.625  0.3703  0.0397 -0.3554
13063SOL    HW139767   8.713   3.603   2.627  1.2757  1.9648 -2.6224
13063SOL    HW239768   8.634   3.731   2.613 -2.0098  0.5592  1.0090
13064SOL     OW39769   5.518   1.945   2.003 -0.1986  0.0274 -0.0716
13064SOL    HW139770   5.491   1.992   1.924  1.1712 -0.3040 -0.7543
13064SOL    HW239771   5.561   2.012   2.056  0.7701 -0.2066 -0.5545
13065SOL     OW39772   3.792   3.293   4.942 -0.5384 -0.1388 -0.1538
13065SOL    HW139773   3.731   3.363   4.968  0.8882  0.6468  1.3101
13065SOL    HW239774   3.828   3.323   4.859 -0.7564  0.3292 -0.0853
13066SOL     OW39775   0.885   0.514   3.967  0.2203  0.2628 -0.0747
13066SOL    HW139776   0.810   0.561   4.004  1.3248  1.3183  0.9144
13066SOL    HW239777   0.849   0.428   3.944 -1.6646  1.2725 -1.1889
13067SOL     OW39778   3.284   3.317   3.490 -0.2033 -0.6678 -0.2659
13067SOL    HW139779   3.217   3.256   3.460 -0.7091 -0.4899  0.4720
13067SOL    HW239780   3.237   3.400   3.503  0.4118 -0.2050 -0.9490
13068SOL     OW39781   6.094   6.629   0.717  0.2360  0.0717  0.2946
13068SOL    HW139782   6.170   6.616   0.661  0.6771 -0.4675  0.9925
13068SOL    HW239783   6.033   6.680   0.665  1.2497  0.8587 -0.1298
13069SOL     OW39784   6.771   0.813   0.034 -0.1407 -0.3170 -0.3908
13069SOL    HW139785   6.677   0.803   0.018  0.0364  0.4568 -2.2118
13069SOL    HW239786   6.776   0.868   0.112 -1.2597  0.8481 -1.0849
13070SOL     OW39787   7.544   6.713   8.001  0.0878  0.0692 -0.2439
13070SOL    HW139788   7.626   6.696   8.048  1.2953  2.2077 -1.4182
13070SOL    HW239789   7.482   6.739   8.069  0.4544 -1.2249  0.6190
13071SOL     OW39790   4.721   4.486   5.397 -0.8515  0.2957 -0.1344
13071SOL    HW139791   4.756   4.398   5.383 -2.0404 -0.0906 -0.8926
13071SOL    HW239792   4.757   4.513   5.481  2.5793  0.6447 -1.5730
13072SOL     OW39793   6.097   6.756   4.093  0.1643 -0.5905 -0.3358
13072SOL    HW139794   6.081   6.824   4.159 -0.0469 -0.7136 -0.2580
13072SOL    HW239795   6.192   6.744   4.094  0.3659  0.7139 -1.3734
13073SOL     OW39796   7.483   9.301   5.328 -0.3481 -0.4152  0.2347
13073SOL    HW139797   7.415   9.239   5.300 -0.9600  0.0153  0.7555
13073SOL    HW239798   7.525   9.259   5.403 -0.3608 -0.4638  0.2148
13074SOL     OW39799   1.626   5.832   9.630  0.2188  0.5578  0.5015
13074SOL    HW139800   1.639   5.925   9.646 -0.4159  0.5132  1.2746
13074SOL    HW239801   1.605   5.795   9.715  1.1613 -0.4206  0.3268
13075SOL     OW39802   3.190   7.178   9.316 -0.1612 -0.5838  0.5885
13075SOL    HW139803   3.131   7.250   9.295 -0.5219 -1.5180 -1.9943
13075SOL    HW239804   3.278   7.217   9.316 -0.4262  0.0153  0.2079
13076SOL     OW39805   2.269   9.163   4.440  0.0961  0.1803  0.3216
13076SOL    HW139806   2.213   9.227   4.486  0.7909  0.6303  0.5553
13076SOL    HW239807   2.264   9.188   4.348 -1.7023 -1.0265  0.0414
13077SOL     OW39808   1.077   1.756   7.366  0.5183 -0.7866 -0.5636
13077SOL    HW139809   1.103   1.849   7.362  1.4719 -1.0083  0.0751
13077SOL    HW239810   1.112   1.726   7.450 -1.0106 -1.3723 -0.1083
13078SOL     OW39811   9.835   2.252   8.831 -0.3253 -0.5023  0.2914
13078SOL    HW139812   9.883   2.286   8.756 -0.1078  0.0910  0.6904
13078SOL    HW239813   9.867   2.304   8.905 -3.3490  1.7354  0.2397
13079SOL     OW39814   8.792   2.465   0.340 -0.5684  0.0361 -0.0299
13079SOL    HW139815   8.779   2.529   0.410  0.7544  2.4744 -1.8666
13079SOL    HW239816   8.868   2.414   0.368 -1.9783 -1.2579  1.7247
13080SOL     OW39817   8.930   3.571   2.621  0.1258 -0.1812 -0.1266
13080SOL    HW139818   9.005   3.625   2.598 -0.1683 -0.3964 -1.6650
13080SOL    HW239819   8.966   3.503   2.678  0.7467  0.7939  0.6845
13081SOL     OW39820   1.333   6.423   3.294 -0.1340  0.6911  0.8008
13081SOL    HW139821   1.326   6.372   3.214  2.6567  1.9496 -0.3771
13081SOL    HW239822   1.303   6.510   3.270  1.5320  1.3040  0.8076
13082SOL     OW39823   6.590   5.260   0.968 -0.0236 -0.3219 -0.3767
13082SOL    HW139824   6.588   5.212   0.886 -0.3806 -0.9173 -0.0232
13082SOL    HW239825   6.574   5.194   1.035 -2.3722  0.5254 -0.0112
13083SOL     OW39826   6.464   7.911   5.287  0.2458  0.2460  0.1470
13083SOL    HW139827   6.520   7.965   5.342 -0.1377 -0.2624  1.0668
13083SOL    HW239828   6.400   7.973   5.250 -1.0807  0.2928  2.3117
13084SOL     OW39829   2.803   5.061   0.715  0.3562 -0.0352 -0.2803
13084SOL    HW139830   2.827   5.153   0.700 -1.9757  1.0962  2.2118
13084SOL    HW239831   2.708   5.061   0.715  0.3007 -2.6423 -0.9093
13085SOL     OW39832   2.613   7.241   4.154 -0.2080  0.1638  0.3748
13085SOL    HW139833   2.553   7.215   4.225 -1.0114 -0.1237 -0.3940
13085SOL    HW239834   2.667   7.164   4.139 -0.4565  0.0089  0.2589
13086SOL     OW39835   3.215   7.750   6.215  0.2977  0.3221 -0.3916
13086SOL    HW139836   3.215   7.695   6.137 -0.3502  0.1621 -0.2871
13086SOL    HW239837   3.122   7.758   6.238  0.4571  0.6919  0.1314
13087SOL     OW39838   3.109   1.327   8.613  0.6595  1.1062 -0.0101
13087SOL    HW139839   3.047   1.315   8.541  1.2299 -1.1004 -0.2065
13087SOL    HW239840   3.056   1.319   8.692  0.7976 -2.2159 -0.1472
13088SOL     OW39841   5.720   8.943   6.859 -0.4324  0.4715 -0.5802
13088SOL    HW139842   5.781   8.927   6.931  0.3608  0.0311 -1.3394
13088SOL    HW239843   5.746   8.881   6.791  0.2280  2.3198 -2.0888
13089SOL     OW39844   1.022   6.931   1.082  0.5371 -1.1689 -0.5723
13089SOL    HW139845   1.002   6.996   1.015  0.2553 -0.3469  0.2937
13089SOL    HW239846   1.111   6.903   1.063  1.3633  0.8424  0.1318
13090SOL     OW39847   2.066   5.423   6.419  0.3021 -0.0847 -0.7226
13090SOL    HW139848   2.122   5.380   6.354 -1.5669 -1.5501 -1.4678
13090SOL    HW239849   1.990   5.365   6.427 -0.1557  0.7397  1.8190
13091SOL     OW39850   7.549   5.926   1.635  0.1562 -0.5734 -0.3592
13091SOL    HW139851   7.578   5.836   1.646 -2.7227 -1.5003  0.6417
13091SOL    HW239852   7.556   5.965   1.722  1.2942  0.1734 -0.7661
13092SOL     OW39853   9.455   4.690   7.334 -0.1160 -0.2040  0.3790
13092SOL    HW139854   9.454   4.732   7.420  0.6133 -1.4882  1.0426
13092SOL    HW239855   9.527   4.733   7.288  1.9224 -1.9909  1.7536
13093SOL     OW39856   0.950   6.717   6.983 -0.4018 -0.0539  0.1879
13093SOL    HW139857   1.045   6.732   6.979 -0.5456  1.0097  0.2920
13093SOL    HW239858   0.931   6.662   6.907  0.4131 -0.9931  0.6521
13094SOL     OW39859   6.232   8.987   6.735 -0.3130  0.2475 -0.3826
13094SOL    HW139860   6.283   8.954   6.809 -0.8783 -1.0071 -0.5377
13094SOL    HW239861   6.298   9.018   6.672  0.1987  0.1810  0.1117
13095SOL     OW39862   2.284   3.595   6.052 -0.1243  0.3987  0.3764
13095SOL    HW139863   2.193   3.624   6.045 -0.4150 -0.4762  0.4408
13095SOL    HW239864   2.313   3.631   6.136 -0.9104 -0.6021  1.1155
13096SOL     OW39865   1.025   2.848   1.472 -0.3404 -0.1778 -0.2987
13096SOL    HW139866   1.093   2.912   1.492  1.0611 -1.8697  0.5928
13096SOL    HW239867   1.071   2.776   1.429 -1.8188 -0.7404 -1.0294
13097SOL     OW39868   0.086   7.744   2.569  0.6617  0.1019  0.0751
13097SOL    HW139869   0.148   7.815   2.552  0.7289 -0.0833 -0.4732
13097SOL    HW239870   0.134   7.664   2.547  0.2335 -0.0453 -0.3310
13098SOL     OW39871   4.909   4.524   0.025 -0.0971  0.0725 -0.1291
13098SOL    HW139872   4.838   4.475   0.066 -1.0024  0.7266 -0.8509
13098SOL    HW239873   4.957   4.564   0.097 -0.6390 -0.1431  0.3509
13099SOL     OW39874   5.656   2.862   4.974 -0.0211  0.1300 -0.3125
13099SOL    HW139875   5.652   2.952   4.942  0.0155  0.0082 -0.6680
13099SOL    HW239876   5.565   2.832   4.971 -0.7980  1.4432  3.6619
13100SOL     OW39877   8.846   0.571   6.891 -0.2176 -0.3295  0.2246
13100SOL    HW139878   8.880   0.552   6.979  0.3904 -1.0424 -0.1461
13100SOL    HW239879   8.906   0.524   6.833 -1.6088 -1.2935 -0.4904
13101SOL     OW39880   5.902   8.141   0.826 -0.0212  0.2299  0.9207
13101SOL    HW139881   5.988   8.116   0.859 -0.1689 -1.7533 -0.0368
13101SOL    HW239882   5.848   8.149   0.904  0.6184 -0.2664  1.4280
13102SOL     OW39883   5.545   0.205   7.794  0.1449  0.1889  0.1041
13102SOL    HW139884   5.550   0.183   7.887  0.5280 -0.2636 -0.0182
13102SOL    HW239885   5.453   0.190   7.771  0.2059 -0.4411  0.2395
13103SOL     OW39886   3.970   7.736   3.853 -0.0785  0.4028 -0.2521
13103SOL    HW139887   4.037   7.786   3.807 -0.8253  0.0853 -1.7366
13103SOL    HW239888   3.974   7.767   3.943  2.9040 -0.4898  0.0080
13104SOL     OW39889   9.558   3.893   2.541  0.4802 -0.6964 -0.2023
13104SOL    HW139890   9.596   3.960   2.598 -0.7437  0.3040 -0.5233
13104SOL    HW239891   9.593   3.913   2.454  0.4674 -0.7639 -0.2235
13105SOL     OW39892   7.168   3.621   3.544  0.1491 -0.2061 -0.1010
13105SOL    HW139893   7.206   3.533   3.548 -0.2369 -0.4191 -1.0010
13105SOL    HW239894   7.238   3.678   3.576  1.3607 -0.5564 -1.9824
13106SOL     OW39895   4.576   8.504   4.480  0.3383  0.4382  0.4125
13106SOL    HW139896   4.589   8.426   4.427  1.8962  1.3212 -0.5776
13106SOL    HW239897   4.663   8.526   4.513  0.0454  2.0646  0.2085
13107SOL     OW39898   7.139   9.250   0.913  0.1497  0.1091  0.2808
13107SOL    HW139899   7.183   9.180   0.866  0.6116 -0.1993  1.1465
13107SOL    HW239900   7.077   9.286   0.850  0.7252 -0.3056 -0.5459
13108SOL     OW39901   0.179   4.445   4.822 -0.6723 -0.0383  0.1164
13108SOL    HW139902   0.095   4.418   4.858 -0.9957  2.0361  1.0766
13108SOL    HW239903   0.163   4.533   4.789  1.1166  0.4026  0.3399
13109SOL     OW39904   0.353   5.177   5.421 -0.3379  0.2555  0.1239
13109SOL    HW139905   0.399   5.134   5.493 -2.3825 -0.6245  0.9828
13109SOL    HW239906   0.318   5.257   5.460 -2.1544 -0.6231  0.4230
13110SOL     OW39907   7.445   2.135   1.613 -0.0785 -0.3526 -0.3368
13110SOL    HW139908   7.363   2.109   1.655 -0.8916  2.8706  0.3698
13110SOL    HW239909   7.501   2.164   1.685  0.7087 -0.1408 -1.0211
13111SOL     OW39910   2.891   9.067   5.896  0.4254  0.3214  0.2479
13111SOL    HW139911   2.804   9.066   5.935  0.2305 -0.6744 -0.2041
13111SOL    HW239912   2.896   9.152   5.851 -1.2973 -0.5944 -1.8765
13112SOL     OW39913   8.111   2.803   7.095 -0.4718 -0.3634 -0.1189
13112SOL    HW139914   8.083   2.712   7.086 -2.0895  0.0866  0.0479
13112SOL    HW239915   8.204   2.797   7.118 -0.4383 -1.9441 -0.5069
13113SOL     OW39916   1.319   1.525   8.767 -0.0239  0.2865  0.0525
13113SOL    HW139917   1.245   1.563   8.815 -2.0563 -0.9279 -1.9127
13113SOL    HW239918   1.365   1.601   8.731 -1.0640  1.0541  0.2811
13114SOL     OW39919   9.039   2.437   2.607  0.1203  0.1859  0.5395
13114SOL    HW139920   8.959   2.429   2.658  0.2233  1.7215  1.0003
13114SOL    HW239921   9.016   2.404   2.520 -0.8897  0.2083  0.7957
13115SOL     OW39922   7.798   1.700   4.662  0.3752  0.0013  0.1393
13115SOL    HW139923   7.876   1.742   4.626  0.1066  2.2248  1.9219
13115SOL    HW239924   7.824   1.609   4.676  1.7678  0.0697 -1.6980
13116SOL     OW39925   3.269   4.230   4.829  0.1299  0.0278  0.4463
13116SOL    HW139926   3.290   4.158   4.889  0.3476 -0.3447 -0.0742
13116SOL    HW239927   3.290   4.309   4.879  2.0832 -0.3050  0.2281
13117SOL     OW39928   0.220   9.848   4.030  0.0877 -0.2136  0.1030
13117SOL    HW139929   0.264   9.933   4.042 -0.2376 -0.1623  0.9868
13117SOL    HW239930   0.174   9.833   4.113  0.3490 -1.3751  0.0504
13118SOL     OW39931   2.001   7.673   7.275 -0.2370 -0.4886 -0.0483
13118SOL    HW139932   2.026   7.764   7.290  0.4048 -0.6906  0.1170
13118SOL    HW239933   1.963   7.673   7.187  1.7848 -0.4329 -0.9892
13119SOL     OW39934   7.048   1.631   2.352 -0.2776  0.3119 -0.1071
13119SOL    HW139935   7.100   1.563   2.395 -2.5267 -0.5761  1.4845
13119SOL    HW239936   6.961   1.623   2.393 -1.9645  1.0384 -3.2051
13120SOL     OW39937   3.703   3.812   7.302 -0.1758  0.2881 -0.5087
13120SOL    HW139938   3.729   3.841   7.215 -0.4955  0.8845 -0.4103
13120SOL    HW239939   3.720   3.887   7.359 -5.4638  2.2867 -0.9783
13121SOL     OW39940   8.548   1.619   3.219  0.5929  0.0102 -0.0122
13121SOL    HW139941   8.484   1.567   3.170 -2.2221  0.5945  2.7194
13121SOL    HW239942   8.537   1.590   3.310  0.4616  3.7236  1.3286
13122SOL     OW39943   9.584   3.898   2.023 -0.1133  0.6945  0.1209
13122SOL    HW139944   9.662   3.850   1.995 -0.7940 -0.5696  0.3110
13122SOL    HW239945   9.567   3.961   1.952 -0.3109 -0.6747 -1.0867
13123SOL     OW39946   9.032   8.064   3.657  0.4776  0.5333  0.0074
13123SOL    HW139947   9.049   7.982   3.703  0.8830  0.3948 -0.3770
13123SOL    HW239948   9.048   8.132   3.723 -1.5764  0.2682  0.8349
13124SOL     OW39949   6.160   5.540   8.725  0.1715  0.5147  0.2397
13124SOL    HW139950   6.089   5.534   8.661  0.4039 -0.1320  0.0301
13124SOL    HW239951   6.225   5.597   8.683 -1.1391  2.9730  1.3452
13125SOL     OW39952   4.066   9.739   7.537  0.6625  0.2974  0.6029
13125SOL    HW139953   4.130   9.803   7.506 -1.1036  1.1568 -1.4804
13125SOL    HW239954   4.047   9.684   7.461  0.9804 -1.7765  1.9392
13126SOL     OW39955   1.954   5.190   2.778  0.1709  0.2602 -0.4989
13126SOL    HW139956   1.978   5.227   2.863 -1.0147  1.5842 -0.7071
13126SOL    HW239957   2.037   5.155   2.743  1.1307  1.7007  0.2332
13127SOL     OW39958   0.212   0.365   8.320 -0.0103 -0.5654  0.0395
13127SOL    HW139959   0.136   0.316   8.290 -1.6388  2.3518 -1.0612
13127SOL    HW239960   0.242   0.413   8.242 -0.2813  2.2328  1.5107
13128SOL     OW39961   2.569   1.686   2.111 -0.3503  0.0962  0.2595
13128SOL    HW139962   2.528   1.671   2.196  2.4878  0.4613  1.8423
13128SOL    HW239963   2.577   1.598   2.073 -1.5616 -0.0853  0.3947
13129SOL     OW39964   3.610   1.430   8.588  0.3039 -0.4720  0.1885
13129SOL    HW139965   3.586   1.426   8.495 -0.9754  1.2374  0.3949
13129SOL    HW239966   3.529   1.406   8.634  1.0521 -1.7462  0.8889
13130SOL     OW39967   4.428   9.121   3.871 -0.2556 -0.2022  0.0012
13130SOL    HW139968   4.374   9.152   3.943  0.4943  0.5443  0.2552
13130SOL    HW239969   4.376   9.136   3.793 -1.4281 -1.7944  0.4306
13131SOL     OW39970   2.169   4.240   9.701 -0.1853  0.2950 -0.5568
13131SOL    HW139971   2.169   4.316   9.642  1.6590 -1.6136 -3.2699
13131SOL    HW239972   2.240   4.258   9.763  1.3043  0.2244 -2.1405
13132SOL     OW39973   6.662   0.990   2.106  0.2603 -0.1789  0.0445
13132SOL    HW139974   6.688   1.081   2.090  1.8904 -0.7496 -0.7839
13132SOL    HW239975   6.674   0.977   2.200  0.2655  0.3891  0.1224
13133SOL     OW39976   6.790   2.672   1.585  0.3379  0.3515 -0.7931
13133SOL    HW139977   6.753   2.754   1.552 -0.1690 -0.8085 -3.2625
13133SOL    HW239978   6.840   2.637   1.512  0.1433 -1.8143  0.0495
13134SOL     OW39979   9.373   8.305   6.941 -0.8080  0.3774 -0.0224
13134SOL    HW139980   9.285   8.315   6.904 -0.8637 -0.5686 -0.1786
13134SOL    HW239981   9.431   8.315   6.866 -0.8800 -0.7241 -0.2405
13135SOL     OW39982   1.465   3.301   8.412  0.1593 -0.1442  0.2629
13135SOL    HW139983   1.431   3.275   8.497 -0.1964 -0.1580  0.1150
13135SOL    HW239984   1.482   3.219   8.366  1.7705 -0.1944  0.8647
13136SOL     OW39985   2.171   3.084   8.364 -0.3670 -0.2085 -0.2255
13136SOL    HW139986   2.195   3.120   8.279  0.0602  1.6126  0.6177
13136SOL    HW239987   2.253   3.084   8.413 -1.0056  0.7930  0.8782
13137SOL     OW39988   0.172   6.458   8.701 -0.0083  0.3621 -0.5442
13137SOL    HW139989   0.199   6.376   8.661 -0.2452  0.7444 -1.5352
13137SOL    HW239990   0.101   6.434   8.760 -1.2692  0.0374 -2.1093
13138SOL     OW39991   3.281   7.049   6.355  0.1807 -0.0968  0.2331
13138SOL    HW139992   3.333   6.973   6.327 -0.5663 -0.8256  0.7798
13138SOL    HW239993   3.268   7.037   6.449 -1.3598 -0.1952  0.0374
13139SOL     OW39994   4.574   7.483   0.891 -0.9047 -0.1998  0.5995
13139SOL    HW139995   4.602   7.530   0.970  0.1822 -1.4211  0.9763
13139SOL    HW239996   4.634   7.408   0.885 -1.1736 -0.3213 -1.2098
13140SOL     OW39997   3.036   6.057   6.558  0.1457 -0.3902  0.4180
13140SOL    HW139998   3.095   5.989   6.591  1.2181 -0.0302 -0.6915
13140SOL    HW239999   2.956   6.011   6.537  0.6387 -1.2058  0.2944
13141SOL     OW40000   9.357   7.728   1.951  0.4596  0.1159  0.8435
13141SOL    HW140001   9.273   7.686   1.972  0.2972  0.2460  0.4804
13141SOL    HW240002   9.386   7.767   2.033  0.2628 -0.1045  1.0191
13142SOL     OW40003   9.567   6.914   9.434 -0.1332  0.6809  0.3183
13142SOL    HW140004   9.661   6.934   9.440  0.1581 -0.3629 -0.5961
13142SOL    HW240005   9.525   7.000   9.429  0.7714  1.1580  0.6721
13143SOL     OW40006   5.378   4.518   0.964 -0.1885  0.6559 -0.0118
13143SOL    HW140007   5.283   4.502   0.969 -0.1302 -1.1488 -2.5251
13143SOL    HW240008   5.406   4.525   1.055 -2.9251  2.8296  0.8207
13144SOL     OW40009   3.715   1.277   3.123  0.0789  0.1973 -0.2288
13144SOL    HW140010   3.666   1.295   3.043  0.2066  1.6985 -0.0149
13144SOL    HW240011   3.708   1.358   3.174 -0.5672 -0.9425  1.5950
13145SOL     OW40012   8.373   0.774   3.741 -0.0324  0.0477 -0.1302
13145SOL    HW140013   8.459   0.808   3.714 -0.2187  1.1778  0.6542
13145SOL    HW240014   8.393   0.694   3.789  0.9018  1.9010  2.8345
13146SOL     OW40015   1.571   8.337   0.819 -0.1003 -0.2752 -0.1101
13146SOL    HW140016   1.529   8.367   0.899  0.0023  0.8248 -0.4552
13146SOL    HW240017   1.501   8.338   0.754  0.3616  1.2824 -0.6177
13147SOL     OW40018   4.157   2.261   5.105 -0.4275  0.3026 -0.3594
13147SOL    HW140019   4.179   2.256   5.012  0.8169  0.4095 -0.0963
13147SOL    HW240020   4.194   2.181   5.142  0.0159  0.7617  0.2076
13148SOL     OW40021   6.526   3.366   4.686 -0.2607 -0.2672  0.5691
13148SOL    HW140022   6.548   3.303   4.754  0.2027  0.1972  0.8586
13148SOL    HW240023   6.460   3.423   4.727 -0.3006 -0.2512  0.4824
13149SOL     OW40024   9.910   2.370   7.587 -0.6666 -0.3062 -0.5519
13149SOL    HW140025   9.882   2.395   7.675  4.2730 -0.4519  1.4291
13149SOL    HW240026   9.916   2.453   7.540  0.0958  0.3055  0.5571
13150SOL     OW40027   1.376   0.744   8.280  0.4894  0.8578 -0.1743
13150SOL    HW140028   1.342   0.780   8.198 -1.9346 -3.0689 -1.1321
13150SOL    HW240029   1.301   0.746   8.340  1.5522  1.4101  1.1947
13151SOL     OW40030   6.919   1.459   5.793 -0.4095 -0.5403  0.3297
13151SOL    HW140031   6.956   1.382   5.838  0.1599 -1.4023 -1.5085
13151SOL    HW240032   6.978   1.530   5.816 -0.4155 -0.8342  1.3255
13152SOL     OW40033   8.718   3.389   7.995  0.4779 -0.4182  0.2329
13152SOL    HW140034   8.708   3.374   8.089 -0.2285 -2.4112 -0.1155
13152SOL    HW240035   8.807   3.360   7.976  0.2539 -1.0283  0.1115
13153SOL     OW40036   2.345   4.034   6.039  0.2082  0.4867 -0.2497
13153SOL    HW140037   2.390   3.964   5.990 -0.1874  0.2114 -0.2259
13153SOL    HW240038   2.305   4.088   5.971 -1.2000 -0.4693 -0.2357
13154SOL     OW40039   3.113   4.171   8.166 -0.6044  0.0166 -0.4883
13154SOL    HW140040   3.058   4.100   8.200 -2.1197  0.5805 -1.6253
13154SOL    HW240041   3.129   4.227   8.242  0.2283 -1.2685  0.3177
13155SOL     OW40042   8.533   5.674   5.812 -0.0259  0.4793  0.3377
13155SOL    HW140043   8.443   5.674   5.779  0.6022  0.3764 -1.5353
13155SOL    HW240044   8.576   5.744   5.762  0.8476  0.7667  1.4639
13156SOL     OW40045   0.235   0.074   9.164 -0.0063  0.0694 -0.0464
13156SOL    HW140046   0.143   0.094   9.178  0.5250  2.4341  0.5810
13156SOL    HW240047   0.272   0.064   9.252 -0.0346 -3.2719 -0.2978
13157SOL     OW40048   1.685   5.127   7.928  0.4148 -0.6044  0.0267
13157SOL    HW140049   1.683   5.192   7.858 -1.2757 -0.9125 -0.2709
13157SOL    HW240050   1.653   5.174   8.005  0.6106 -0.6977  0.1640
13158SOL     OW40051   4.086   1.829   9.559  0.2980  0.0038  0.0237
13158SOL    HW140052   4.039   1.879   9.493  1.6642  0.9133 -0.2910
13158SOL    HW240053   4.023   1.762   9.587 -0.0715 -0.9708 -2.7809
13159SOL     OW40054   0.866   6.414   3.181  0.0528 -0.5098  0.4108
13159SOL    HW140055   0.882   6.355   3.255  2.0420 -0.2753  0.2236
13159SOL    HW240056   0.848   6.499   3.222 -1.9923 -1.0022  0.6573
13160SOL     OW40057   8.640   2.910   8.299 -0.1045 -0.4436 -0.0127
13160SOL    HW140058   8.571   2.860   8.343  0.6817 -0.2614  1.4964
13160SOL    HW240059   8.709   2.918   8.365  0.3948  1.3786 -0.6895
13161SOL     OW40060   6.594   4.151   6.549 -0.7467 -0.4134  0.3082
13161SOL    HW140061   6.506   4.187   6.536 -0.4682  0.5839  1.0240
13161SOL    HW240062   6.599   4.076   6.490 -2.2709 -0.8058  0.6402
13162SOL     OW40063   6.445   0.858   4.501 -0.3960 -0.2423  0.0371
13162SOL    HW140064   6.518   0.849   4.441 -0.3027  0.9243 -0.0645
13162SOL    HW240065   6.421   0.769   4.525  0.2275 -0.6807 -0.9264
13163SOL     OW40066   5.421   4.274   5.453  0.0814 -0.1430 -0.0931
13163SOL    HW140067   5.516   4.261   5.454 -0.1429 -2.0657 -0.0543
13163SOL    HW240068   5.409   4.362   5.418  1.9206  0.8456  1.5394
13164SOL     OW40069   2.397   9.595   3.969  0.0553 -0.1779 -0.1455
13164SOL    HW140070   2.409   9.689   3.984  2.0195 -0.4547  0.3313
13164SOL    HW240071   2.444   9.577   3.888 -1.2302 -0.5776 -0.8116
13165SOL     OW40072   5.437   9.427   5.444  0.2947 -0.1701  0.1252
13165SOL    HW140073   5.364   9.373   5.475  0.9247 -1.7042 -0.9626
13165SOL    HW240074   5.469   9.472   5.523 -1.4277  0.0879  0.7214
13166SOL     OW40075   9.255   9.479   8.932 -0.2232  0.2962  0.3775
13166SOL    HW140076   9.265   9.396   8.978  0.7758  0.8699  1.2449
13166SOL    HW240077   9.298   9.465   8.847 -1.6686 -0.6226 -0.2304
13167SOL     OW40078   6.381   9.306   6.844 -0.0530  0.2950 -0.5279
13167SOL    HW140079   6.295   9.305   6.802  0.2190  0.9972 -1.1243
13167SOL    HW240080   6.396   9.397   6.868  0.2633  0.0761  0.1316
13168SOL     OW40081   7.870   1.796   8.958 -0.2350  0.1232  0.1439
13168SOL    HW140082   7.804   1.864   8.941  0.0102 -0.3014 -2.9712
13168SOL    HW240083   7.877   1.748   8.876  0.6726 -2.8081  1.7999
13169SOL     OW40084   7.975   6.723   3.548 -0.6655  0.2628 -0.1631
13169SOL    HW140085   8.013   6.717   3.636 -1.5847 -1.8056  0.1554
13169SOL    HW240086   7.887   6.759   3.563 -0.4812  0.8049 -0.3641
13170SOL     OW40087   3.806   5.222   7.857  0.2542  0.2369 -0.4172
13170SOL    HW140088   3.898   5.247   7.869  0.0505  0.8447 -0.0827
13170SOL    HW240089   3.789   5.159   7.928 -0.1203  1.6040  0.7519
13171SOL     OW40090   1.382   9.280   3.639 -0.2947 -0.5490 -0.4188
13171SOL    HW140091   1.443   9.215   3.604 -0.6079 -1.7996  1.2540
13171SOL    HW240092   1.297   9.236   3.639 -0.4105 -0.4103  1.3169
13172SOL     OW40093   1.745   6.977   4.699 -0.2626 -0.2152 -0.0597
13172SOL    HW140094   1.731   6.924   4.621 -0.7818 -0.9312  0.5089
13172SOL    HW240095   1.670   6.958   4.755  1.2185 -1.5207  1.6114
13173SOL     OW40096   2.511   0.666   5.781  0.3044 -0.6901 -0.3734
13173SOL    HW140097   2.430   0.675   5.830 -0.7067  2.0114 -2.2629
13173SOL    HW240098   2.577   0.710   5.835  0.0301 -0.9280  0.1620
13174SOL     OW40099   5.816   5.458   5.514  0.6783 -0.2154 -0.1917
13174SOL    HW140100   5.796   5.381   5.462  0.1701 -0.5972  0.5627
13174SOL    HW240101   5.831   5.425   5.602  0.1939  0.5693  0.1980
13175SOL     OW40102   6.803   8.226   7.395  0.1247  0.4803  0.0478
13175SOL    HW140103   6.883   8.279   7.405  0.0654  0.9108 -1.4876
13175SOL    HW240104   6.800   8.172   7.474  1.7448  0.7099  0.3053
13176SOL     OW40105   2.540   6.739   9.024 -0.0543  0.3325  0.1704
13176SOL    HW140106   2.608   6.713   8.963 -2.5125  0.2091 -2.7220
13176SOL    HW240107   2.518   6.829   8.999 -2.5349 -0.4160 -0.6179
13177SOL     OW40108   6.849   4.405   0.435 -0.4944 -0.1195 -0.1034
13177SOL    HW140109   6.920   4.385   0.374  0.0541  1.1689  0.0754
13177SOL    HW240110   6.843   4.328   0.491  1.4539  0.1055  0.5068
13178SOL     OW40111   1.297   7.233   6.381 -0.4679 -0.2677  0.2218
13178SOL    HW140112   1.387   7.201   6.390 -0.3618  0.1976  0.8871
13178SOL    HW240113   1.307   7.328   6.374 -0.8915 -0.2422 -0.0725
13179SOL     OW40114   9.338   2.978   8.951  0.3057  0.1851 -0.1038
13179SOL    HW140115   9.248   2.954   8.972  0.6878 -0.1500  1.2384
13179SOL    HW240116   9.335   3.004   8.859 -1.3358  1.0885  0.1635
13180SOL     OW40117   4.327   5.629   5.250 -0.3346 -0.5620 -0.4954
13180SOL    HW140118   4.376   5.706   5.278  0.9278 -1.3017 -0.5764
13180SOL    HW240119   4.310   5.643   5.157 -1.6841  0.4139 -0.1296
13181SOL     OW40120   9.343   6.457   6.597  0.6358 -0.4882  0.4781
13181SOL    HW140121   9.415   6.395   6.595  1.3083  0.2857 -0.5897
13181SOL    HW240122   9.328   6.480   6.505  0.2756  0.7714  0.8222
13182SOL     OW40123   8.726   7.800   3.761  0.4782 -0.3984  0.1969
13182SOL    HW140124   8.763   7.728   3.812  0.4218 -1.0748 -0.7056
13182SOL    HW240125   8.692   7.860   3.827  0.3921 -1.2681  0.9709
13183SOL     OW40126   0.079   4.957   8.341 -0.0734  0.2508 -0.0798
13183SOL    HW140127   0.048   4.875   8.301 -2.6705  1.4060 -0.6539
13183SOL    HW240128   0.109   4.931   8.428 -0.3257 -1.3795 -0.4375
13184SOL     OW40129   2.376   0.259   4.329 -0.2098 -0.0575  0.1687
13184SOL    HW140130   2.325   0.227   4.404 -1.5481  2.7309  0.5777
13184SOL    HW240131   2.383   0.353   4.343  2.6401  0.0847 -1.4236
13185SOL     OW40132   7.978   3.119   7.826 -0.1815 -0.6807 -0.1584
13185SOL    HW140133   8.058   3.067   7.828  2.1622  2.6800  0.8657
13185SOL    HW240134   7.967   3.141   7.733 -1.2505 -2.8272 -0.6236
13186SOL     OW40135   3.113   2.272   1.032  0.5508 -0.0608  0.3896
13186SOL    HW140136   3.204   2.295   1.052  0.2783  0.4153  1.1509
13186SOL    HW240137   3.103   2.292   0.939  1.3368 -0.5135  0.2009
13187SOL     OW40138   4.524   9.296   6.030 -0.2756  0.4117 -0.5100
13187SOL    HW140139   4.458   9.258   6.089 -0.0948 -0.2764 -0.7375
13187SOL    HW240140   4.601   9.309   6.086  0.3356 -1.4637 -0.8378
13188SOL     OW40141   5.219   9.363   7.932 -0.9363  0.4028  0.8192
13188SOL    HW140142   5.149   9.390   7.872 -0.7627 -0.2616  0.3075
13188SOL    HW240143   5.192   9.275   7.961 -0.1888  0.0280  0.4076
13189SOL     OW40144   1.839   7.275   4.933 -0.4982 -0.9377 -0.3616
13189SOL    HW140145   1.886   7.210   4.882 -1.9732 -0.4375 -2.4847
13189SOL    HW240146   1.785   7.322   4.869  1.1124  3.0060  0.8724
13190SOL     OW40147   0.553   3.887   3.926 -0.2568 -0.2403  0.0482
13190SOL    HW140148   0.588   3.853   3.844  0.0127  0.6851 -0.2379
13190SOL    HW240149   0.513   3.971   3.902 -3.8507 -1.7452  0.0856
13191SOL     OW40150   2.960   0.727   3.200 -0.5302 -0.3745 -0.1217
13191SOL    HW140151   3.019   0.676   3.144 -0.2414 -1.0322  0.7497
13191SOL    HW240152   2.887   0.668   3.218 -0.7510 -0.0762 -0.0366
13192SOL     OW40153   8.931   6.534   2.503 -0.6843  0.7743 -0.2846
13192SOL    HW140154   8.962   6.463   2.447 -1.1882  0.2871  0.0480
13192SOL    HW240155   8.909   6.605   2.442 -1.0981  0.3010 -0.6927
13193SOL     OW40156   1.547   5.141   9.711  0.0019 -0.4124  0.4171
13193SOL    HW140157   1.465   5.093   9.699 -0.8947  1.0080  0.6887
13193SOL    HW240158   1.546   5.207   9.642  1.3701 -0.9495 -0.1480
13194SOL     OW40159   5.034   9.596   3.018  0.3848  0.0396 -0.5314
13194SOL    HW140160   5.047   9.624   3.108  1.2882  1.0275 -0.9512
13194SOL    HW240161   4.993   9.510   3.026  3.1961 -1.3135  0.8698
13195SOL     OW40162   9.522   8.417   6.012  0.0463  0.1084  0.0410
13195SOL    HW140163   9.497   8.326   6.028  1.7373 -0.3775  0.0992
13195SOL    HW240164   9.457   8.448   5.949 -1.0461 -0.8692  0.6328
13196SOL     OW40165   4.095   8.631   9.383 -0.3307 -0.4202  0.3885
13196SOL    HW140166   4.057   8.561   9.436 -0.8027  0.7739  1.6663
13196SOL    HW240167   4.041   8.635   9.305  0.0001 -1.7927  0.0614
13197SOL     OW40168   2.525   2.242   0.543  0.5586  0.7088  0.4375
13197SOL    HW140169   2.505   2.322   0.495  0.5146 -0.3140 -1.3288
13197SOL    HW240170   2.599   2.204   0.497  0.2020 -0.5757  0.8795
13198SOL     OW40171   8.534   0.600   5.582  0.1184 -0.2510 -0.0266
13198SOL    HW140172   8.478   0.675   5.563 -0.9484 -0.9789  0.1436
13198SOL    HW240173   8.487   0.552   5.651  1.9028  0.1471  1.5260
13199SOL     OW40174   4.979   3.036   9.963  0.5394 -0.0883  0.8665
13199SOL    HW140175   4.890   3.040   9.999 -0.1383  0.5460 -0.7500
13199SOL    HW240176   5.003   2.944   9.969 -0.4279 -0.3480  0.9105
13200SOL     OW40177   1.128   7.831   9.543 -0.3646  0.4013 -0.0584
13200SOL    HW140178   1.105   7.870   9.628  0.0838  0.1177  0.1969
13200SOL    HW240179   1.055   7.854   9.485 -1.6360 -1.0345  0.8897
13201SOL     OW40180   3.399   6.610   7.654  0.1537 -0.4639  0.7586
13201SOL    HW140181   3.441   6.661   7.585  0.3194 -0.7527  0.6435
13201SOL    HW240182   3.465   6.607   7.724 -0.2216  0.3024  1.1606
13202SOL     OW40183   1.449   3.673   0.088  0.5152  0.4752 -0.0602
13202SOL    HW140184   1.526   3.625   0.119  0.1955  0.3134  0.4829
13202SOL    HW240185   1.422   3.626   0.008 -0.8416 -1.3508  1.3807
13203SOL     OW40186   0.011   0.523   2.542 -0.3490 -0.3534  0.0541
13203SOL    HW140187   0.076   0.465   2.583  1.1148  0.5812 -0.8759
13203SOL    HW240188   0.027   0.608   2.582  0.0973  0.2359 -1.3117
13204SOL     OW40189   9.337   9.350   1.563 -0.3201  0.5706  0.7287
13204SOL    HW140190   9.298   9.394   1.639 -2.0113 -0.5070  0.5327
13204SOL    HW240191   9.270   9.288   1.534  0.2592  0.9784 -1.6920
13205SOL     OW40192   3.198   0.671   5.529  0.1399 -0.0060  0.2192
13205SOL    HW140193   3.121   0.726   5.520  0.9790  1.1592 -0.1664
13205SOL    HW240194   3.254   0.717   5.591 -0.4413 -2.0289  2.4016
13206SOL     OW40195   1.548   4.463   8.567 -0.4159  0.1043 -0.0827
13206SOL    HW140196   1.598   4.497   8.641 -0.1467  2.4518 -1.2284
13206SOL    HW240197   1.466   4.512   8.569 -0.4261  0.1711 -1.2781
13207SOL     OW40198   7.340   2.349   3.418  0.0773 -0.3300  0.4087
13207SOL    HW140199   7.426   2.366   3.457 -0.5613  1.1819  1.2685
13207SOL    HW240200   7.356   2.282   3.352  1.3210 -2.7915  2.9936
13208SOL     OW40201   2.281   5.202   6.419 -0.4582  0.0091  0.5691
13208SOL    HW140202   2.239   5.140   6.359  0.5630  0.9182 -1.1598
13208SOL    HW240203   2.361   5.157   6.448 -0.1467  0.1927 -0.0099
13209SOL     OW40204   9.631   8.676   3.321  0.5122 -0.0681  0.5213
13209SOL    HW140205   9.565   8.628   3.272  1.4068 -0.8039  0.0052
13209SOL    HW240206   9.581   8.730   3.383 -0.9174  3.4024 -3.2467
13210SOL     OW40207   4.546   3.171   2.704 -0.5184  0.4788  0.3950
13210SOL    HW140208   4.579   3.145   2.790 -1.2751 -1.3537  0.1871
13210SOL    HW240209   4.617   3.223   2.665  0.7303 -0.4844  1.2866
13211SOL     OW40210   7.170   5.998   8.484  0.0160  0.5770  0.7179
13211SOL    HW140211   7.131   5.920   8.444  0.9105 -0.4179  1.7274
13211SOL    HW240212   7.099   6.034   8.538 -0.9031  1.4029 -0.9515
13212SOL     OW40213   8.660   7.115   3.556  0.2360  0.0007  0.1904
13212SOL    HW140214   8.662   7.139   3.463  1.5641 -0.6480  0.0385
13212SOL    HW240215   8.583   7.161   3.590 -0.8629 -0.5385 -1.4268
13213SOL     OW40216   2.548   4.721   5.041  0.1309 -0.0718 -0.2380
13213SOL    HW140217   2.452   4.715   5.036  0.1612  0.4424 -2.8838
13213SOL    HW240218   2.570   4.679   5.124 -2.5092  1.4331  1.3806
13214SOL     OW40219   0.631   6.829   7.854 -0.5362  0.0834 -0.3384
13214SOL    HW140220   0.549   6.802   7.813  1.5573 -3.1979 -2.9637
13214SOL    HW240221   0.693   6.835   7.781  1.6897  2.1256  1.5478
13215SOL     OW40222   3.718   0.523   6.823  0.4069  0.1622  0.3359
13215SOL    HW140223   3.774   0.469   6.879 -1.7640 -0.6589  1.8511
13215SOL    HW240224   3.661   0.460   6.778  2.3785  0.7374 -3.3693
13216SOL     OW40225   1.950   2.850   2.582 -0.6373  0.2173 -0.2531
13216SOL    HW140226   2.011   2.805   2.640 -1.8212  0.1238  0.9527
13216SOL    HW240227   1.898   2.906   2.639  0.6451  3.0581 -1.6696
13217SOL     OW40228   5.729   0.567   7.770 -0.0181  0.3125 -0.0955
13217SOL    HW140229   5.686   0.649   7.794  0.2318 -0.0368  1.6345
13217SOL    HW240230   5.692   0.546   7.684 -3.3411  0.0620  1.2323
13218SOL     OW40231   3.412   3.864   9.526 -0.2754  0.5432 -0.2938
13218SOL    HW140232   3.494   3.862   9.476  0.8840 -1.5670  1.4726
13218SOL    HW240233   3.363   3.788   9.496  1.6692 -2.5087  3.3421
13219SOL     OW40234   6.636   8.378   0.757 -0.2203 -0.1597  0.5857
13219SOL    HW140235   6.632   8.472   0.774 -2.0328  0.1936 -1.3170
13219SOL    HW240236   6.614   8.337   0.841  4.1218  0.8647  2.4655
13220SOL     OW40237   5.807   3.858   2.610 -0.1220 -0.2853 -0.7379
13220SOL    HW140238   5.875   3.800   2.645  1.3807  2.4095  1.2054
13220SOL    HW240239   5.753   3.879   2.686 -0.2643  1.2587 -1.2302
13221SOL     OW40240   8.381   6.779   5.185  0.2463  0.0060 -0.1601
13221SOL    HW140241   8.320   6.851   5.167 -1.6082 -1.2195  0.8623
13221SOL    HW240242   8.383   6.729   5.104  1.3028  1.0055 -0.7747
13222SOL     OW40243   0.922   2.598   9.692 -0.0494  0.0137  0.4489
13222SOL    HW140244   0.854   2.655   9.658  0.1486  1.0032  1.6484
13222SOL    HW240245   0.890   2.509   9.675 -0.8909  0.4715 -0.4105
13223SOL     OW40246   7.967   8.153   9.262  0.0926  0.2523 -0.2093
13223SOL    HW140247   8.050   8.108   9.248 -0.0106  0.0926 -0.3140
13223SOL    HW240248   7.901   8.088   9.239 -0.0715  0.2416  0.2893
13224SOL     OW40249   8.511   0.212   6.857  0.1507  0.3864  0.3083
13224SOL    HW140250   8.556   0.288   6.820  0.9301 -0.1510  0.1322
13224SOL    HW240251   8.440   0.249   6.908 -0.4777  1.1720 -1.0897
13225SOL     OW40252   2.503   0.292   5.904 -0.1299  0.5702  0.1556
13225SOL    HW140253   2.474   0.201   5.900  1.7402 -0.0550 -0.1705
13225SOL    HW240254   2.489   0.326   5.816  0.1946  0.2363 -0.0305
13226SOL     OW40255   0.376   0.181   7.501  0.0851  0.0069  0.2048
13226SOL    HW140256   0.374   0.213   7.592 -2.9121 -0.3227  0.3467
13226SOL    HW240257   0.327   0.099   7.504  0.0679 -0.0786 -1.6919
13227SOL     OW40258   2.047   5.709   2.067 -0.1501 -0.1476  0.2805
13227SOL    HW140259   1.989   5.782   2.087  0.3124 -0.0838  1.5052
13227SOL    HW240260   2.094   5.693   2.149 -0.1672 -1.7573  0.0094
13228SOL     OW40261   5.374   9.606   3.003  0.1212 -0.0316 -0.2170
13228SOL    HW140262   5.411   9.529   3.047 -1.9751 -1.3848 -0.6976
13228SOL    HW240263   5.445   9.637   2.946  0.6993 -2.2836 -0.8335
13229SOL     OW40264   9.250   6.987   7.485 -0.0415  0.2972 -0.1972
13229SOL    HW140265   9.303   7.060   7.519 -1.1533 -0.0245  2.4409
13229SOL    HW240266   9.177   7.029   7.440  0.8221  0.7576 -1.2057
13230SOL     OW40267   9.413   4.816   7.573  0.1802  0.1857  0.3243
13230SOL    HW140268   9.324   4.809   7.605  0.0492 -0.3041 -0.1396
13230SOL    HW240269   9.468   4.801   7.650 -0.1282 -1.3060  0.2791
13231SOL     OW40270   4.901   9.335   0.221 -0.2577 -0.0360 -0.4022
13231SOL    HW140271   4.971   9.294   0.171 -1.2764  1.9445 -3.7573
13231SOL    HW240272   4.944   9.366   0.301  2.4317 -0.0548 -1.7341
13232SOL     OW40273   3.315   8.357   7.476  0.0115  1.1037 -0.1609
13232SOL    HW140274   3.386   8.421   7.463  0.0891  0.9986 -0.2546
13232SOL    HW240275   3.317   8.303   7.397  0.4801  0.4666  0.2822
13233SOL     OW40276   6.577   6.174   4.066 -0.3882  0.2001 -0.6148
13233SOL    HW140277   6.600   6.182   4.158  0.7860 -1.1414 -0.7552
13233SOL    HW240278   6.623   6.246   4.023  1.2901 -0.7631 -0.4950
13234SOL     OW40279   4.180   1.373   2.640 -0.2175 -0.2383 -0.1377
13234SOL    HW140280   4.093   1.375   2.679  0.1244 -0.0698  0.6279
13234SOL    HW240281   4.174   1.306   2.572 -1.0437  0.0274 -0.3434
13235SOL     OW40282   2.046   3.707   0.847 -1.1613  0.0942  0.0601
13235SOL    HW140283   1.982   3.644   0.815 -0.1465 -0.2855 -1.3203
13235SOL    HW240284   2.046   3.777   0.780 -0.6751  0.4479  0.4236
13236SOL     OW40285   7.327   8.949   3.176 -0.1921  0.3077 -0.1019
13236SOL    HW140286   7.304   8.975   3.266  0.3949  1.0404 -0.1575
13236SOL    HW240287   7.243   8.923   3.137 -0.6602  1.2292  0.2516
13237SOL     OW40288   0.972   1.917   0.979  0.2027 -0.0121 -0.7964
13237SOL    HW140289   0.943   1.873   0.900  2.2215 -1.1567 -0.9521
13237SOL    HW240290   0.895   1.915   1.037 -0.4956 -1.5727 -1.7127
13238SOL     OW40291   7.237   7.108   1.815  0.4990 -0.4820 -0.0178
13238SOL    HW140292   7.219   7.067   1.730  2.7180 -0.1301 -0.7473
13238SOL    HW240293   7.316   7.063   1.847  1.1482  1.0496  0.6485
13239SOL     OW40294   3.875   1.342   7.827 -0.6049  0.3078  0.2318
13239SOL    HW140295   3.818   1.364   7.753  0.0797  1.1581 -0.0693
13239SOL    HW240296   3.942   1.410   7.825 -0.7387  0.5066  1.8204
13240SOL     OW40297   9.765   4.060   7.916  0.0425 -0.3424 -0.4019
13240SOL    HW140298   9.781   4.153   7.931  1.3268 -0.7666  1.1663
13240SOL    HW240299   9.670   4.050   7.923  0.0844  0.3099  3.4965
13241SOL     OW40300   4.069   1.422   4.167 -0.3136  0.0551 -0.9257
13241SOL    HW140301   4.144   1.441   4.111 -0.8077 -0.7596 -1.8838
13241SOL    HW240302   4.061   1.327   4.165  0.0378 -0.0544  1.0554
13242SOL     OW40303   6.475   6.549   7.706 -0.3718 -0.9426  0.0747
13242SOL    HW140304   6.431   6.488   7.765 -0.6520 -1.5646 -0.7610
13242SOL    HW240305   6.568   6.538   7.726 -0.5153 -0.1335  1.3501
13243SOL     OW40306   4.108   9.654   3.851  0.5234 -0.4668  0.5261
13243SOL    HW140307   4.043   9.701   3.800  0.6824 -1.1065 -0.2815
13243SOL    HW240308   4.134   9.716   3.920  2.1600  1.3984 -1.6137
13244SOL     OW40309   2.967   7.307   0.082 -0.4007  0.5675 -0.1491
13244SOL    HW140310   2.942   7.288  -0.009  2.8424 -2.9303 -0.5780
13244SOL    HW240311   2.912   7.250   0.135  1.2233 -1.4201 -0.4777
13245SOL     OW40312   4.413   4.643   3.771 -0.3345 -0.1620 -0.9056
13245SOL    HW140313   4.434   4.711   3.835 -1.7618  0.8952 -1.5108
13245SOL    HW240314   4.401   4.564   3.823  0.6424  0.1958 -0.1092
13246SOL     OW40315   2.977   4.906   9.697  0.2383  0.1481  0.3811
13246SOL    HW140316   2.913   4.845   9.659 -1.9753  0.9912  2.4844
13246SOL    HW240317   2.968   4.986   9.645 -0.6080  0.3162  0.7557
13247SOL     OW40318   8.302   5.552   1.495 -0.4309  0.0160 -0.3190
13247SOL    HW140319   8.388   5.593   1.505  0.3873 -1.3198 -1.5367
13247SOL    HW240320   8.294   5.535   1.402 -1.0292 -1.9010  0.0389
13248SOL     OW40321   6.185   6.939   8.745 -0.1888 -0.0646 -0.1238
13248SOL    HW140322   6.168   7.020   8.793 -1.7084 -0.9766  0.9293
13248SOL    HW240323   6.129   6.945   8.667  0.6554  0.4360 -0.7150
13249SOL     OW40324   6.733   3.405   3.337  0.3830 -0.2356  0.7754
13249SOL    HW140325   6.689   3.346   3.398 -2.9751  1.1193 -0.0955
13249SOL    HW240326   6.724   3.492   3.378  1.3399  0.2205  0.0476
13250SOL     OW40327   4.921   4.126   9.220 -0.1852 -0.0986 -0.2727
13250SOL    HW140328   4.919   4.057   9.287 -0.7110 -1.4773 -1.6429
13250SOL    HW240329   5.009   4.121   9.183 -0.6462 -1.0589 -1.3300
13251SOL     OW40330   7.293   8.312   0.789 -0.2106 -0.5541  0.0298
13251SOL    HW140331   7.299   8.313   0.693 -1.8146  1.2751 -0.1172
13251SOL    HW240332   7.367   8.366   0.818 -1.3429  1.3118 -0.3876
13252SOL     OW40333   1.614   6.062   8.380  0.1446 -0.4377 -0.1095
13252SOL    HW140334   1.694   6.115   8.388 -0.1607 -0.2182  2.2223
13252SOL    HW240335   1.623   6.018   8.296  1.6234  1.3511 -0.9656
13253SOL     OW40336   4.681   3.531   6.072  0.2116 -0.1182 -0.4439
13253SOL    HW140337   4.670   3.565   5.983  1.0566  2.5417  0.3835
13253SOL    HW240338   4.604   3.563   6.120  0.7890  0.2429  0.2544
13254SOL     OW40339   9.129   3.533   9.090  0.1938 -0.1083 -0.1192
13254SOL    HW140340   9.147   3.607   9.148  0.2873 -0.2940  0.0894
13254SOL    HW240341   9.207   3.527   9.035  1.2566 -1.5508  1.4607
13255SOL     OW40342   3.756   8.393   2.966 -0.0874  0.3955  0.1616
13255SOL    HW140343   3.667   8.372   2.938 -0.0233  0.5816 -0.2033
13255SOL    HW240344   3.806   8.395   2.884  0.2710  0.2007  0.3750
13256SOL     OW40345   5.508   4.298   7.884  0.5934  0.5124  0.0661
13256SOL    HW140346   5.480   4.210   7.859  0.8280  0.1351  1.0919
13256SOL    HW240347   5.427   4.341   7.912  0.0709  1.4054 -2.5193
13257SOL     OW40348   2.593   6.379   5.203 -0.3872 -0.1334 -0.2734
13257SOL    HW140349   2.603   6.329   5.284 -1.2303 -1.1009 -0.7402
13257SOL    HW240350   2.500   6.402   5.200  0.1108  2.2070  0.3258
13258SOL     OW40351   6.944   3.959   4.353 -0.7232 -0.5550  0.5609
13258SOL    HW140352   6.961   3.866   4.343 -0.4914 -0.3879 -0.7815
13258SOL    HW240353   7.019   4.002   4.311 -0.7995  0.2386  1.2034
13259SOL     OW40354   7.213   9.809   4.022 -0.1423 -0.0240  0.5726
13259SOL    HW140355   7.278   9.747   4.052 -0.3671 -0.6234 -0.1289
13259SOL    HW240356   7.183   9.854   4.101  3.2387  2.4469  0.6702
13260SOL     OW40357   6.203   8.768   3.567  0.0912 -0.3773  0.0664
13260SOL    HW140358   6.199   8.684   3.521 -2.6531 -2.0048  2.9167
13260SOL    HW240359   6.272   8.756   3.632  0.1329 -0.1381  0.0679
13261SOL     OW40360   0.318   3.816   3.566 -0.3969 -0.5030  0.4883
13261SOL    HW140361   0.367   3.876   3.510  0.2245 -2.0148 -0.6872
13261SOL    HW240362   0.248   3.869   3.604 -1.2208  0.4939 -2.1900
13262SOL     OW40363   1.221   2.667   3.697 -0.8678  0.0170  0.4065
13262SOL    HW140364   1.276   2.599   3.736 -0.3127  0.8574  1.1365
13262SOL    HW240365   1.272   2.698   3.621 -0.2397  0.8934  1.1652
13263SOL     OW40366   8.557   0.022   1.414 -0.3647 -0.5499  0.2367
13263SOL    HW140367   8.580   0.100   1.463 -1.4676 -0.0844  0.0454
13263SOL    HW240368   8.490   0.051   1.352  0.5355 -1.2599 -1.1246
13264SOL     OW40369   9.711   5.315   1.174  0.1114 -0.0062 -0.3234
13264SOL    HW140370   9.736   5.383   1.111 -1.8228  0.1672 -0.9702
13264SOL    HW240371   9.619   5.295   1.153 -0.0999 -1.0939  1.4205
13265SOL     OW40372   3.322   5.984   7.777  0.1380 -0.3073 -0.3549
13265SOL    HW140373   3.328   5.923   7.851 -2.2282 -1.2435 -0.8124
13265SOL    HW240374   3.307   6.069   7.817  0.7700 -0.4814  0.2649
13266SOL     OW40375   9.815   3.965   0.442  0.0673 -0.1968 -0.3000
13266SOL    HW140376   9.825   3.901   0.372  0.1004  0.2732 -0.7275
13266SOL    HW240377   9.744   3.931   0.496 -0.5951 -0.0789 -1.0952
13267SOL     OW40378   7.532   3.439   3.579 -0.2794  0.0175 -0.5322
13267SOL    HW140379   7.445   3.405   3.559 -0.9242  1.5666 -0.5136
13267SOL    HW240380   7.574   3.447   3.493 -0.2663 -0.4268 -0.5699
13268SOL     OW40381  -0.001   9.533   9.955  0.1171  0.4048 -0.1914
13268SOL    HW140382   0.026   9.482  10.031  0.5969  0.0505 -0.5957
13268SOL    HW240383   0.049   9.496   9.882  0.5692  1.5424 -0.4736
13269SOL     OW40384   1.494   2.603   0.412 -0.0911 -0.2339 -0.8015
13269SOL    HW140385   1.574   2.579   0.458 -2.1527 -2.9954  1.7260
13269SOL    HW240386   1.435   2.636   0.480 -1.4954  0.7928 -2.4110
13270SOL     OW40387   9.238   0.223   2.142 -0.0094  0.1697  0.3640
13270SOL    HW140388   9.293   0.145   2.139 -1.6296 -1.0289 -1.9979
13270SOL    HW240389   9.158   0.194   2.186 -0.9276  0.2009 -1.1897
13271SOL     OW40390   5.323   6.565   3.001  0.4831 -0.1228  0.2502
13271SOL    HW140391   5.328   6.607   2.915  0.4518  0.5091  0.5472
13271SOL    HW240392   5.414   6.557   3.029  0.4623  0.3830  0.4843
13272SOL     OW40393   8.261   7.240   5.137 -0.2247 -0.1112 -0.1562
13272SOL    HW140394   8.234   7.293   5.212 -1.1105  1.4452 -1.5115
13272SOL    HW240395   8.345   7.202   5.164 -1.4685 -1.2857  2.3718
13273SOL     OW40396   5.799   0.232   8.801  0.1442  0.1085 -0.1172
13273SOL    HW140397   5.885   0.274   8.792  0.5448 -0.9340 -1.6822
13273SOL    HW240398   5.746   0.271   8.732 -1.0576  1.5922  1.5768
13274SOL     OW40399   5.007   7.463   5.372 -0.3860 -0.1155 -0.3588
13274SOL    HW140400   5.073   7.498   5.313  0.5362 -2.0606 -0.5778
13274SOL    HW240401   5.058   7.427   5.445 -1.4476  1.4115  1.1866
13275SOL     OW40402   5.992   4.878   4.530  1.4047 -0.5081  0.2075
13275SOL    HW140403   5.905   4.842   4.511  1.3361 -0.5998  0.6574
13275SOL    HW240404   6.033   4.812   4.587  2.2544 -1.0594 -1.0098
13276SOL     OW40405   2.924   8.958   5.222 -0.2209 -0.4116 -0.1833
13276SOL    HW140406   2.862   9.032   5.218  0.0627 -0.1412  0.3142
13276SOL    HW240407   2.968   8.959   5.138 -0.2191 -0.0080 -0.1789
13277SOL     OW40408   6.791   2.924   2.810 -0.0814  0.1155 -0.2706
13277SOL    HW140409   6.830   2.840   2.783 -1.1262 -0.4331 -0.1530
13277SOL    HW240410   6.742   2.953   2.733 -2.0313 -0.8159  0.5518
13278SOL     OW40411   0.880   0.273   9.740  0.1725 -0.5042 -0.0249
13278SOL    HW140412   0.801   0.264   9.686  0.6221  0.2352 -0.8361
13278SOL    HW240413   0.950   0.238   9.684  0.6532  0.3138  0.0566
13279SOL     OW40414   5.122   6.889   8.549  0.3388  0.0260  0.1077
13279SOL    HW140415   5.152   6.950   8.481  0.2535 -1.0632 -0.9467
13279SOL    HW240416   5.172   6.809   8.532  0.9122 -0.0257  1.8561
13280SOL     OW40417   9.603   3.584   8.908 -0.2019 -0.6123 -0.3103
13280SOL    HW140418   9.684   3.634   8.903 -0.5490 -0.0762 -0.8254
13280SOL    HW240419   9.625   3.506   8.958 -0.3609  1.4652  3.3195
13281SOL     OW40420   1.714   8.446   2.539  0.8989 -0.0189 -0.6134
13281SOL    HW140421   1.690   8.398   2.459 -0.1613 -0.8673  0.1646
13281SOL    HW240422   1.630   8.479   2.572  1.2772  0.0304  0.3202
13282SOL     OW40423   8.628   6.218   8.355 -0.4210  1.1078  0.0669
13282SOL    HW140424   8.657   6.178   8.273  1.3668 -0.0944  1.2194
13282SOL    HW240425   8.565   6.156   8.391 -0.4430  1.1418  0.0866
13283SOL     OW40426   3.452   6.116   5.261  0.2004  0.5588  0.1426
13283SOL    HW140427   3.400   6.051   5.308 -1.4418  1.2962 -0.5969
13283SOL    HW240428   3.388   6.169   5.214  1.6362  1.4216 -0.9190
13284SOL     OW40429   5.762   7.213   7.877  0.0795 -0.0579 -0.0984
13284SOL    HW140430   5.833   7.206   7.941  0.8786  0.1628 -0.9238
13284SOL    HW240431   5.807   7.212   7.792 -0.9773 -0.7954 -0.6761
13285SOL     OW40432   8.942   4.084   5.770  0.1350 -0.0372 -0.0250
13285SOL    HW140433   9.004   4.071   5.698  0.2561 -1.3381  0.3013
13285SOL    HW240434   8.994   4.128   5.838  0.3011  0.2100 -0.3038
13286SOL     OW40435   5.118   4.250   4.343  0.7776  0.3985  0.4839
13286SOL    HW140436   5.034   4.269   4.386 -0.0487 -0.6513 -0.5956
13286SOL    HW240437   5.184   4.284   4.404 -0.4367  2.0162  0.9772
13287SOL     OW40438   1.289   1.042   9.606 -0.4488 -0.1388 -0.0158
13287SOL    HW140439   1.253   1.094   9.678  0.0894  1.4153 -0.8345
13287SOL    HW240440   1.287   1.100   9.530  1.5843 -0.7650 -0.6174
13288SOL     OW40441   4.830   3.452   4.296  0.7957 -0.5078 -0.2871
13288SOL    HW140442   4.909   3.442   4.244  1.1071  2.0828 -0.4507
13288SOL    HW240443   4.778   3.518   4.250 -1.2503 -1.7466  0.1014
13289SOL     OW40444   4.799   8.863   7.055 -0.3499 -0.1205 -0.0160
13289SOL    HW140445   4.723   8.806   7.040 -0.6894  0.5623 -0.9752
13289SOL    HW240446   4.794   8.886   7.148 -0.0241 -1.8868  0.4702
13290SOL     OW40447   2.161   2.624   9.583 -0.1151 -0.2117 -0.7467
13290SOL    HW140448   2.091   2.621   9.518 -0.5993 -2.7224 -0.2149
13290SOL    HW240449   2.211   2.544   9.568  1.9039  0.8906 -0.2677
13291SOL     OW40450   8.153   0.420   6.069 -0.0246  0.3559 -0.2550
13291SOL    HW140451   8.200   0.497   6.036  1.6415 -0.4521  0.1164
13291SOL    HW240452   8.091   0.398   6.000  1.1739  0.5858 -1.4343
13292SOL     OW40453   6.500   7.244   0.699 -0.0920  0.0860  0.4728
13292SOL    HW140454   6.587   7.235   0.660 -0.1752 -0.5789  0.4275
13292SOL    HW240455   6.509   7.206   0.786  0.2349  2.0728  1.3482
13293SOL     OW40456   0.495   2.255   2.850  0.0869  0.1671 -0.0289
13293SOL    HW140457   0.421   2.269   2.909 -1.1148 -1.6182 -1.0210
13293SOL    HW240458   0.572   2.277   2.902 -1.0689  1.1579  1.3375
13294SOL     OW40459   2.668   6.271   8.116  0.4378 -0.1629 -0.0462
13294SOL    HW140460   2.595   6.210   8.106  1.4642 -1.6715  1.1683
13294SOL    HW240461   2.734   6.241   8.053  0.2317  0.8817 -0.7822
13295SOL     OW40462   3.084   8.819   3.524 -0.2232 -0.1937 -0.0618
13295SOL    HW140463   3.080   8.914   3.537  1.0337 -0.0546 -0.5341
13295SOL    HW240464   3.162   8.806   3.469 -1.1863 -1.3710 -1.2106
13296SOL     OW40465   4.611   8.126   1.449 -0.6001 -0.1757  0.0648
13296SOL    HW140466   4.580   8.140   1.359  0.3096  2.0950  0.0290
13296SOL    HW240467   4.706   8.124   1.442 -0.4299  1.6291  1.0816
13297SOL     OW40468   6.130   7.603   0.549  0.0446  0.2059  0.4109
13297SOL    HW140469   6.197   7.548   0.590  0.4652  0.8893  0.6462
13297SOL    HW240470   6.086   7.646   0.622 -1.5532 -1.2070  0.3706
13298SOL     OW40471   5.682   7.067   4.927  0.1326  0.0355  0.1069
13298SOL    HW140472   5.643   7.056   5.014 -0.5262 -0.1597 -0.2073
13298SOL    HW240473   5.669   7.160   4.906 -2.1936 -0.4372 -0.9157
13299SOL     OW40474   1.146   3.171   2.142  0.1883 -0.3952  0.0747
13299SOL    HW140475   1.180   3.256   2.169  1.0822 -0.6591 -0.1570
13299SOL    HW240476   1.051   3.182   2.141  0.1740  0.0333  1.9164
13300SOL     OW40477   4.381   6.525   2.625 -0.0545  0.0119  0.3823
13300SOL    HW140478   4.459   6.470   2.624 -0.9703 -1.3701  1.5114
13300SOL    HW240479   4.318   6.478   2.680 -0.6109  2.5877  2.1595
13301SOL     OW40480   5.112   2.989   1.971  0.1533 -0.1754  0.1232
13301SOL    HW140481   5.060   3.068   1.957 -1.1570 -0.8539  0.9688
13301SOL    HW240482   5.125   2.952   1.884 -0.5542  0.1585 -0.1270
13302SOL     OW40483   6.376   6.530   5.143  0.3362  0.1727 -0.1694
13302SOL    HW140484   6.310   6.561   5.205 -0.5622 -2.3380  0.2656
13302SOL    HW240485   6.327   6.517   5.061  1.1936  2.0081 -1.0406
13303SOL     OW40486   9.623   3.125   4.853  0.4078 -0.7101 -0.2245
13303SOL    HW140487   9.528   3.130   4.868  0.6582  1.5241  1.1439
13303SOL    HW240488   9.641   3.032   4.845 -1.6562 -1.3184  1.3217
13304SOL     OW40489   3.312   8.866   7.280 -0.1120 -0.5394 -0.3432
13304SOL    HW140490   3.298   8.771   7.275  1.4501 -0.7925 -0.4085
13304SOL    HW240491   3.245   8.897   7.341 -0.8270 -1.6356 -0.5422
13305SOL     OW40492   3.618   4.958   2.186 -0.3471  0.0065  0.5316
13305SOL    HW140493   3.672   4.993   2.114 -2.6293  1.7459 -0.4895
13305SOL    HW240494   3.556   5.029   2.205 -2.2746 -1.8478  1.5945
13306SOL     OW40495   7.426   8.733   6.896 -0.4376  0.3795 -0.2287
13306SOL    HW140496   7.358   8.668   6.881 -0.7612  0.1911  1.7822
13306SOL    HW240497   7.380   8.817   6.895 -0.4689  0.3625 -0.1867
13307SOL     OW40498   2.819   6.117   7.163  0.0835  0.1597 -0.1699
13307SOL    HW140499   2.867   6.141   7.242 -1.3353 -1.5486  1.2852
13307SOL    HW240500   2.847   6.027   7.144  0.6478  0.6398 -1.8633
13308SOL     OW40501   9.325   3.005   7.451 -0.3376 -0.1986 -0.6978
13308SOL    HW140502   9.285   2.929   7.493  0.9203 -0.1026  0.7925
13308SOL    HW240503   9.254   3.046   7.402 -1.4293 -1.4136 -0.1945
13309SOL     OW40504   9.029   8.953   5.419  0.2116  0.0115 -0.2229
13309SOL    HW140505   9.075   8.948   5.335  0.2340  1.9245 -0.3787
13309SOL    HW240506   9.095   8.985   5.480 -0.2918  0.4759  0.0826
13310SOL     OW40507   2.328   3.919   5.064 -0.2630  0.4406 -0.3650
13310SOL    HW140508   2.419   3.945   5.051 -0.7088  1.4131 -1.7121
13310SOL    HW240509   2.324   3.829   5.032  0.5337 -0.1436  1.1116
13311SOL     OW40510   8.502   8.927   3.470  0.0665  0.5092 -0.9063
13311SOL    HW140511   8.517   8.833   3.469 -0.7041  0.3430  0.6573
13311SOL    HW240512   8.433   8.941   3.405 -0.4919 -0.1354 -0.4617
13312SOL     OW40513   4.929   0.528   6.678  0.0944 -0.0508 -0.3924
13312SOL    HW140514   4.841   0.545   6.644 -0.1372 -1.4864 -0.6000
13312SOL    HW240515   4.927   0.435   6.702  1.7437 -0.2740 -1.0015
13313SOL     OW40516   4.553   2.594   5.816 -0.1241 -0.1587  0.0631
13313SOL    HW140517   4.461   2.585   5.843  0.0911 -2.3597  0.2179
13313SOL    HW240518   4.595   2.639   5.889 -0.9938  0.5582  0.1424
13314SOL     OW40519   1.192   4.235   0.940 -0.3934 -0.3626 -0.7106
13314SOL    HW140520   1.112   4.248   0.991 -1.1065 -3.1465 -0.9380
13314SOL    HW240521   1.162   4.194   0.858  1.1566 -0.4537 -1.2617
13315SOL     OW40522   9.047   8.917   2.815  0.0577 -0.5433 -0.0817
13315SOL    HW140523   9.015   8.877   2.734  0.6794  0.5728 -0.9240
13315SOL    HW240524   9.120   8.972   2.786  0.6402 -0.5475  1.3328
13316SOL     OW40525   4.814   6.016   5.407  0.1267  0.9825 -0.3310
13316SOL    HW140526   4.903   5.996   5.434 -0.2494  2.0263  1.8951
13316SOL    HW240527   4.770   5.931   5.406  0.8874  0.5832 -0.4402
13317SOL     OW40528   2.714   8.377   3.891  0.6249  0.1663 -0.5681
13317SOL    HW140529   2.716   8.287   3.924 -0.9825  0.1540 -0.4517
13317SOL    HW240530   2.732   8.431   3.968 -1.5726  0.0625  0.0828
13318SOL     OW40531   0.579   6.748   3.785  0.0938  0.1041  0.3438
13318SOL    HW140532   0.586   6.808   3.859  0.5803 -1.1415  1.3403
13318SOL    HW240533   0.548   6.803   3.712  0.1696  1.4668  1.3070
13319SOL     OW40534   3.484   8.528   0.276 -0.1172 -0.1418 -0.4920
13319SOL    HW140535   3.571   8.489   0.277 -0.6969 -1.6518 -2.0467
13319SOL    HW240536   3.447   8.508   0.362  1.0103  0.4752  0.1649
13320SOL     OW40537   5.316   2.571   0.467  0.2450 -0.0752 -0.4398
13320SOL    HW140538   5.231   2.578   0.510  0.4466 -1.2441  0.1786
13320SOL    HW240539   5.315   2.485   0.426  1.3622 -0.3515  0.0842
13321SOL     OW40540   5.004   1.753   0.504 -0.6380 -0.2401  0.1059
13321SOL    HW140541   5.097   1.776   0.507 -0.1897 -1.6774 -1.3221
13321SOL    HW240542   4.977   1.777   0.415 -0.8385 -2.5663 -0.5080
13322SOL     OW40543   8.447   0.308   4.748 -0.3613 -0.1638  0.7316
13322SOL    HW140544   8.491   0.265   4.675  0.0136 -0.1046  0.9213
13322SOL    HW240545   8.354   0.290   4.734 -0.2190 -1.0094  0.7866
13323SOL     OW40546   2.143   7.038   2.996  0.0551  0.3303 -0.1232
13323SOL    HW140547   2.188   7.005   2.918  1.0001  1.8406 -0.2580
13323SOL    HW240548   2.121   7.128   2.974  0.2848  0.7652  1.3263
13324SOL     OW40549   9.929   9.286   7.563  0.2654  0.0259 -0.3828
13324SOL    HW140550   9.844   9.271   7.604  0.8822 -0.7674  0.6424
13324SOL    HW240551   9.915   9.361   7.505 -1.2015 -0.2790 -0.4577
13325SOL     OW40552   8.009   6.567   6.262  0.0537  0.0892 -0.0967
13325SOL    HW140553   8.046   6.553   6.175 -1.3842 -0.3986 -0.6629
13325SOL    HW240554   7.983   6.479   6.291 -0.7880  0.4315  0.2125
13326SOL     OW40555   9.820   3.115   9.985  0.1930 -0.6555  0.5877
13326SOL    HW140556   9.810   3.115   9.890  0.8003 -1.0160  0.5200
13326SOL    HW240557   9.792   3.027  10.012  1.2755 -1.0130  0.5965
13327SOL     OW40558   3.425   7.460   2.498  0.0934 -0.3709  0.3952
13327SOL    HW140559   3.448   7.379   2.542  2.0111  0.3812  0.8962
13327SOL    HW240560   3.490   7.523   2.529 -0.5348  1.0223 -0.9841
13328SOL     OW40561   9.834   9.099   9.058  0.3641  0.2003  0.2054
13328SOL    HW140562   9.856   9.006   9.051 -2.3802 -0.4815 -0.6543
13328SOL    HW240563   9.802   9.109   9.148  0.9162  0.3910  0.3835
13329SOL     OW40564   4.374   2.380   1.575 -0.9112 -0.0144 -0.0271
13329SOL    HW140565   4.395   2.288   1.595 -1.2315 -0.2847 -0.8927
13329SOL    HW240566   4.413   2.429   1.647  1.7787 -0.5890 -0.9347
13330SOL     OW40567   0.323   9.092   6.934  0.2393  0.0999  0.2819
13330SOL    HW140568   0.237   9.067   6.967  1.7684 -3.9038  1.8400
13330SOL    HW240569   0.322   9.066   6.842  0.1080 -1.0924  0.6017
13331SOL     OW40570   7.902   8.156   0.639  0.1273  0.3344 -0.2919
13331SOL    HW140571   7.829   8.216   0.657  0.3219  0.6333 -0.5066
13331SOL    HW240572   7.860   8.079   0.599 -0.2618 -0.1331  0.9481
13332SOL     OW40573   6.864   9.970   0.555  0.3226 -0.0889 -0.0456
13332SOL    HW140574   6.935   9.907   0.540 -0.8595 -1.1435 -1.5578
13332SOL    HW240575   6.830   9.989   0.468 -0.1222  1.7921  0.4911
13333SOL     OW40576   2.982   4.681   6.051 -0.0607 -0.3092  0.1049
13333SOL    HW140577   3.049   4.666   5.985 -0.4500  0.2568 -0.4386
13333SOL    HW240578   2.905   4.635   6.018 -0.1971 -0.2020  0.2705
13334SOL     OW40579   7.765   4.223   2.890  0.1508  0.4552 -0.0074
13334SOL    HW140580   7.825   4.155   2.921 -0.5813 -0.2528 -0.1200
13334SOL    HW240581   7.795   4.244   2.801  1.0487  1.0848  0.4222
13335SOL     OW40582   1.463   5.440   7.812 -0.1648 -0.2901  0.1759
13335SOL    HW140583   1.484   5.456   7.903 -0.8485 -0.4865  0.3781
13335SOL    HW240584   1.545   5.411   7.772  0.4208  0.9813  0.4384
13336SOL     OW40585   1.435   7.538   1.707 -0.7576  0.5858 -0.2572
13336SOL    HW140586   1.461   7.446   1.705  1.4026  1.0334  1.7666
13336SOL    HW240587   1.517   7.586   1.698 -1.3309  2.2144  2.1794
13337SOL     OW40588   9.664   2.788   5.327  0.3391 -0.0232 -0.1501
13337SOL    HW140589   9.606   2.716   5.303  2.1881 -1.4612 -0.5003
13337SOL    HW240590   9.718   2.754   5.398  1.2282  1.0288 -0.2906
13338SOL     OW40591   5.921   1.201   4.694 -0.1276 -0.2229  0.1820
13338SOL    HW140592   5.850   1.143   4.720 -0.2717 -0.2667 -0.3070
13338SOL    HW240593   5.979   1.205   4.771 -0.0446 -1.1083  0.1663
13339SOL     OW40594   2.717   1.059   9.748 -0.1576 -0.0231 -0.1505
13339SOL    HW140595   2.765   0.979   9.729  1.3078  0.4098  1.4082
13339SOL    HW240596   2.649   1.033   9.810 -1.4460 -0.4882 -1.7023
13340SOL     OW40597   9.055   2.833   7.362 -0.0122 -0.2238  0.3998
13340SOL    HW140598   9.134   2.780   7.375 -0.6027 -1.0451  0.7763
13340SOL    HW240599   9.034   2.824   7.269  0.3845  0.0683  0.2813
13341SOL     OW40600   2.802   0.980   4.973  0.6361  0.0872 -0.1817
13341SOL    HW140601   2.897   0.986   4.983  0.5356 -0.1291  1.0607
13341SOL    HW240602   2.769   1.061   5.012  0.1754 -1.0921  1.9982
13342SOL     OW40603   8.223   4.920   3.798 -0.7805 -0.6715  0.2272
13342SOL    HW140604   8.153   4.931   3.734 -1.1736 -1.4224  0.5057
13342SOL    HW240605   8.303   4.911   3.746 -0.8876  0.1981 -0.0943
13343SOL     OW40606   8.398   4.632   1.446  0.2811  0.1494  0.4001
13343SOL    HW140607   8.386   4.637   1.541 -0.9990  1.3013  0.2154
13343SOL    HW240608   8.321   4.676   1.410 -0.4273 -2.2856 -1.2597
13344SOL     OW40609   2.310   4.298   3.153 -0.5724 -0.2868  0.3955
13344SOL    HW140610   2.332   4.205   3.153  0.1548 -0.1230  1.1268
13344SOL    HW240611   2.379   4.339   3.205 -2.8845  0.1805  3.3529
13345SOL     OW40612   2.988   9.633   1.198 -0.2078  0.4479  0.0480
13345SOL    HW140613   2.977   9.661   1.108 -1.2590  1.3996  0.4521
13345SOL    HW240614   3.072   9.671   1.225  0.4118 -0.3532 -0.6853
13346SOL     OW40615   2.986   0.818   8.521  0.1943 -0.1385 -0.4726
13346SOL    HW140616   2.977   0.807   8.616  0.7600  1.6367 -0.1774
13346SOL    HW240617   2.949   0.738   8.484 -1.4077 -0.2378  1.1876
13347SOL     OW40618   7.319   2.197   3.787 -0.9820  0.4926 -0.0316
13347SOL    HW140619   7.412   2.218   3.788 -0.3582 -1.9073  2.0858
13347SOL    HW240620   7.312   2.124   3.725 -1.3131  0.2209  0.3193
13348SOL     OW40621   1.690   3.887   8.273 -0.9914 -0.3746  0.1014
13348SOL    HW140622   1.749   3.812   8.279 -0.4384 -0.4495 -3.6213
13348SOL    HW240623   1.674   3.913   8.363  1.4423 -2.9025  1.4042
13349SOL     OW40624   4.980   6.710   4.918  0.0300  0.4293  0.0571
13349SOL    HW140625   4.944   6.799   4.913  0.8594  1.0035  2.5559
13349SOL    HW240626   4.978   6.678   4.828 -4.5699  1.1811 -0.3628
13350SOL     OW40627   9.113   1.230   0.230  0.2544 -0.0843  0.1263
13350SOL    HW140628   9.124   1.174   0.153 -1.0579  1.6087 -1.3513
13350SOL    HW240629   9.019   1.244   0.237  0.3152 -0.3888  2.2230
13351SOL     OW40630   9.284   4.497   2.386 -0.8948 -0.2904  0.1204
13351SOL    HW140631   9.363   4.550   2.386 -1.4394  0.5474 -0.0604
13351SOL    HW240632   9.212   4.561   2.380 -1.5363 -1.0863 -1.2878
13352SOL     OW40633   1.865   4.368   9.555  0.3730 -0.0318 -0.1568
13352SOL    HW140634   1.930   4.434   9.579  0.4368 -0.0557 -0.2605
13352SOL    HW240635   1.906   4.320   9.482 -0.3719  0.9235 -1.2456
13353SOL     OW40636   4.078   6.925   1.136  0.2876  0.2264  0.0692
13353SOL    HW140637   4.046   6.969   1.057  0.4058  0.1855 -0.0022
13353SOL    HW240638   4.032   6.841   1.136 -0.5988  0.7038  0.6786
13354SOL     OW40639   1.285   3.471   3.865  0.3302  0.4428 -0.2088
13354SOL    HW140640   1.344   3.546   3.868 -0.4078  1.0400 -0.1670
13354SOL    HW240641   1.214   3.495   3.926  0.1260 -0.3203 -0.1423
13355SOL     OW40642   8.732   4.304   6.121  0.3946  0.0920 -0.6029
13355SOL    HW140643   8.788   4.292   6.198 -0.2884  0.3696 -0.0412
13355SOL    HW240644   8.694   4.218   6.104 -1.5325  0.5209  1.0574
13356SOL     OW40645   6.187   3.957   6.408 -0.0540 -0.1820 -0.8305
13356SOL    HW140646   6.125   3.950   6.481  0.9946 -0.1720  0.0762
13356SOL    HW240647   6.167   4.042   6.368 -0.1922  0.1215 -0.1337
13357SOL     OW40648   6.341   8.471   7.250 -0.3691  0.4350 -0.2767
13357SOL    HW140649   6.358   8.396   7.307 -1.6593  0.5340  0.2735
13357SOL    HW240650   6.426   8.490   7.210  0.6492  0.4618  1.7232
13358SOL     OW40651   7.505   2.551   2.619 -0.5351  0.3018  0.1540
13358SOL    HW140652   7.504   2.643   2.592  1.4450  0.7196  1.3200
13358SOL    HW240653   7.491   2.502   2.538  2.2257  1.5625 -1.2279
13359SOL     OW40654   0.874   0.073   1.831 -0.1313  0.2213  0.0083
13359SOL    HW140655   0.782   0.087   1.811 -0.1850 -0.3358 -0.1465
13359SOL    HW240656   0.888  -0.021   1.817  0.5691  0.3815 -0.4143
13360SOL     OW40657   5.229   6.167   5.185 -0.2347 -0.0865 -0.1153
13360SOL    HW140658   5.182   6.105   5.130 -1.9045  1.1944 -0.2096
13360SOL    HW240659   5.220   6.251   5.139  0.4419  0.5612  0.8893
13361SOL     OW40660   7.186   5.724   6.190  0.3900 -0.2350  0.6486
13361SOL    HW140661   7.245   5.791   6.155  0.8857 -0.7768  0.4511
13361SOL    HW240662   7.156   5.676   6.114  0.9658 -1.0021  0.8957
13362SOL     OW40663   1.069   6.188   8.928  0.6553 -0.4484 -0.1447
13362SOL    HW140664   1.069   6.281   8.909 -1.2192 -0.8103 -2.3360
13362SOL    HW240665   1.080   6.146   8.843  2.3772 -2.2609  0.8953
13363SOL     OW40666   4.731   5.752   5.906 -0.2305 -0.6097 -0.4337
13363SOL    HW140667   4.811   5.789   5.870 -1.1664  0.9634 -1.0361
13363SOL    HW240668   4.760   5.696   5.978  1.3505  0.6235 -0.0499
13364SOL     OW40669   0.432   3.279   3.645 -0.1862 -0.8067 -0.6175
13364SOL    HW140670   0.487   3.341   3.693  1.3117 -0.2039 -2.9408
13364SOL    HW240671   0.488   3.202   3.631 -0.9467 -1.3940 -0.4969
13365SOL     OW40672   9.270   6.340   7.159  0.4342 -0.1806 -0.1559
13365SOL    HW140673   9.183   6.324   7.195  0.6200 -0.9474 -0.0127
13365SOL    HW240674   9.260   6.321   7.065  0.4771 -0.4047 -0.1160
13366SOL     OW40675   3.719   1.631   5.750 -0.4945 -0.0736 -1.0696
13366SOL    HW140676   3.810   1.658   5.737 -0.3755 -0.4136 -0.9418
13366SOL    HW240677   3.685   1.618   5.661 -0.4562  0.1629 -1.1218
13367SOL     OW40678   6.180   2.347   7.497  0.4417 -0.2582  0.4339
13367SOL    HW140679   6.199   2.416   7.433  0.3407 -0.7300 -0.1190
13367SOL    HW240680   6.155   2.394   7.577 -1.1843  0.3562 -0.3887
13368SOL     OW40681   0.673   8.730   9.280 -0.4868 -0.0199  0.2429
13368SOL    HW140682   0.688   8.645   9.238 -0.2583  0.2795 -0.2973
13368SOL    HW240683   0.760   8.770   9.285 -0.6391  0.3210  0.1856
13369SOL     OW40684   2.867   1.976   7.899  0.2040  0.3082  0.2580
13369SOL    HW140685   2.827   2.054   7.939 -1.7057 -1.2310  1.5689
13369SOL    HW240686   2.792   1.922   7.871  1.4258 -1.3990  0.1093
13370SOL     OW40687   5.012   7.274   8.385 -0.3562 -0.4732  0.1617
13370SOL    HW140688   4.935   7.238   8.429 -0.1621 -0.6973  0.3173
13370SOL    HW240689   4.977   7.319   8.308 -0.6433 -0.5613  0.2414
13371SOL     OW40690   1.913   5.109   9.014 -0.0837  0.0560  0.0453
13371SOL    HW140691   1.949   5.192   8.980  0.9790 -0.3077  0.2435
13371SOL    HW240692   1.981   5.076   9.072 -0.7299 -0.7029  0.3823
13372SOL     OW40693   1.529   3.812   1.505  0.1991 -0.4147  0.4473
13372SOL    HW140694   1.619   3.783   1.487  0.0362 -1.0289  0.5777
13372SOL    HW240695   1.534   3.907   1.506  0.3167 -0.3022 -2.3823
13373SOL     OW40696   2.978   2.328   1.705  0.3177  0.0965 -0.3522
13373SOL    HW140697   3.020   2.332   1.619  0.2115  1.6299 -0.3660
13373SOL    HW240698   2.889   2.360   1.690  0.1388 -0.1109  0.2298
13374SOL     OW40699   0.511   0.039   6.619  0.4633  0.0416 -0.4378
13374SOL    HW140700   0.574   0.026   6.690  1.0333  0.3602 -0.8835
13374SOL    HW240701   0.507  -0.045   6.574  1.3081  0.2968 -1.0043
13375SOL     OW40702   8.372   3.531   8.446 -0.5268  0.3101 -0.6300
13375SOL    HW140703   8.435   3.475   8.403 -0.7468  0.5594 -1.2903
13375SOL    HW240704   8.344   3.593   8.378  0.2960  1.7330  0.2579
13376SOL     OW40705   6.466   2.281   9.249 -0.2159  0.2332 -0.2351
13376SOL    HW140706   6.474   2.377   9.250  1.8368  0.1120 -0.2961
13376SOL    HW240707   6.445   2.260   9.158 -0.1966  0.6024 -0.3280
13377SOL     OW40708   0.650   8.622  -0.007 -0.3590  0.4099 -0.4112
13377SOL    HW140709   0.677   8.606   0.084 -1.0970 -0.6282 -0.3568
13377SOL    HW240710   0.596   8.701  -0.003 -0.0383  0.6132 -0.0179
13378SOL     OW40711   3.077   3.147   9.168  0.2997 -0.1098 -0.2809
13378SOL    HW140712   3.149   3.154   9.231 -1.3678 -2.1040  2.0133
13378SOL    HW240713   3.004   3.193   9.210 -1.0411 -2.0237 -0.4157
13379SOL     OW40714   1.875   1.416   9.213 -0.7593  0.2176  0.5657
13379SOL    HW140715   1.918   1.501   9.220 -0.7283  0.3636 -0.9967
13379SOL    HW240716   1.909   1.378   9.132 -1.3561 -0.9470  0.8371
13380SOL     OW40717   1.635   6.918   8.918  0.3260  0.0651 -0.1866
13380SOL    HW140718   1.549   6.877   8.927 -0.4653  2.1351  2.9832
13380SOL    HW240719   1.628   6.971   8.839 -1.7577  1.0545  0.5912
13381SOL     OW40720   4.332   9.760   4.996  0.0095  0.7314  0.0896
13381SOL    HW140721   4.313   9.783   4.905  1.1539  0.7147 -0.1639
13381SOL    HW240722   4.380   9.678   4.990  1.6988  1.6384  0.5669
13382SOL     OW40723   7.203   2.891   4.766  0.0939 -0.3212 -0.0381
13382SOL    HW140724   7.234   2.941   4.690 -0.6698 -0.8266 -0.6939
13382SOL    HW240725   7.282   2.871   4.815  0.5033  0.8487 -0.1734
13383SOL     OW40726   9.842   4.972   5.853 -0.0911  0.1295 -0.1366
13383SOL    HW140727   9.778   4.978   5.924 -0.3407  2.0221 -0.4672
13383SOL    HW240728   9.925   4.954   5.898 -0.6345 -1.1726  0.3957
13384SOL     OW40729   8.342   0.367   7.984  0.2107 -0.1747 -0.1019
13384SOL    HW140730   8.424   0.321   7.998 -0.1104 -0.8080 -0.2798
13384SOL    HW240731   8.302   0.325   7.908  0.0673  0.6183 -0.4840
13385SOL     OW40732   4.920   8.091   1.482  0.8941 -0.1666  0.4819
13385SOL    HW140733   4.986   8.130   1.539  0.4999  0.9257  0.2362
13385SOL    HW240734   4.904   8.158   1.416 -0.6807 -0.2617  0.7239
13386SOL     OW40735   8.897   6.812   5.830  0.6568 -0.2066  0.0063
13386SOL    HW140736   8.936   6.847   5.911  1.2460 -1.5392  0.3235
13386SOL    HW240737   8.807   6.789   5.854 -0.8358  3.7703 -0.9644
13387SOL     OW40738   4.458   4.509   8.559  0.4668  0.1871  0.1434
13387SOL    HW140739   4.399   4.574   8.598  0.5565 -0.7007  1.8505
13387SOL    HW240740   4.475   4.542   8.471 -1.8392  0.9589 -0.0916
13388SOL     OW40741   7.206   5.306   7.164 -0.5342 -0.0952 -0.0657
13388SOL    HW140742   7.282   5.328   7.219  0.2485 -0.7344 -0.8493
13388SOL    HW240743   7.130   5.326   7.219  0.1604  1.5474  0.3838
13389SOL     OW40744   3.446   1.561   5.769 -0.1464 -0.6475  0.0642
13389SOL    HW140745   3.469   1.477   5.729 -0.0768  0.3393 -2.0783
13389SOL    HW240746   3.528   1.591   5.808 -0.1288 -1.4670  0.6882
13390SOL     OW40747   7.270   2.491   5.337  0.1048 -0.2459 -0.4940
13390SOL    HW140748   7.180   2.513   5.358 -0.4852 -2.0653 -0.8950
13390SOL    HW240749   7.267   2.462   5.246  0.8371 -1.5209 -0.1363
13391SOL     OW40750   2.527   4.425   3.300 -0.1484  0.6393  0.2591
13391SOL    HW140751   2.598   4.477   3.262  1.4714 -0.7001  1.2951
13391SOL    HW240752   2.518   4.459   3.389 -1.2556  1.1932 -0.0452
13392SOL     OW40753   2.115   5.603   7.922 -0.0929  0.0100 -1.1538
13392SOL    HW140754   2.051   5.534   7.939  0.2909  0.2639  1.7992
13392SOL    HW240755   2.150   5.625   8.008  1.5344  2.2425 -2.2902
13393SOL     OW40756   0.356   2.085   5.319  0.2671  0.5659  0.4744
13393SOL    HW140757   0.364   2.180   5.308  3.1465  0.4928  1.1424
13393SOL    HW240758   0.447   2.054   5.321 -0.4856 -1.8400  3.1652
13394SOL     OW40759   3.705   2.172   4.546 -0.9365  0.0774 -0.1798
13394SOL    HW140760   3.630   2.231   4.555 -3.8194 -3.0464 -1.3141
13394SOL    HW240761   3.710   2.154   4.452  1.1606  0.0159 -0.1020
13395SOL     OW40762   7.414   8.168   8.630 -0.3503  0.0347  0.2752
13395SOL    HW140763   7.468   8.196   8.556 -0.5399  0.6258  0.3508
13395SOL    HW240764   7.390   8.078   8.609  0.1620 -0.0330 -0.0501
13396SOL     OW40765   0.118   3.094   0.211 -0.2999  0.0740  0.5321
13396SOL    HW140766   0.102   3.021   0.152 -3.4117  1.8135 -1.0727
13396SOL    HW240767   0.175   3.153   0.161 -1.2140  0.5794  0.0465
13397SOL     OW40768   0.893   7.140   4.707 -0.3120  0.1112  0.5156
13397SOL    HW140769   0.901   7.146   4.803  0.3516 -0.3306  0.4926
13397SOL    HW240770   0.801   7.157   4.690 -0.7689 -1.4038  1.3640
13398SOL     OW40771   7.196   2.472   5.948  0.6634  0.0760  0.2324
13398SOL    HW140772   7.248   2.450   6.025 -0.7971 -1.2011  0.9038
13398SOL    HW240773   7.130   2.533   5.981 -0.3233 -0.9196  0.1362
13399SOL     OW40774   8.766   5.761   6.343  0.9847 -0.0576  0.0224
13399SOL    HW140775   8.690   5.746   6.399  1.6876 -0.5078  0.8943
13399SOL    HW240776   8.828   5.692   6.368  0.8295 -1.0939 -2.2613
13400SOL     OW40777   1.118   6.225   8.629 -0.3179  0.5191 -0.2843
13400SOL    HW140778   1.075   6.274   8.559  0.3907  2.4505  0.5702
13400SOL    HW240779   1.180   6.287   8.667 -0.8440 -0.3848  2.2201
13401SOL     OW40780   0.547   3.297   4.675  0.2408  0.1802  0.1451
13401SOL    HW140781   0.561   3.385   4.640  2.4990 -0.1927 -0.0143
13401SOL    HW240782   0.454   3.295   4.697  0.1107  2.5891  0.1164
13402SOL     OW40783   7.984   1.254   2.124  0.2988 -0.3266 -0.0033
13402SOL    HW140784   8.070   1.252   2.166  0.0566  0.0129  0.5196
13402SOL    HW240785   7.966   1.347   2.112 -0.0347 -0.3940 -0.0264
13403SOL     OW40786   9.866   0.366   9.331  0.0343  0.2328  0.2026
13403SOL    HW140787   9.863   0.376   9.236 -0.3584  1.1564  0.3039
13403SOL    HW240788   9.928   0.433   9.360 -0.3574  0.4049  0.6532
13404SOL     OW40789   5.325   9.516   8.345  0.5419 -0.0861  0.8233
13404SOL    HW140790   5.385   9.526   8.271 -0.7432 -3.7901 -0.9635
13404SOL    HW240791   5.240   9.545   8.311  0.0572 -1.2585  0.9804
13405SOL     OW40792   5.475   2.410   2.512 -0.7617 -0.0707  0.3458
13405SOL    HW140793   5.481   2.349   2.439 -1.0000  0.2390  0.0661
13405SOL    HW240794   5.423   2.483   2.479 -1.2498 -0.1254  0.9563
13406SOL     OW40795   2.828   1.652   4.430 -0.0594 -0.4272  0.2076
13406SOL    HW140796   2.791   1.644   4.519 -0.6175 -2.0997 -0.1235
13406SOL    HW240797   2.752   1.664   4.374  0.3087  0.7936 -0.0428
13407SOL     OW40798   1.386   0.128   8.600  0.2499  0.3757 -0.0300
13407SOL    HW140799   1.441   0.197   8.636  1.1423 -0.2011 -0.2451
13407SOL    HW240800   1.335   0.096   8.675  0.3677  0.7725  0.2218
13408SOL     OW40801   6.399   5.611   7.149 -0.5453 -0.3014  0.3723
13408SOL    HW140802   6.428   5.648   7.066  1.9249  0.0698  1.3181
13408SOL    HW240803   6.383   5.687   7.205  0.7673 -0.5313  1.1190
13409SOL     OW40804   7.749   8.858   6.968  0.1008  0.2632  0.1993
13409SOL    HW140805   7.788   8.827   7.049 -1.5720  1.0116  1.3389
13409SOL    HW240806   7.695   8.933   6.994 -0.5541  0.4626 -1.5859
13410SOL     OW40807   1.085   6.004   1.661 -0.2943  0.3268 -0.3463
13410SOL    HW140808   1.170   6.024   1.702 -0.4321  3.2999 -1.2921
13410SOL    HW240809   1.107   5.964   1.578  0.1307 -0.1723 -0.0003
13411SOL     OW40810   0.648   8.690   6.864 -0.0435  0.0920 -0.0035
13411SOL    HW140811   0.736   8.716   6.835  0.1752  0.2879  0.7895
13411SOL    HW240812   0.640   8.728   6.952 -0.0433 -1.7996  0.8615
13412SOL     OW40813   0.888   0.419   5.553 -0.4828 -0.3803  0.1441
13412SOL    HW140814   0.798   0.431   5.523 -0.3234 -1.4776 -0.8146
13412SOL    HW240815   0.910   0.502   5.595 -0.5603  1.5032 -3.2178
13413SOL     OW40816   3.706   6.129   5.369 -0.3791 -0.3660  0.0635
13413SOL    HW140817   3.611   6.128   5.359 -0.6486 -2.4264  1.9200
13413SOL    HW240818   3.740   6.127   5.280 -1.9956  2.1229 -0.6805
13414SOL     OW40819   0.408   8.046   3.452 -0.0343 -0.1275 -0.1768
13414SOL    HW140820   0.454   8.012   3.529  0.2076 -0.5723 -0.5150
13414SOL    HW240821   0.334   7.986   3.440  0.6517 -0.8078 -1.0447
13415SOL     OW40822   0.331   3.156   5.941  0.0953 -0.4608  0.4730
13415SOL    HW140823   0.326   3.156   5.845  1.6809  0.4940  0.3586
13415SOL    HW240824   0.388   3.081   5.962 -2.6555 -2.5923  0.9103
13416SOL     OW40825   8.587   0.801   7.166 -0.6928  0.5850 -0.2023
13416SOL    HW140826   8.625   0.724   7.124 -0.9294  0.5290 -0.3152
13416SOL    HW240827   8.520   0.832   7.104 -1.7004 -0.0539  0.5346
13417SOL     OW40828   2.796   4.660   3.949  0.1824 -0.4145  0.1518
13417SOL    HW140829   2.722   4.706   3.988  1.7166  1.8732  0.5232
13417SOL    HW240830   2.763   4.630   3.864 -0.9919  1.1677 -0.0047
13418SOL     OW40831   8.704   7.907   4.474  0.3851  0.0671  0.4151
13418SOL    HW140832   8.775   7.869   4.526 -0.2549 -0.1664  1.1338
13418SOL    HW240833   8.742   7.986   4.436  1.8235 -1.3724 -1.3044
13419SOL     OW40834   4.457   8.204   1.661  0.4474  0.8654 -0.3282
13419SOL    HW140835   4.507   8.198   1.580  2.2198  0.6074  0.7175
13419SOL    HW240836   4.523   8.201   1.730 -0.9973  1.0820  1.1367
13420SOL     OW40837   5.301   1.433   7.389 -0.2705  0.6898 -0.4499
13420SOL    HW140838   5.223   1.382   7.410 -1.0483  1.7859 -0.5664
13420SOL    HW240839   5.346   1.444   7.473 -1.1365  1.4590 -0.0624
13421SOL     OW40840   6.662   3.150   3.831  0.1778  0.3689 -0.6867
13421SOL    HW140841   6.729   3.172   3.896  0.2018 -1.3546 -0.0706
13421SOL    HW240842   6.587   3.206   3.853 -0.1040 -0.7389  1.3626
13422SOL     OW40843   5.251   7.823   3.984  0.1283 -0.4512  0.2491
13422SOL    HW140844   5.274   7.730   3.980 -0.3262 -0.7132  2.3425
13422SOL    HW240845   5.299   7.855   4.060  0.6153  1.1591 -0.7030
13423SOL     OW40846   7.139   0.503   5.540 -0.6317 -0.6214  0.1353
13423SOL    HW140847   7.212   0.484   5.480  0.0636 -1.4756  1.2015
13423SOL    HW240848   7.112   0.592   5.516  2.5272  0.8511  1.3948
13424SOL     OW40849   0.829   9.010   5.556  0.3947 -0.6423 -0.2150
13424SOL    HW140850   0.895   8.941   5.564 -0.8137 -1.8609 -0.4559
13424SOL    HW240851   0.784   9.011   5.640  0.2093 -0.3562 -0.3162
13425SOL     OW40852   5.589   2.631   0.415  0.3432 -0.3486  0.2497
13425SOL    HW140853   5.598   2.556   0.356 -0.8894 -0.4877  0.2068
13425SOL    HW240854   5.509   2.613   0.464 -0.0802  1.0174  0.1150
13426SOL     OW40855   5.874   1.484   8.048 -0.2709  0.1827 -0.2227
13426SOL    HW140856   5.852   1.515   8.136  1.3740  1.3428 -0.1825
13426SOL    HW240857   5.966   1.506   8.037 -0.7312  1.2294 -2.6960
13427SOL     OW40858   0.928   9.273   8.496 -0.3854  0.1276  0.4936
13427SOL    HW140859   0.832   9.266   8.495 -0.4520  0.9691 -0.1114
13427SOL    HW240860   0.954   9.229   8.576 -1.2569 -0.4199  0.4962
13428SOL     OW40861   2.895   7.137   9.412 -0.0222  0.1337 -0.4834
13428SOL    HW140862   2.809   7.170   9.437  0.2004 -0.3602  1.0566
13428SOL    HW240863   2.878   7.053   9.370 -0.2262 -0.8474  1.4648
13429SOL     OW40864   4.275   5.446   0.145  0.1266 -0.0479 -0.7959
13429SOL    HW140865   4.297   5.524   0.196  0.2949  0.8637 -2.2019
13429SOL    HW240866   4.263   5.377   0.211  2.3969  0.5605  0.3607
13430SOL     OW40867   7.648   0.566   9.250  0.4321  0.0131  0.2857
13430SOL    HW140868   7.700   0.499   9.296  0.2541 -0.6559 -0.4672
13430SOL    HW240869   7.680   0.562   9.159 -0.7707 -0.2471 -0.1375
13431SOL     OW40870   6.212   1.239   0.558  0.3742 -0.4959  0.3794
13431SOL    HW140871   6.136   1.196   0.518 -0.0724  0.7453 -0.1507
13431SOL    HW240872   6.176   1.290   0.630  0.8008 -0.4395  0.5543
13432SOL     OW40873   3.895   6.551   1.823  0.1727  0.9781 -0.7083
13432SOL    HW140874   3.854   6.588   1.901  0.2476 -0.0784 -0.1437
13432SOL    HW240875   3.847   6.589   1.750 -0.1823  1.6555 -0.1357
13433SOL     OW40876   8.295   4.571   5.761  0.2275  0.0753  0.4081
13433SOL    HW140877   8.324   4.486   5.795 -2.4247 -1.9378 -1.8434
13433SOL    HW240878   8.199   4.564   5.759 -0.0159  2.6372 -1.0483
13434SOL     OW40879   5.843   8.020   7.046 -0.1161  0.4561  0.2429
13434SOL    HW140880   5.872   7.963   7.118  2.8782  0.6449 -0.6610
13434SOL    HW240881   5.887   8.103   7.062  1.0513  0.3525 -1.9719
13435SOL     OW40882   5.837   6.561   9.749  0.0806 -0.2445 -0.1298
13435SOL    HW140883   5.906   6.494   9.757  0.6446  0.2970 -0.3589
13435SOL    HW240884   5.760   6.513   9.718  0.8337 -0.5930 -1.5578
13436SOL     OW40885   0.006   4.799   2.263 -0.3028  0.0397  0.1550
13436SOL    HW140886  -0.005   4.892   2.282 -1.0517 -0.1088  0.5027
13436SOL    HW240887   0.086   4.794   2.210 -0.6485  0.9594 -0.4884
13437SOL     OW40888   7.609   0.601   5.991 -0.3362  0.4793  0.1744
13437SOL    HW140889   7.704   0.612   5.990 -0.4836  1.9995  0.7065
13437SOL    HW240890   7.575   0.679   5.947 -1.3845  0.5574  1.0855
13438SOL     OW40891   7.888   8.765   7.175  0.4620  0.4087  0.3915
13438SOL    HW140892   7.940   8.822   7.118  0.9076  1.3027  1.6438
13438SOL    HW240893   7.926   8.778   7.262 -0.7126 -0.3167  1.0299
13439SOL     OW40894   7.786   7.265   4.081  0.2737 -0.1655  0.2357
13439SOL    HW140895   7.743   7.268   3.995 -1.0983  1.2380  0.9259
13439SOL    HW240896   7.873   7.228   4.062 -0.1955 -0.4335 -1.6545
13440SOL     OW40897   8.886   5.915   7.639  0.1899 -0.3115  0.2234
13440SOL    HW140898   8.904   5.927   7.546 -1.3668  2.5048  0.1906
13440SOL    HW240899   8.805   5.864   7.641 -0.1518  0.2182  0.0101
13441SOL     OW40900   5.352   1.672   1.203  0.1583  0.3066 -0.0409
13441SOL    HW140901   5.437   1.680   1.246  0.2791 -1.0684  0.0024
13441SOL    HW240902   5.299   1.619   1.263  0.1337 -1.1119 -1.2759
13442SOL     OW40903   9.935   9.076   3.665  0.0303  0.0077 -0.2034
13442SOL    HW140904   9.938   9.170   3.650  1.3436 -0.0500 -0.3988
13442SOL    HW240905   9.980   9.064   3.749  1.7170 -0.6061 -1.1476
13443SOL     OW40906   7.860   3.604   4.998 -0.2263 -0.1044  0.5488
13443SOL    HW140907   7.789   3.587   5.060  0.5001 -1.8001  0.9934
13443SOL    HW240908   7.930   3.642   5.051 -1.3986  3.4482 -0.2285
13444SOL     OW40909   2.562   1.536   7.568 -0.0811 -0.3462 -0.0899
13444SOL    HW140910   2.630   1.476   7.598 -0.1955  0.0083  0.9063
13444SOL    HW240911   2.483   1.482   7.566 -0.2157 -0.2014  0.9603
13445SOL     OW40912   7.711   2.027   0.484 -0.0267  0.0014  0.0689
13445SOL    HW140913   7.658   1.949   0.467 -0.7010  0.8115 -1.7626
13445SOL    HW240914   7.749   2.011   0.570  1.2080 -3.1144 -0.8861
13446SOL     OW40915   4.758   2.270   9.626  0.0614 -0.3705 -0.6627
13446SOL    HW140916   4.783   2.198   9.685  1.3300 -1.0926 -2.0129
13446SOL    HW240917   4.841   2.308   9.598 -0.5583  0.6956 -1.0975
13447SOL     OW40918   6.764   2.484   0.515  0.3304 -0.0872  0.4948
13447SOL    HW140919   6.712   2.445   0.585 -0.0359 -2.2320 -0.8988
13447SOL    HW240920   6.703   2.497   0.443  1.4385 -1.7428 -0.8326
13448SOL     OW40921   6.557   4.661   7.465 -0.5550 -0.2659  0.0519
13448SOL    HW140922   6.523   4.572   7.458 -0.3438 -0.3802  0.4712
13448SOL    HW240923   6.638   4.653   7.514  1.3441 -0.3094 -2.8248
13449SOL     OW40924   2.138   6.150   9.586  0.1281 -0.3167 -0.2723
13449SOL    HW140925   2.198   6.075   9.579  1.6688  0.7297  1.0321
13449SOL    HW240926   2.052   6.111   9.599  0.7703 -1.8639 -0.4385
13450SOL     OW40927   8.976   3.061  -0.004  0.5316 -0.2268  0.7339
13450SOL    HW140928   8.916   3.093   0.063  0.9039 -0.8013  1.3494
13450SOL    HW240929   9.045   3.128  -0.008 -0.8333  1.1866 -0.9983
13451SOL     OW40930   8.683   5.453   9.016 -0.2861  0.0000  0.2710
13451SOL    HW140931   8.702   5.546   9.004 -0.5252  0.5307  3.2579
13451SOL    HW240932   8.590   5.449   9.037  0.0931 -0.6203  2.0629
13452SOL     OW40933   0.591   1.121   4.488  0.7626  0.3639  0.2946
13452SOL    HW140934   0.554   1.088   4.570 -1.9322 -0.0004 -0.9622
13452SOL    HW240935   0.515   1.153   4.439  2.3420  0.9956 -1.8793
13453SOL     OW40936   3.656   0.165   8.653  0.2546  0.7181 -0.7102
13453SOL    HW140937   3.626   0.227   8.586 -1.4259  0.4964 -0.2143
13453SOL    HW240938   3.686   0.220   8.725 -2.7779  1.0997  0.4213
13454SOL     OW40939   7.480   6.518   2.841  0.2393  0.2203 -0.7970
13454SOL    HW140940   7.520   6.440   2.802  0.5646  0.3707 -0.7664
13454SOL    HW240941   7.511   6.590   2.786 -0.2262  0.3074 -0.9507
13455SOL     OW40942   7.385   1.034   0.797  0.3435  0.4867 -0.3161
13455SOL    HW140943   7.427   1.049   0.882 -0.6522 -5.7983  1.7971
13455SOL    HW240944   7.307   1.089   0.798  0.3277  0.5694  2.9375
13456SOL     OW40945   9.748   7.183   3.529 -0.7834  0.1579  0.5404
13456SOL    HW140946   9.833   7.140   3.537 -0.3217  0.8064 -0.5521
13456SOL    HW240947   9.684   7.113   3.543 -0.0589 -0.7368 -0.4018
13457SOL     OW40948   5.000   6.292   8.172  0.2038  0.3301  0.0529
13457SOL    HW140949   4.912   6.260   8.192  0.4842 -0.5002 -0.0299
13457SOL    HW240950   5.034   6.231   8.107  0.7166  0.8407 -0.1665
13458SOL     OW40951   8.731   2.427   3.839  0.2618  1.0002  0.8418
13458SOL    HW140952   8.695   2.462   3.920 -2.7209 -2.8887  1.4456
13458SOL    HW240953   8.668   2.452   3.772  0.5281  0.6898  0.4701
13459SOL     OW40954   5.660   5.978   0.912  0.0792  0.0649  0.5033
13459SOL    HW140955   5.700   5.996   0.827 -0.2765 -0.1110  0.2971
13459SOL    HW240956   5.713   6.028   0.974  2.2755 -2.2032  0.6070
13460SOL     OW40957   6.341   3.019   3.226  0.3077 -0.2656 -0.2398
13460SOL    HW140958   6.406   2.951   3.242  0.8830  0.3388  0.0434
13460SOL    HW240959   6.259   2.971   3.212 -0.4450 -0.9814  4.7956
13461SOL     OW40960   5.376   8.809   6.632 -0.7723 -0.2165  0.5159
13461SOL    HW140961   5.282   8.826   6.634 -0.5181  1.2495  2.1833
13461SOL    HW240962   5.416   8.893   6.654  0.9650 -0.7109 -0.5671
13462SOL     OW40963   4.695   5.599   4.247  0.8231  0.4683  0.0122
13462SOL    HW140964   4.783   5.624   4.275  0.6722  1.9733 -0.7490
13462SOL    HW240965   4.708   5.522   4.192  1.5901  0.3058  0.4034
13463SOL     OW40966   4.043   0.065   3.816 -0.3077 -0.3224  0.3361
13463SOL    HW140967   4.105   0.025   3.877 -0.4617  0.6489  1.1603
13463SOL    HW240968   3.964   0.012   3.823  0.0116 -0.8189  0.2207
13464SOL     OW40969   2.841   7.916   1.320 -0.4458 -0.0686  0.3187
13464SOL    HW140970   2.901   7.906   1.246 -0.2163 -1.1637  0.6200
13464SOL    HW240971   2.855   7.836   1.372 -2.2738 -0.4294  0.3181
13465SOL     OW40972   3.228   4.805   0.092  0.0692 -0.4402 -0.0185
13465SOL    HW140973   3.212   4.714   0.068 -0.0206 -0.3366 -0.3640
13465SOL    HW240974   3.323   4.816   0.086  0.1764 -0.7635  0.9595
13466SOL     OW40975   1.868   7.682   0.205 -0.4795  0.1480 -0.1725
13466SOL    HW140976   1.804   7.674   0.134 -0.0077 -0.3193 -0.5562
13466SOL    HW240977   1.952   7.658   0.165  0.1537  1.9148  0.0076
13467SOL     OW40978   4.265   3.788   3.074 -0.0437 -0.4129 -0.0442
13467SOL    HW140979   4.332   3.791   3.143  0.3751  0.1698 -0.4622
13467SOL    HW240980   4.312   3.815   2.995 -0.8274  0.2286 -0.2957
13468SOL     OW40981   4.657   4.751   5.326  0.2168 -0.3739  0.2606
13468SOL    HW140982   4.651   4.656   5.335  0.0960 -0.2530  1.6427
13468SOL    HW240983   4.583   4.775   5.271  0.8603 -1.1828 -0.9880
13469SOL     OW40984   5.995   3.489   5.688 -0.2237 -0.5693 -0.1572
13469SOL    HW140985   6.063   3.509   5.752  0.7543  0.2962 -1.3946
13469SOL    HW240986   6.011   3.398   5.663 -0.5487 -0.8776  0.7209
13470SOL     OW40987   2.359   2.435   9.247  0.4299 -0.3615  0.1742
13470SOL    HW140988   2.366   2.341   9.263  0.3183 -0.4884 -0.4860
13470SOL    HW240989   2.378   2.445   9.154 -1.0175  0.0874 -0.1069
13471SOL     OW40990   0.819   2.237   7.053  0.1494 -0.1119 -0.7224
13471SOL    HW140991   0.834   2.142   7.050  0.4322 -0.0316 -2.7804
13471SOL    HW240992   0.741   2.247   7.107  1.3714 -1.3151  1.4181
13472SOL     OW40993   4.253   0.350   5.867 -0.2032 -0.2125 -0.2157
13472SOL    HW140994   4.344   0.324   5.852  0.8454  3.5158 -1.3336
13472SOL    HW240995   4.204   0.302   5.800  1.1434 -1.0551 -0.6499
13473SOL     OW40996   3.158   8.577   2.466  0.1216  0.4197  0.0626
13473SOL    HW140997   3.210   8.575   2.547 -0.0853 -0.6916  0.1921
13473SOL    HW240998   3.098   8.503   2.475  0.6888 -0.2757 -1.4927
13474SOL     OW40999   9.434   1.004   4.968 -0.0843  0.0426  0.2709
13474SOL    HW141000   9.512   0.954   4.944 -0.9839 -1.5736  0.5099
13474SOL    HW241001   9.467   1.078   5.018  1.3853  0.2325 -0.9224
13475SOL     OW41002   4.208   5.556   4.915  0.1688 -0.1975 -0.3876
13475SOL    HW141003   4.217   5.580   4.823  0.5106 -0.7238 -0.4929
13475SOL    HW241004   4.284   5.501   4.933 -0.0286 -0.2963  0.1467
13476SOL     OW41005   7.407   7.147   2.892  0.2468 -0.1291 -0.2624
13476SOL    HW141006   7.385   7.174   2.981  4.5075  1.2505  0.6071
13476SOL    HW241007   7.383   7.054   2.888  0.8002 -0.4853  2.6851
13477SOL     OW41008   8.515   3.662   5.271 -0.1635  0.2428 -0.2257
13477SOL    HW141009   8.479   3.639   5.185  1.1353 -2.7128 -0.1149
13477SOL    HW241010   8.609   3.644   5.263  0.3053  1.8056  1.2759
13478SOL     OW41011   3.100   5.859   9.675 -0.0872  0.4368  0.4478
13478SOL    HW141012   3.039   5.900   9.737  1.9215  2.3366  1.2969
13478SOL    HW241013   3.175   5.834   9.729  1.7496  2.1931 -1.1522
13479SOL     OW41014   5.069   8.000   7.033 -0.0609  0.5109  0.0754
13479SOL    HW141015   5.010   7.976   7.105 -0.3897 -0.2113 -0.4190
13479SOL    HW241016   5.083   7.918   6.986  0.4720  0.8972 -0.4538
13480SOL     OW41017   1.638   3.295   3.677  0.9937  0.1775 -0.4158
13480SOL    HW141018   1.598   3.214   3.645  2.5496 -1.0624  0.6983
13480SOL    HW241019   1.644   3.284   3.772  2.2715  1.1134 -0.3629
13481SOL     OW41020   4.822   1.030   0.560 -0.5909 -0.4932  0.4266
13481SOL    HW141021   4.861   1.114   0.535 -1.3353  0.1079  1.2074
13481SOL    HW241022   4.868   1.005   0.640 -0.6662 -0.6183  0.4312
13482SOL     OW41023   7.419   9.855   5.140  0.5461 -0.2379  0.1399
13482SOL    HW141024   7.408   9.764   5.112 -0.2223 -0.3360  0.7297
13482SOL    HW241025   7.494   9.854   5.199 -0.8063 -0.9262  1.9421
13483SOL     OW41026   2.108   3.738   9.177  0.7418 -0.2549  0.1578
13483SOL    HW141027   2.188   3.786   9.155  0.6697 -0.7612 -1.3171
13483SOL    HW241028   2.139   3.652   9.207  0.7686 -0.5012 -0.5484
13484SOL     OW41029   2.449   4.215   5.739 -0.0277  0.0035  0.2286
13484SOL    HW141030   2.516   4.147   5.739  0.1863  0.1812  1.8756
13484SOL    HW241031   2.445   4.245   5.830 -3.6186 -1.3144  0.6748
13485SOL     OW41032   1.488   4.816   8.896  0.0715  0.1941 -0.3683
13485SOL    HW141033   1.440   4.871   8.834 -0.0028 -0.0313 -0.5125
13485SOL    HW241034   1.561   4.870   8.925  0.9029 -0.1548 -1.6872
13486SOL     OW41035   0.082   4.896   3.246 -0.2895 -0.7256 -0.2841
13486SOL    HW141036   0.060   4.868   3.157 -1.1179 -2.7106  0.4933
13486SOL    HW241037   0.036   4.834   3.303  0.1693  0.5368  1.5409
13487SOL     OW41038   3.364   9.856   7.762 -0.0668 -0.6990  0.1293
13487SOL    HW141039   3.385   9.944   7.795  1.0949 -0.6269 -0.7022
13487SOL    HW241040   3.292   9.870   7.701  0.7921 -0.1349 -0.7955
13488SOL     OW41041   7.811   8.843   4.863  0.5158 -0.0779 -0.6540
13488SOL    HW141042   7.857   8.777   4.915  0.6183  0.6701  0.2299
13488SOL    HW241043   7.860   8.923   4.878 -0.7394  0.6229 -0.1378
13489SOL     OW41044   7.006   4.314   1.372 -0.1635  0.0542  0.1940
13489SOL    HW141045   7.016   4.222   1.398 -2.4260 -0.4645 -0.5196
13489SOL    HW241046   6.962   4.355   1.447 -2.5789 -0.3900 -0.8905
13490SOL     OW41047   6.057   2.311   8.310  0.3314  0.8439  0.0733
13490SOL    HW141048   6.097   2.331   8.394  1.2568  0.2155 -0.2042
13490SOL    HW241049   6.120   2.255   8.266 -1.1468 -0.7676 -0.1062
13491SOL     OW41050   6.708   1.967   8.840  0.0732 -0.0647 -0.0408
13491SOL    HW141051   6.741   1.877   8.838  0.0204 -0.1999  2.2731
13491SOL    HW241052   6.786   2.021   8.830  0.2196 -0.3670 -0.5647
13492SOL     OW41053   6.511   7.113   2.932 -0.1314  0.7423  0.3964
13492SOL    HW141054   6.598   7.082   2.905 -1.0698 -1.6862 -0.1034
13492SOL    HW241055   6.456   7.095   2.856 -1.8253 -1.4537  2.0227
13493SOL     OW41056   7.650   3.181   2.283 -0.0538  0.4096 -0.1496
13493SOL    HW141057   7.558   3.204   2.265 -0.1059  0.4389  0.1450
13493SOL    HW241058   7.672   3.232   2.361  0.5115  1.1523 -0.7792
13494SOL     OW41059   3.503   4.897   2.927 -0.2707  0.2807 -0.1871
13494SOL    HW141060   3.515   4.966   2.992  1.1399 -0.0282 -0.0838
13494SOL    HW241061   3.485   4.818   2.978 -0.3506  0.2752 -0.2246
13495SOL     OW41062   7.928   7.268   0.600  0.3088  0.6474 -0.6487
13495SOL    HW141063   7.978   7.349   0.588 -0.6201  0.9513 -2.7543
13495SOL    HW241064   7.992   7.198   0.586  1.0582  0.9591  0.9375
13496SOL     OW41065   2.669   1.789   8.969  0.2867 -0.1154 -0.0281
13496SOL    HW141066   2.688   1.714   9.025 -2.5517 -0.0700  1.1353
13496SOL    HW241067   2.653   1.750   8.883  0.7323 -0.6144  0.1072
13497SOL     OW41068   1.068   6.059   2.325 -0.3966  0.0743 -0.1078
13497SOL    HW141069   1.078   5.966   2.343 -3.1725 -0.2135  0.2624
13497SOL    HW241070   1.126   6.075   2.250  2.1997 -1.2829  1.4691
13498SOL     OW41071   6.928   1.114   7.202 -0.4259 -0.7246 -0.1084
13498SOL    HW141072   7.008   1.129   7.151  0.0484 -1.8332  0.2933
13498SOL    HW241073   6.942   1.031   7.246 -1.5704 -0.6514  0.4384
13499SOL     OW41074   0.913   1.039   4.129  0.2981  0.0119 -0.5249
13499SOL    HW141075   1.006   1.022   4.144  0.2787 -0.4728 -0.9340
13499SOL    HW241076   0.909   1.130   4.100  0.6606 -0.0117 -0.6516
13500SOL     OW41077   5.258   1.266   2.385  0.1244  0.1716 -0.3298
13500SOL    HW141078   5.243   1.183   2.339 -0.8588 -1.2823  2.3665
13500SOL    HW241079   5.170   1.299   2.402  0.4987  1.3238 -0.5724
13501SOL     OW41080   3.590   4.935   1.369 -0.1146  0.1289 -0.5639
13501SOL    HW141081   3.577   4.993   1.444 -0.6050  0.8488 -1.1953
13501SOL    HW241082   3.561   4.849   1.401 -0.4520  0.4560  0.0302
13502SOL     OW41083   2.467   7.623   5.623  0.7477  0.5065 -0.2910
13502SOL    HW141084   2.534   7.554   5.621 -0.6003 -0.8983 -3.5867
13502SOL    HW241085   2.516   7.704   5.609  1.9715 -0.2360 -0.4754
13503SOL     OW41086   6.787   2.276   6.181 -0.2847  0.5382 -0.2094
13503SOL    HW141087   6.767   2.269   6.088 -0.0411 -1.2756 -0.1619
13503SOL    HW241088   6.718   2.225   6.224 -0.0415  0.8329  0.5541
13504SOL     OW41089   2.136   4.485   5.364 -0.1964  0.0009  0.2557
13504SOL    HW141090   2.194   4.495   5.288 -0.0897 -0.2145  0.3090
13504SOL    HW241091   2.177   4.417   5.417 -0.8390 -0.6032 -0.0212
13505SOL     OW41092   2.113   9.158   1.391 -0.1665  0.0644  0.1970
13505SOL    HW141093   2.101   9.063   1.393 -0.7736  0.0913 -1.1932
13505SOL    HW241094   2.182   9.174   1.455 -1.0587 -1.1439  1.5553
13506SOL     OW41095   8.823   5.694   3.619 -0.2247  0.1700 -0.4180
13506SOL    HW141096   8.881   5.656   3.685 -1.4768  0.8779  1.1621
13506SOL    HW241097   8.763   5.623   3.596 -0.6775  0.3106  0.2950
13507SOL     OW41098   7.413   2.256   2.715  0.2216  0.5868 -0.3309
13507SOL    HW141099   7.445   2.191   2.653 -1.1629  0.6190 -1.1157
13507SOL    HW241100   7.372   2.324   2.661 -0.8143  0.7259  0.5764
13508SOL     OW41101   8.212   1.928   2.821  0.4789  0.0645  0.0633
13508SOL    HW141102   8.307   1.914   2.826  0.5350  0.1207 -0.7876
13508SOL    HW241103   8.203   2.022   2.806  0.3489 -0.1833 -1.4854
13509SOL     OW41104   3.809   6.622   4.750  0.1735  0.1269  0.2844
13509SOL    HW141105   3.881   6.681   4.772 -0.2156  2.5640 -3.8116
13509SOL    HW241106   3.846   6.535   4.754  2.5634  1.0936  0.8723
13510SOL     OW41107   2.223   9.442   0.520 -0.3337 -0.1188 -0.2680
13510SOL    HW141108   2.160   9.439   0.448  0.5271 -0.3487 -1.0293
13510SOL    HW241109   2.248   9.350   0.533 -1.5575 -0.2594  1.3067
13511SOL     OW41110   4.049   4.462   1.235 -0.5787 -0.1512 -0.0523
13511SOL    HW141111   3.977   4.525   1.242 -2.4248 -2.2874  2.6012
13511SOL    HW241112   4.019   4.398   1.170 -0.0674  0.0672 -0.5152
13512SOL     OW41113   0.272   5.740   2.700 -0.2164  0.3752  0.0575
13512SOL    HW141114   0.259   5.664   2.757 -0.4736  2.0249  2.3305
13512SOL    HW241115   0.366   5.759   2.708 -0.1534  0.3150 -0.5116
13513SOL     OW41116   3.228   5.260   9.542 -0.0360  0.0896  0.0599
13513SOL    HW141117   3.231   5.246   9.637  1.0276 -1.1934 -0.1329
13513SOL    HW241118   3.188   5.180   9.508 -0.1688  0.4312 -0.5967
13514SOL     OW41119   4.832   0.267   7.166  0.5783  0.1985  0.2183
13514SOL    HW141120   4.765   0.213   7.124  1.0824 -1.1555  1.1135
13514SOL    HW241121   4.793   0.293   7.249  0.8263  0.1206  0.3607
13515SOL     OW41122   8.384   3.412   4.227  0.5293  0.1423 -0.5001
13515SOL    HW141123   8.292   3.415   4.204  0.7459 -0.6761 -1.5745
13515SOL    HW241124   8.389   3.452   4.314 -1.1884 -1.9414  0.6577
13516SOL     OW41125   7.682   1.700   0.723  0.3424  0.0530 -0.1659
13516SOL    HW141126   7.667   1.720   0.630  1.3784  2.1672  0.0582
13516SOL    HW241127   7.598   1.720   0.765 -0.5700 -2.2361 -0.7696
13517SOL     OW41128   5.928   9.417   6.384 -0.3601 -0.0381 -0.4846
13517SOL    HW141129   5.956   9.496   6.337  0.7253  0.0328  0.2364
13517SOL    HW241130   5.962   9.345   6.332  1.9728  0.0477  0.7390
13518SOL     OW41131   4.323   1.957   4.553 -0.0528 -0.0879 -1.2148
13518SOL    HW141132   4.291   2.029   4.498 -0.1423  0.1534 -0.8533
13518SOL    HW241133   4.261   1.954   4.626  2.3930  2.4711  1.2192
13519SOL     OW41134   8.603   0.749   2.080  0.1428  0.2952  0.0163
13519SOL    HW141135   8.629   0.732   2.170  0.9752  0.3048 -0.2132
13519SOL    HW241136   8.591   0.844   2.076 -0.0887  0.2734  0.1629
13520SOL     OW41137   6.115   2.212   9.111  1.3215  0.6157  0.1434
13520SOL    HW141138   6.070   2.133   9.081  1.7285  0.1599  0.7273
13520SOL    HW241139   6.052   2.282   9.094  1.6289  0.4354 -2.0327
13521SOL     OW41140   5.895   8.334   5.392  0.3953 -0.1414 -0.0421
13521SOL    HW141141   5.919   8.241   5.400  1.2750  0.1296  0.7118
13521SOL    HW241142   5.946   8.366   5.318  2.4816  0.4163  1.5138
13522SOL     OW41143   8.671   6.466   9.193 -1.0641 -0.2344 -0.0696
13522SOL    HW141144   8.715   6.497   9.114  0.0512  0.4863  0.8022
13522SOL    HW241145   8.644   6.545   9.239  2.9217 -0.2458  2.8088
13523SOL     OW41146   5.477   4.512   0.492 -0.2318  0.1318  0.1637
13523SOL    HW141147   5.405   4.496   0.553 -1.7287  1.1228 -1.2494
13523SOL    HW241148   5.436   4.554   0.417  1.8610  0.8268 -0.6770
13524SOL     OW41149   9.066   0.259   7.878  0.5241  0.1632  0.1620
13524SOL    HW141150   9.023   0.217   7.803  0.2984  0.0639  0.3481
13524SOL    HW241151   8.998   0.266   7.944  0.9802 -0.6456  0.7241
13525SOL     OW41152   1.173   6.016   8.386  0.0063 -0.4038  0.3776
13525SOL    HW141153   1.103   6.082   8.390  0.1888 -0.2515  1.0609
13525SOL    HW241154   1.172   5.974   8.472  1.1098 -0.0371  0.5796
13526SOL     OW41155   7.748   5.712   1.064  0.2231  0.1170  0.0212
13526SOL    HW141156   7.754   5.749   1.152 -0.8388  0.9745 -0.2559
13526SOL    HW241157   7.821   5.752   1.017 -0.0741  0.7860  0.1151
13527SOL     OW41158   6.152   9.496   9.778  0.5593  0.5234  0.1431
13527SOL    HW141159   6.198   9.579   9.778  1.0613  0.2940 -1.6453
13527SOL    HW241160   6.068   9.515   9.737  0.4854  0.2445  0.1597
13528SOL     OW41161   4.195   4.239   0.625 -0.2394 -0.1707 -0.4283
13528SOL    HW141162   4.136   4.280   0.562  2.0433  1.5272 -1.6376
13528SOL    HW241163   4.268   4.208   0.572  2.4479  2.5410  1.3585
13529SOL     OW41164   2.853   2.916   6.918 -0.2059  0.7951 -0.4258
13529SOL    HW141165   2.758   2.919   6.903 -0.3001  1.2488  0.2438
13529SOL    HW241166   2.863   2.867   6.999 -0.0065  2.3871  0.5627
13530SOL     OW41167   5.271   2.001   4.623 -0.5240 -0.2312 -0.1322
13530SOL    HW141168   5.202   2.067   4.621 -0.4699 -0.0973  1.2850
13530SOL    HW241169   5.342   2.039   4.570 -0.8292  0.4505 -0.0630
13531SOL     OW41170   5.623   8.164   8.716 -0.2098  0.1824 -0.2400
13531SOL    HW141171   5.710   8.125   8.727 -0.9984 -2.4083 -1.9560
13531SOL    HW241172   5.595   8.186   8.804  3.1558  3.7085  0.1975
13532SOL     OW41173   2.885   0.165   0.477 -0.0364 -0.2255 -0.1394
13532SOL    HW141174   2.843   0.203   0.400  1.4462 -1.9775 -1.9399
13532SOL    HW241175   2.833   0.087   0.496 -0.6697  0.4448  0.9791
13533SOL     OW41176   7.647   8.301   0.356  0.4958  0.4204 -0.3461
13533SOL    HW141177   7.663   8.379   0.302  0.1658  0.2723 -0.6577
13533SOL    HW241178   7.665   8.227   0.298  0.8026  0.2581 -0.0527
13534SOL     OW41179   1.314   6.934   8.305 -0.1663 -0.2872  0.5881
13534SOL    HW141180   1.303   7.012   8.249  0.0976 -1.4594 -1.1790
13534SOL    HW241181   1.231   6.927   8.352 -0.9199  0.0160 -0.6347
13535SOL     OW41182   1.094   4.019   2.720  0.3887 -0.1678  0.0595
13535SOL    HW141183   1.189   4.026   2.712  0.5118 -1.6727 -0.0243
13535SOL    HW241184   1.073   4.062   2.803  1.4717 -2.1859  1.4360
13536SOL     OW41185   6.619   3.818   1.916 -0.1779 -0.0139 -0.3383
13536SOL    HW141186   6.638   3.729   1.887  1.0979 -0.0852  0.6135
13536SOL    HW241187   6.602   3.810   2.010 -0.0953  0.7322 -0.2495
13537SOL     OW41188   1.505   7.498   0.843 -0.2998  0.3611  0.2251
13537SOL    HW141189   1.498   7.452   0.927 -2.2384  0.8302  0.3545
13537SOL    HW241190   1.590   7.542   0.847 -1.4810  2.6969  3.1977
13538SOL     OW41191   1.180   0.932   4.137  0.2472 -0.5829 -0.5586
13538SOL    HW141192   1.224   0.925   4.053  1.5734  1.3421 -0.0796
13538SOL    HW241193   1.250   0.928   4.202 -0.6499 -1.0024  0.4140
13539SOL     OW41194   8.529   3.819   1.388 -0.3035 -0.0720  0.0458
13539SOL    HW141195   8.513   3.889   1.451  1.6667  3.3877 -2.8655
13539SOL    HW241196   8.588   3.858   1.324 -1.4191 -3.5258 -3.5037
13540SOL     OW41197   2.564   0.652   4.150  0.2403  0.1573 -0.1446
13540SOL    HW141198   2.544   0.590   4.220  0.6116 -0.8246 -0.8861
13540SOL    HW241199   2.627   0.713   4.188 -1.4405  1.1754  1.1435
13541SOL     OW41200   0.669   4.655   2.806 -0.1908  0.1980  0.7675
13541SOL    HW141201   0.620   4.653   2.723  0.1746 -1.2098  0.5681
13541SOL    HW241202   0.720   4.736   2.801  0.2532 -0.1375 -0.6468
13542SOL     OW41203   8.000   0.732   8.139 -0.1927 -0.1196  0.0676
13542SOL    HW141204   8.029   0.654   8.092  0.9527 -1.5014  2.8788
13542SOL    HW241205   7.910   0.713   8.165 -0.4345  0.1780 -0.5131
13543SOL     OW41206   4.892   8.742   7.906  0.0813  0.1470 -0.0710
13543SOL    HW141207   4.936   8.682   7.847 -0.1159  1.1302 -1.2616
13543SOL    HW241208   4.861   8.813   7.850 -2.3435 -0.1030  0.8216
13544SOL     OW41209   4.436   3.153   1.250  0.4495 -0.2581 -0.0786
13544SOL    HW141210   4.352   3.113   1.270  0.8963 -0.9134  0.5511
13544SOL    HW241211   4.446   3.223   1.315 -0.9553  1.9028 -2.0138
13545SOL     OW41212   8.854   9.822   2.930  0.2992 -0.4839  0.0740
13545SOL    HW141213   8.819   9.736   2.906 -0.4305  0.1196 -1.1375
13545SOL    HW241214   8.809   9.846   3.010 -2.4773  0.4415 -1.6313
13546SOL     OW41215   4.209   6.169   8.632 -0.1396  0.4105 -0.2452
13546SOL    HW141216   4.255   6.089   8.656 -1.3779 -0.5524 -1.0275
13546SOL    HW241217   4.117   6.151   8.649 -0.2948  2.4532  1.7003
13547SOL     OW41218   3.861   2.026   5.935 -0.0991  0.2875 -0.3012
13547SOL    HW141219   3.850   1.984   5.850 -0.0227  0.8354 -0.5917
13547SOL    HW241220   3.841   2.119   5.918 -2.4893  0.0615  0.7537
13548SOL     OW41221   5.333   1.091   1.156  0.5920 -0.0136 -0.6007
13548SOL    HW141222   5.318   1.185   1.162  0.7654 -0.0678  1.3061
13548SOL    HW241223   5.357   1.064   1.245  1.7408 -1.6685 -1.3517
13549SOL     OW41224   0.539   2.245   5.687  0.0434  0.3495 -0.3184
13549SOL    HW141225   0.599   2.188   5.735  1.1242  1.2317 -0.5948
13549SOL    HW241226   0.510   2.191   5.613 -0.7336 -0.6079  0.6424
13550SOL     OW41227   8.540   7.681   2.179 -0.2556 -0.1365  0.0007
13550SOL    HW141228   8.505   7.740   2.246  0.3248 -1.0258  1.1330
13550SOL    HW241229   8.615   7.729   2.143  0.2633 -0.1862  0.9681
13551SOL     OW41230   0.319   7.517   8.118  0.1646 -0.0491  0.2911
13551SOL    HW141231   0.297   7.480   8.032 -3.0545 -0.4569  1.1380
13551SOL    HW241232   0.338   7.609   8.101 -0.5116 -0.1027 -0.8803
13552SOL     OW41233   7.703   3.856   1.210 -0.3529  0.1765 -0.3859
13552SOL    HW141234   7.636   3.788   1.204 -0.2793  0.1740 -1.2701
13552SOL    HW241235   7.705   3.896   1.123  1.2352 -0.2469 -0.5824
13553SOL     OW41236   1.093   7.975   4.640 -0.3845 -0.1956  0.1938
13553SOL    HW141237   1.016   8.032   4.644  1.4571  2.7793 -2.3997
13553SOL    HW241238   1.062   7.897   4.594 -1.9637  0.7610 -0.4693
13554SOL     OW41239   9.269   0.646   1.202  0.6148  0.5932 -0.0709
13554SOL    HW141240   9.242   0.692   1.122 -0.0001 -1.4376 -1.0917
13554SOL    HW241241   9.189   0.606   1.235  1.2698 -0.4697  0.2849
13555SOL     OW41242   9.183   5.902   8.507 -0.0124  1.0187  0.7499
13555SOL    HW141243   9.169   5.981   8.454 -1.0410  0.0977 -0.4112
13555SOL    HW241244   9.217   5.838   8.445 -2.1779 -0.3912  0.9227
13556SOL     OW41245   2.794   1.374   2.527  0.2640 -1.0351  0.1056
13556SOL    HW141246   2.704   1.344   2.539 -0.4557  1.1120  0.4552
13556SOL    HW241247   2.795   1.415   2.441  0.6600 -0.2184  0.4918
13557SOL     OW41248   2.505   2.655   3.388 -0.5849 -0.1630 -0.8365
13557SOL    HW141249   2.590   2.662   3.344 -1.8718  0.2562 -3.4646
13557SOL    HW241250   2.521   2.684   3.477  2.1262 -0.5929 -1.1084
13558SOL     OW41251   7.172   2.743   4.226  0.1755 -0.5733 -0.2540
13558SOL    HW141252   7.174   2.671   4.162 -0.0797  0.1413 -1.0853
13558SOL    HW241253   7.263   2.752   4.254  0.2225 -1.1742 -0.1934
13559SOL     OW41254   6.193   2.044   3.956 -0.2526  0.0240  0.0184
13559SOL    HW141255   6.239   1.979   4.010 -1.3520  0.3057  1.3612
13559SOL    HW241256   6.101   2.029   3.975 -0.5540  1.5758 -0.1377
13560SOL     OW41257   5.013   0.669   7.686 -0.1527 -0.5509  0.1664
13560SOL    HW141258   5.085   0.727   7.661 -0.4874 -0.5449 -0.8314
13560SOL    HW241259   4.943   0.728   7.714 -0.3956 -0.4751 -0.5843
13561SOL     OW41260   8.505   3.194   6.367 -0.0208  0.0394  0.2028
13561SOL    HW141261   8.601   3.194   6.369  0.0268 -0.0119 -0.9927
13561SOL    HW241262   8.478   3.176   6.457  1.0998 -0.7671  0.3873
13562SOL     OW41263   0.900   2.639   1.870 -0.0235 -0.2169  0.4287
13562SOL    HW141264   0.978   2.691   1.849 -0.9506  0.3485 -1.9733
13562SOL    HW241265   0.934   2.551   1.885  1.1279  0.0345 -0.4959
13563SOL     OW41266   1.650   7.151   8.725  0.2835  0.2067 -0.1480
13563SOL    HW141267   1.690   7.211   8.788 -0.3629  1.9043 -1.2838
13563SOL    HW241268   1.683   7.180   8.640 -2.0206  0.6333 -0.9633
13564SOL     OW41269   7.691   7.901   2.872  0.3435  0.4138  0.5326
13564SOL    HW141270   7.751   7.976   2.862  0.3386  0.3089 -0.3731
13564SOL    HW241271   7.604   7.939   2.865  0.3476  0.2504 -0.6228
13565SOL     OW41272   4.118   5.338   1.255 -0.5967  0.3997 -0.2183
13565SOL    HW141273   4.065   5.269   1.294  0.3979 -0.4169 -0.2518
13565SOL    HW241274   4.193   5.292   1.218 -0.4608  1.3941 -1.2218
13566SOL     OW41275   1.075   6.945   8.423  0.1228 -0.1181  0.1596
13566SOL    HW141276   0.983   6.957   8.402 -0.0318 -0.3448  0.7134
13566SOL    HW241277   1.078   6.866   8.477  0.8843 -1.4490 -1.7141
13567SOL     OW41278   5.526   6.713   1.136  0.7412  0.0054 -0.5441
13567SOL    HW141279   5.450   6.767   1.112 -1.1371 -1.4417  1.7175
13567SOL    HW241280   5.523   6.639   1.076 -0.0751 -0.3819 -0.0403
13568SOL     OW41281   1.500   5.579   1.268  0.1725  0.1396 -0.5590
13568SOL    HW141282   1.542   5.562   1.353 -1.8861 -0.8952  0.3115
13568SOL    HW241283   1.552   5.650   1.230  2.0135 -0.3215  0.9187
13569SOL     OW41284   8.452   4.549   3.277 -0.0691 -0.1038  0.0142
13569SOL    HW141285   8.437   4.583   3.366 -0.3198 -0.6363  0.1858
13569SOL    HW241286   8.546   4.532   3.273 -0.0520 -0.0510  0.1715
13570SOL     OW41287   9.694   2.725   9.538  0.2031 -1.0282  0.3088
13570SOL    HW141288   9.638   2.773   9.598  0.4744 -1.6622  1.0833
13570SOL    HW241289   9.635   2.663   9.494  0.3931 -2.2598  1.7061
13571SOL     OW41290   7.221   8.951   0.409 -0.1513 -0.3861 -0.6026
13571SOL    HW141291   7.169   8.894   0.351 -1.3994  1.9717 -1.9851
13571SOL    HW241292   7.304   8.963   0.362  0.1916 -1.1881 -0.2138
13572SOL     OW41293   9.809   4.447   3.390  0.3023 -0.5710 -0.1485
13572SOL    HW141294   9.725   4.458   3.436  0.8372 -1.1423  0.9916
13572SOL    HW241295   9.826   4.354   3.393  0.8787 -0.4823 -0.5892
13573SOL     OW41296   4.326   3.032   0.740 -0.2875  0.0410  0.0959
13573SOL    HW141297   4.275   3.103   0.779 -0.7054 -0.0401 -0.2997
13573SOL    HW241298   4.263   2.962   0.724  0.1122 -0.3984  0.4164
13574SOL     OW41299   6.182   7.304   5.669 -0.1387  0.6052  0.0408
13574SOL    HW141300   6.193   7.350   5.752 -1.3990 -1.9221  1.7735
13574SOL    HW241301   6.262   7.251   5.660 -0.5658 -0.1074  0.3566
13575SOL     OW41302   5.106   5.210   1.182  0.0758 -0.1942  0.0157
13575SOL    HW141303   5.183   5.201   1.125 -0.5693  0.0386 -0.9090
13575SOL    HW241304   5.091   5.305   1.186  0.1303 -0.2030  0.6153
13576SOL     OW41305   2.200   4.536   2.313  0.1151  0.0438 -0.0926
13576SOL    HW141306   2.207   4.591   2.235 -0.4726 -0.1666 -0.2973
13576SOL    HW241307   2.180   4.449   2.279 -1.4123  0.1936  0.3334
13577SOL     OW41308   4.014   0.171   9.785 -0.9477 -0.1514 -0.4406
13577SOL    HW141309   4.017   0.086   9.828  2.0028  0.3085  0.5287
13577SOL    HW241310   4.081   0.166   9.717  0.9381  1.9820  1.0878
13578SOL     OW41311   6.126   5.471   3.055 -0.0477 -0.4149  0.4473
13578SOL    HW141312   6.124   5.398   2.993  1.2781  1.2407 -1.7474
13578SOL    HW241313   6.219   5.495   3.060 -0.4527  1.1530  1.0237
13579SOL     OW41314   3.589   2.465   1.437 -0.0962  0.0316 -0.1926
13579SOL    HW141315   3.645   2.388   1.446 -1.3907 -0.9222 -0.0476
13579SOL    HW241316   3.605   2.495   1.347  1.7118  0.6692  0.3027
13580SOL     OW41317   6.242   1.362   5.074  0.0151 -0.4409  0.9949
13580SOL    HW141318   6.258   1.329   5.162  1.0968  0.8877  1.3255
13580SOL    HW241319   6.321   1.341   5.025  1.1090  2.2157  1.4271
13581SOL     OW41320   7.858   9.049   3.328  0.7927  0.3517 -0.0304
13581SOL    HW141321   7.773   9.074   3.294 -0.1185 -1.2510  0.9532
13581SOL    HW241322   7.895   8.991   3.261  2.2026  2.8122 -1.5491
13582SOL     OW41323   8.287   3.372   6.673 -0.1107 -0.1221 -0.2517
13582SOL    HW141324   8.288   3.461   6.707  2.7664  0.0102 -0.4413
13582SOL    HW241325   8.246   3.320   6.743 -0.1182  1.0912  0.6712
13583SOL     OW41326   8.075  -0.014   7.592 -0.7252 -0.5143  0.1281
13583SOL    HW141327   8.075  -0.006   7.687  0.1299  0.4242  0.0643
13583SOL    HW241328   8.073   0.076   7.560  0.5364 -0.7617 -0.7364
13584SOL     OW41329   4.157   1.756   2.675 -0.3029  0.2410 -0.5517
13584SOL    HW141330   4.170   1.850   2.662  0.9945  0.2663  0.7038
13584SOL    HW241331   4.222   1.715   2.619 -0.5400  0.1001 -0.7254
13585SOL     OW41332   2.104   5.691   9.782 -0.4411  0.3963  0.0142
13585SOL    HW141333   2.065   5.613   9.821  2.9070 -0.3303  2.3058
13585SOL    HW241334   2.155   5.659   9.708 -2.2807  1.0559 -1.6212
13586SOL     OW41335   0.936   5.224   4.327  0.4704  0.3124 -0.0621
13586SOL    HW141336   0.864   5.258   4.381 -0.2271 -1.1216 -0.0437
13586SOL    HW241337   0.908   5.243   4.237 -0.9040 -1.9083 -0.1756
13587SOL     OW41338   3.618   8.966   8.537  0.3011  0.5004 -0.2382
13587SOL    HW141339   3.648   9.005   8.619  0.8692 -1.0317  0.3252
13587SOL    HW241340   3.549   9.024   8.506 -0.2583  0.8524  1.5838
13588SOL     OW41341   7.980   4.645   8.932 -0.3532 -0.0966  0.1104
13588SOL    HW141342   7.926   4.586   8.985  0.4990 -0.6624  0.3899
13588SOL    HW241343   7.952   4.733   8.957 -1.6226 -0.3755 -0.2836
13589SOL     OW41344   6.458   0.809   9.189 -0.3182  0.7119  0.6178
13589SOL    HW141345   6.515   0.805   9.113 -0.7885 -2.0304  0.3133
13589SOL    HW241346   6.371   0.829   9.153 -0.8297 -1.9965  0.1485
13590SOL     OW41347   1.862   0.978   3.858 -0.0927 -0.1128  0.0603
13590SOL    HW141348   1.776   1.016   3.838  0.5515  1.0967 -0.5122
13590SOL    HW241349   1.869   0.982   3.954 -0.4460  0.3043  0.0701
13591SOL     OW41350   2.259   7.489   6.660 -0.3137 -0.0724 -0.0803
13591SOL    HW141351   2.318   7.435   6.714 -0.2559  0.5903  0.5328
13591SOL    HW241352   2.304   7.572   6.650 -0.1369 -0.3110 -1.5237
13592SOL     OW41353   0.121   3.291   4.806 -0.4895 -0.2566 -0.7177
13592SOL    HW141354   0.147   3.327   4.721  1.9942  1.4768  0.6328
13592SOL    HW241355   0.092   3.368   4.856 -3.4378 -1.4496 -0.4054
13593SOL     OW41356   6.101   9.772   0.584 -0.0190  0.5621 -0.2269
13593SOL    HW141357   6.117   9.823   0.505 -0.2066 -1.3724 -1.6056
13593SOL    HW241358   6.134   9.826   0.656 -1.2241  3.0646 -1.4282
13594SOL     OW41359   2.824   1.596   9.812  0.3634  0.1474  0.1658
13594SOL    HW141360   2.786   1.538   9.745  1.6785  0.4429 -0.8740
13594SOL    HW241361   2.919   1.588   9.800  0.5950  2.4311  0.0378
13595SOL     OW41362   1.101   7.659   6.253 -0.0652 -0.5700  0.2902
13595SOL    HW141363   1.039   7.700   6.192  0.8891  0.7090  0.1432
13595SOL    HW241364   1.054   7.582   6.286 -1.9542  0.6397  0.5986
13596SOL     OW41365   0.559   4.422   9.803 -0.0908 -0.1209  0.1883
13596SOL    HW141366   0.537   4.474   9.881 -1.5083 -0.5052  0.0681
13596SOL    HW241367   0.645   4.384   9.824 -0.3935 -0.1365  1.5263
13597SOL     OW41368   3.746   9.035   0.628  0.0180  0.0507  0.8201
13597SOL    HW141369   3.795   9.001   0.553 -1.3895 -1.5257  0.5600
13597SOL    HW241370   3.807   9.027   0.701  2.0137  3.1018 -0.3011
13598SOL     OW41371   5.933   1.883   7.779  0.2219 -0.4978 -0.2553
13598SOL    HW141372   5.946   1.969   7.740 -0.2555 -0.6157 -0.6886
13598SOL    HW241373   5.998   1.878   7.850  0.0325  0.3378 -0.0202
13599SOL     OW41374   2.445   2.752   2.967  0.3461  0.1800 -0.0458
13599SOL    HW141375   2.485   2.834   2.993 -0.4426  0.3189  0.7710
13599SOL    HW241376   2.395   2.724   3.043  0.3237 -0.8836 -0.4301
13600SOL     OW41377   7.801   3.665   6.517 -0.2063  0.3874  0.5301
13600SOL    HW141378   7.781   3.647   6.609  1.1005 -0.7414  0.6211
13600SOL    HW241379   7.897   3.669   6.514 -0.1857 -0.6077 -0.9664
13601SOL     OW41380   2.521   3.323   2.865  0.2283  0.8106  0.7579
13601SOL    HW141381   2.602   3.333   2.815  0.7118  1.0716  1.5687
13601SOL    HW241382   2.462   3.275   2.806  1.2216 -0.0479  0.4180
13602SOL     OW41383   9.192   3.642   3.293 -0.1974  0.2227 -0.1584
13602SOL    HW141384   9.190   3.728   3.335 -1.1516 -0.1223  0.5447
13602SOL    HW241385   9.258   3.651   3.224 -0.1422  1.4570  0.0209
13603SOL     OW41386   3.460   2.666   5.231  0.0775  0.1334 -0.4912
13603SOL    HW141387   3.503   2.580   5.230  1.3596  0.7025  1.1881
13603SOL    HW241388   3.530   2.727   5.255 -1.2592  1.3612  0.3922
13604SOL     OW41389   9.171   7.142   5.050 -0.5631 -0.3721  0.5679
13604SOL    HW141390   9.092   7.161   5.102  0.2153  0.8356  1.3667
13604SOL    HW241391   9.153   7.180   4.964  0.8068  4.1001  2.0028
13605SOL     OW41392   5.044   5.502   3.263  0.1543  0.1414 -0.0956
13605SOL    HW141393   5.119   5.534   3.313  0.2647 -0.0514 -0.1368
13605SOL    HW241394   5.033   5.565   3.192  0.6084 -0.1183 -0.4005
13606SOL     OW41395   9.664   7.926   4.682  0.0217 -0.5723  0.4558
13606SOL    HW141396   9.577   7.940   4.645  0.1087  0.5382  0.6501
13606SOL    HW241397   9.688   7.838   4.653 -0.6772 -0.4419 -0.5618
13607SOL     OW41398   7.553   0.956   3.806  0.1748 -0.5905  0.0400
13607SOL    HW141399   7.477   0.916   3.765  0.5641 -1.1208 -0.1787
13607SOL    HW241400   7.625   0.895   3.788  0.2342 -1.1913  2.0735
13608SOL     OW41401   6.256   5.017   8.811  0.3416  0.2190  0.5501
13608SOL    HW141402   6.213   5.044   8.730 -0.2459 -1.8845  0.1153
13608SOL    HW241403   6.246   4.922   8.814  1.4260  0.1052  2.4892
13609SOL     OW41404   7.939   9.700   6.945  0.4229 -0.0711  0.9880
13609SOL    HW141405   7.881   9.624   6.949 -0.9061  0.8553  0.2827
13609SOL    HW241406   7.945   9.720   6.851 -0.8159  1.7979  1.2524
13610SOL     OW41407   4.933   3.285   8.883 -0.1499 -0.1906 -0.8312
13610SOL    HW141408   4.934   3.235   8.965  1.7918 -1.7029 -1.6852
13610SOL    HW241409   4.958   3.373   8.908  0.9945 -0.7703  0.1666
13611SOL     OW41410   8.027   9.092   2.604  0.2749 -0.4205 -0.1740
13611SOL    HW141411   7.987   9.043   2.533 -1.7012  0.1086  0.5148
13611SOL    HW241412   7.957   9.103   2.668  1.6526  0.2144  1.2895
13612SOL     OW41413   6.177   6.928   0.475 -0.4132 -0.3776  0.0971
13612SOL    HW141414   6.149   6.909   0.565 -0.4931  0.1034  0.1769
13612SOL    HW241415   6.248   6.992   0.485 -0.2930 -0.4675 -0.1742
13613SOL     OW41416   5.292   5.498   1.282  0.2771  0.0313  0.6767
13613SOL    HW141417   5.336   5.425   1.326 -1.5791 -0.7885  1.3115
13613SOL    HW241418   5.289   5.567   1.348  1.2524  0.3664  0.3770
13614SOL     OW41419   6.141   6.853   9.512 -0.4854  0.2618  0.2506
13614SOL    HW141420   6.110   6.831   9.600 -1.2048  0.6442  0.0991
13614SOL    HW241421   6.195   6.778   9.486  0.7578  0.6874  1.4961
13615SOL     OW41422   1.167   9.158   5.331  0.3689 -0.3022 -1.1241
13615SOL    HW141423   1.248   9.128   5.289  0.0393 -0.7475 -1.4530
13615SOL    HW241424   1.195   9.226   5.392  1.3312 -2.0766  0.5445
13616SOL     OW41425   1.096   3.025   8.019 -0.5192 -0.1748  0.3050
13616SOL    HW141426   1.004   3.030   8.044 -0.9691  1.4571 -1.5163
13616SOL    HW241427   1.098   2.964   7.946  0.0073 -0.8918  0.9002
13617SOL     OW41428   2.312   5.142   9.196  0.2750 -0.5560  1.0889
13617SOL    HW141429   2.403   5.156   9.222 -0.2156  1.2550  2.0308
13617SOL    HW241430   2.292   5.215   9.137 -0.6239 -0.7979  1.0659
13618SOL     OW41431   9.759   8.106   4.890 -0.3009 -0.1218 -0.1348
13618SOL    HW141432   9.769   8.021   4.933  0.2973  0.5243  1.0748
13618SOL    HW241433   9.728   8.085   4.802  1.5792 -1.7255 -0.5036
13619SOL     OW41434   9.441   3.095   7.863 -0.3534 -0.2908  0.0837
13619SOL    HW141435   9.429   3.173   7.808 -1.7873 -0.3296  0.2888
13619SOL    HW241436   9.527   3.062   7.839  1.2495  2.5096  1.4582
13620SOL     OW41437   6.330   4.227   4.848 -0.2986 -0.5855  0.1452
13620SOL    HW141438   6.314   4.180   4.766 -1.4171  0.1495 -0.0722
13620SOL    HW241439   6.332   4.158   4.915 -1.1061 -1.0289 -0.2708
13621SOL     OW41440   6.052   8.698   2.935  0.3884 -0.4051 -0.0825
13621SOL    HW141441   6.046   8.736   2.848  0.1713 -0.7312 -0.2114
13621SOL    HW241442   6.045   8.604   2.920 -0.5930 -0.4125  0.3754
13622SOL     OW41443   7.172   1.640   9.127 -0.1253  0.2491  0.2323
13622SOL    HW141444   7.172   1.553   9.167 -0.3323  0.8646  1.6492
13622SOL    HW241445   7.135   1.697   9.195 -1.4412  1.1986 -1.2336
13623SOL     OW41446   7.258   2.906   9.705  0.3617  0.5291  0.2162
13623SOL    HW141447   7.182   2.852   9.679 -0.1629  1.6617 -0.6852
13623SOL    HW241448   7.263   2.974   9.638  0.7952  1.8231  1.5068
13624SOL     OW41449   0.819   7.096   6.331 -0.0738  0.2693 -0.2351
13624SOL    HW141450   0.861   7.061   6.409  1.2676 -0.0335 -1.0654
13624SOL    HW241451   0.826   7.191   6.340  0.3804  0.2276 -0.1511
13625SOL     OW41452   0.661   9.532   0.447  0.1009 -0.4017 -0.1550
13625SOL    HW141453   0.620   9.617   0.463  1.5380  0.5575 -1.2626
13625SOL    HW241454   0.746   9.553   0.409  1.3798 -2.2972  1.4137
13626SOL     OW41455   1.183   2.267   5.052 -0.1363 -0.4369  0.2325
13626SOL    HW141456   1.195   2.195   5.115 -1.2714 -1.1543 -0.3374
13626SOL    HW241457   1.091   2.261   5.026  0.4225 -0.5875 -1.9674
13627SOL     OW41458   0.986   2.766   5.662  0.1562 -0.7955 -0.5406
13627SOL    HW141459   1.079   2.749   5.650 -0.0052 -2.3379  0.0975
13627SOL    HW241460   0.979   2.797   5.752 -0.0351 -1.6130 -0.2639
13628SOL     OW41461   0.926   1.051   0.317  0.1624 -0.4684  0.3479
13628SOL    HW141462   1.004   1.064   0.371  0.9550  0.5591 -0.9859
13628SOL    HW241463   0.927   0.957   0.296  1.6027 -0.2981 -0.4409
13629SOL     OW41464   3.991   6.479   2.389 -0.4790 -0.8251  0.1888
13629SOL    HW141465   3.969   6.421   2.462 -0.3416 -0.2484  0.7065
13629SOL    HW241466   4.051   6.543   2.428 -1.1415  0.0541 -0.2041
13630SOL     OW41467   9.462   4.576   8.533 -0.0604 -0.2861  0.6734
13630SOL    HW141468   9.420   4.581   8.447  0.7682  0.8785  0.3095
13630SOL    HW241469   9.540   4.630   8.525 -0.7330  1.1216  2.5979
13631SOL     OW41470   1.728   5.256   1.401 -0.3221  0.2048 -0.1299
13631SOL    HW141471   1.663   5.320   1.428 -0.1136 -0.0423  1.0134
13631SOL    HW241472   1.791   5.254   1.473  1.3578  0.9516 -1.5042
13632SOL     OW41473   5.348   0.121   0.676  0.1411 -0.3804  0.6622
13632SOL    HW141474   5.400   0.129   0.596 -1.3934  0.3814 -0.3066
13632SOL    HW241475   5.346   0.027   0.693  1.8475 -0.4286  0.7619
13633SOL     OW41476   6.373   6.125   5.666  0.2695  0.3969  0.3200
13633SOL    HW141477   6.425   6.048   5.643 -0.4610  0.3508 -1.2942
13633SOL    HW241478   6.423   6.199   5.632  0.4076  0.5618  0.8609
13634SOL     OW41479   2.573   3.340   7.327  0.5798 -0.0756 -0.7256
13634SOL    HW141480   2.652   3.328   7.380 -0.4311  0.0991  0.8802
13634SOL    HW241481   2.561   3.435   7.322 -0.5812 -0.1049  0.7378
13635SOL     OW41482   2.368   1.357   4.308 -0.1984 -0.5775 -0.1320
13635SOL    HW141483   2.294   1.298   4.323  0.7720 -1.6781  0.4909
13635SOL    HW241484   2.360   1.423   4.376 -0.7258 -0.5757 -0.1941
13636SOL     OW41485   3.676   6.035   2.172 -0.1378  0.0685 -0.2198
13636SOL    HW141486   3.667   6.112   2.228  1.4412 -0.6068  1.0315
13636SOL    HW241487   3.770   6.020   2.165 -0.3919 -2.7458  1.0257
13637SOL     OW41488   3.276   0.757   2.479 -0.6467 -0.6967 -0.5379
13637SOL    HW141489   3.249   0.799   2.397 -0.3316  0.6849  0.0350
13637SOL    HW241490   3.262   0.824   2.545  0.9725 -1.1058  0.2553
13638SOL     OW41491   7.558   7.932   2.503 -0.3753 -0.7509 -0.1847
13638SOL    HW141492   7.650   7.922   2.527 -0.5260 -0.3893  0.5757
13638SOL    HW241493   7.517   7.970   2.581 -1.0586 -0.3745 -0.7191
13639SOL     OW41494   5.021   0.168   2.509 -0.1629  0.4492 -0.2430
13639SOL    HW141495   5.097   0.110   2.496  0.7269  1.6583 -0.6578
13639SOL    HW241496   4.948   0.109   2.524  0.1151 -0.9121 -3.5705
13640SOL     OW41497   3.755   1.626   5.259 -0.4195  0.1227  0.4937
13640SOL    HW141498   3.816   1.695   5.285  0.2933 -0.7562  1.2092
13640SOL    HW241499   3.735   1.645   5.167  1.1611  0.2794  0.1578
13641SOL     OW41500   9.696   8.484   6.667  0.5104 -0.3412  0.5778
13641SOL    HW141501   9.695   8.558   6.727 -0.3641  0.2705 -0.1618
13641SOL    HW241502   9.731   8.521   6.585 -2.3642 -0.0064 -0.6347
13642SOL     OW41503   6.849   5.187   9.333 -0.8535 -0.2785  0.2976
13642SOL    HW141504   6.911   5.141   9.277  0.6828  1.2345  0.6421
13642SOL    HW241505   6.865   5.151   9.421 -0.3543  0.2042  0.4075
13643SOL     OW41506   7.923   9.065   3.602  0.6338 -0.3279 -0.1674
13643SOL    HW141507   7.848   9.050   3.659 -0.0657  2.5123 -0.2055
13643SOL    HW241508   7.885   9.081   3.516  1.0988  2.5007  0.0806
13644SOL     OW41509   9.624   1.971   2.868 -0.0515  0.5520 -0.0022
13644SOL    HW141510   9.614   1.970   2.964  0.8904 -1.6810  0.1330
13644SOL    HW241511   9.717   1.986   2.854 -0.3717  2.1916 -0.6732
13645SOL     OW41512   3.532   3.061   9.690 -0.5197 -0.6621 -0.6641
13645SOL    HW141513   3.466   3.128   9.702 -0.6187 -0.6753 -1.1338
13645SOL    HW241514   3.518   3.000   9.762 -1.7403 -1.2601 -1.3904
13646SOL     OW41515   4.931   5.499   7.080 -0.3389 -0.1666  0.2770
13646SOL    HW141516   4.960   5.503   7.171 -1.5906  1.5335  0.6710
13646SOL    HW241517   4.836   5.485   7.085 -0.3896 -0.2993 -0.7586
13647SOL     OW41518   0.108   6.012   9.163  0.0985  0.4298  0.1321
13647SOL    HW141519   0.061   6.078   9.213 -2.4036 -1.5213  0.5674
13647SOL    HW241520   0.041   5.971   9.108  1.7222 -1.1064 -0.8324
13648SOL     OW41521   1.587   2.883   4.491 -0.1467 -0.2486  0.3751
13648SOL    HW141522   1.628   2.952   4.439 -1.1982  0.1008 -0.0067
13648SOL    HW241523   1.659   2.822   4.510  0.6986  0.7157  0.3535
13649SOL     OW41524   3.517   4.421   4.815 -0.1934 -0.3038  0.0716
13649SOL    HW141525   3.469   4.504   4.816 -0.9670 -0.5324  4.3587
13649SOL    HW241526   3.472   4.368   4.750 -0.6853  2.0709 -1.6441
13650SOL     OW41527   4.206   3.410   4.621 -0.3111  0.6199  0.0118
13650SOL    HW141528   4.168   3.447   4.541 -2.0256 -0.4079  0.2968
13650SOL    HW241529   4.229   3.320   4.597 -1.5539  0.0515  0.8372
13651SOL     OW41530   0.349   5.660   2.020  1.0912  0.1801 -0.1668
13651SOL    HW141531   0.414   5.706   1.967  1.2575  0.2850  0.1244
13651SOL    HW241532   0.277   5.642   1.959  1.9900 -1.2110 -0.8536
13652SOL     OW41533   3.805   8.189   1.847 -0.3919  0.8370  0.6484
13652SOL    HW141534   3.797   8.279   1.881  2.0217  1.1311  0.6662
13652SOL    HW241535   3.834   8.200   1.757 -0.9340  0.0598  0.3741
13653SOL     OW41536   6.898   1.276   8.053 -0.4421 -0.1854  0.6018
13653SOL    HW141537   6.836   1.266   8.126  1.0558 -0.3327  1.8890
13653SOL    HW241538   6.930   1.366   8.061  1.5728 -0.9607  1.6611
13654SOL     OW41539   6.825   0.344   5.072  0.2964 -0.2785  0.2616
13654SOL    HW141540   6.848   0.364   5.162 -1.3248 -2.9006  1.3622
13654SOL    HW241541   6.730   0.359   5.067  0.2680 -0.6851 -0.8519
13655SOL     OW41542   7.097   3.442   7.756 -0.7420 -0.3080  0.2813
13655SOL    HW141543   7.065   3.517   7.807 -1.4996  0.1630 -0.8394
13655SOL    HW241544   7.053   3.367   7.796  0.6711 -0.2987  1.9550
13656SOL     OW41545   9.277   5.600   1.480 -0.3473  0.3708 -0.1495
13656SOL    HW141546   9.319   5.686   1.486 -1.2870  0.9335 -1.0831
13656SOL    HW241547   9.189   5.614   1.514 -0.9783  0.1518 -1.5948
13657SOL     OW41548   8.502   2.424   3.333  0.3948  0.1269 -0.3143
13657SOL    HW141549   8.508   2.502   3.278  1.5509 -0.1652 -0.6172
13657SOL    HW241550   8.592   2.403   3.357  0.2666 -1.9042 -1.3643
13658SOL     OW41551   9.215   8.647   0.256  0.3990 -0.5816  1.0441
13658SOL    HW141552   9.237   8.560   0.222 -0.7716  0.0707 -1.6386
13658SOL    HW241553   9.180   8.630   0.344  1.7978 -2.6032  1.2719
13659SOL     OW41554   1.578   2.099   6.425  0.3193  0.2701  0.2756
13659SOL    HW141555   1.556   2.125   6.336  2.5845  1.0443 -0.1269
13659SOL    HW241556   1.577   2.003   6.423  0.6686  0.2753 -0.6875
13660SOL     OW41557   0.784   6.757   0.332  0.2337 -0.1612  0.5612
13660SOL    HW141558   0.863   6.811   0.341  0.5678 -0.9653  3.2815
13660SOL    HW241559   0.767   6.724   0.421 -2.1510 -1.4539 -0.2896
13661SOL     OW41560   8.203   9.947   7.057  0.0229 -0.7109  0.2311
13661SOL    HW141561   8.151   9.981   6.984  1.4665 -1.2980 -1.1366
13661SOL    HW241562   8.152   9.873   7.090 -0.8044 -0.2386  0.0534
13662SOL     OW41563   8.740   1.061   9.284  0.2280  0.3518  0.1270
13662SOL    HW141564   8.825   1.043   9.244 -0.1443 -0.5441 -0.2814
13662SOL    HW241565   8.758   1.130   9.348  1.3662 -0.2080  0.4402
13663SOL     OW41566   4.959   3.281   2.212  0.3790  0.6029  0.5653
13663SOL    HW141567   4.902   3.204   2.199 -1.4528  1.8408  0.8222
13663SOL    HW241568   5.047   3.248   2.197 -0.2964 -1.6550  1.0980
13664SOL     OW41569   9.584   1.330   9.771 -0.4137 -0.4336  0.2996
13664SOL    HW141570   9.601   1.247   9.726 -1.0137 -0.2722 -0.2446
13664SOL    HW241571   9.557   1.390   9.702  1.8633  0.8017  0.3726
13665SOL     OW41572   9.054   3.940   1.190  0.2041  0.2977  0.1177
13665SOL    HW141573   9.123   3.956   1.126 -0.3786 -1.5081 -1.0405
13665SOL    HW241574   9.096   3.954   1.275  2.4004 -1.8968 -0.4932
13666SOL     OW41575   8.142   1.459   3.240 -0.1639  0.1216 -0.2300
13666SOL    HW141576   8.142   1.375   3.287  0.5640  0.1893 -0.0931
13666SOL    HW241577   8.050   1.486   3.239 -0.3579 -0.4998  0.0439
13667SOL     OW41578   3.735   6.982   7.946 -0.2285  0.1165  0.1578
13667SOL    HW141579   3.785   6.992   7.865  0.6411  1.1863  0.7853
13667SOL    HW241580   3.766   6.899   7.983  1.6776  1.0736  0.8710
13668SOL     OW41581   5.847   9.465   1.902  0.2938  0.1328 -0.2248
13668SOL    HW141582   5.769   9.410   1.893 -0.6936  1.3233  0.5339
13668SOL    HW241583   5.835   9.534   1.837  1.0316 -0.0075 -0.5167
13669SOL     OW41584   4.247   4.666   7.126  0.3823  0.4259 -0.0512
13669SOL    HW141585   4.178   4.664   7.192 -0.1421  0.6534 -0.5833
13669SOL    HW241586   4.317   4.718   7.166  1.5414 -2.2318  1.7042
13670SOL     OW41587   9.336   9.435   7.612 -0.5500 -0.2856  0.2734
13670SOL    HW141588   9.429   9.415   7.615 -0.2621  0.4509 -2.0880
13670SOL    HW241589   9.298   9.368   7.555 -1.4869 -0.5360  1.1497
13671SOL     OW41590   7.301   4.140   2.174 -0.0318  0.3658 -0.1160
13671SOL    HW141591   7.385   4.124   2.130  0.1350 -1.5084  0.7683
13671SOL    HW241592   7.326   4.173   2.261 -0.2452  0.5541 -0.1266
13672SOL     OW41593   9.939   2.895   8.716 -0.0583  0.4268 -0.4909
13672SOL    HW141594   9.873   2.893   8.647  0.7255  1.0834 -1.2700
13672SOL    HW241595   9.888   2.888   8.797 -1.1664  1.6764 -1.0387
13673SOL     OW41596   7.628   7.266   3.406 -0.0144  0.3462  0.2044
13673SOL    HW141597   7.683   7.245   3.331  1.0645 -1.4555  1.4063
13673SOL    HW241598   7.673   7.227   3.481 -1.7456  0.8454  1.6018
13674SOL     OW41599   4.021   1.685   7.187 -0.2369  0.0576 -0.1275
13674SOL    HW141600   3.965   1.762   7.192  0.5059  0.6114 -0.0206
13674SOL    HW241601   4.107   1.720   7.162  0.1611 -0.7100  0.1332
13675SOL     OW41602   5.770   6.937   2.316  0.4767 -0.0573 -0.1556
13675SOL    HW141603   5.698   6.987   2.354 -0.5457  0.0123 -2.0382
13675SOL    HW241604   5.748   6.930   2.223  2.1357 -1.3772 -0.5112
13676SOL     OW41605   0.992   1.267   7.657  0.1477 -0.2599 -0.1058
13676SOL    HW141606   0.991   1.352   7.701  0.3330 -1.8102  3.1901
13676SOL    HW241607   1.084   1.240   7.659  0.0705 -0.6233 -0.9882
13677SOL     OW41608   9.198   5.665   7.564  0.7093 -0.1089 -0.7290
13677SOL    HW141609   9.191   5.676   7.659 -1.3000 -0.9927 -0.7403
13677SOL    HW241610   9.286   5.697   7.543  1.6043 -0.8829  1.5575
13678SOL     OW41611   3.392   6.484   7.081  0.0528  0.2980  0.5805
13678SOL    HW141612   3.324   6.421   7.058 -2.0183  2.7584 -0.5771
13678SOL    HW241613   3.370   6.563   7.032  3.6879  1.3472  0.3216
13679SOL     OW41614   9.147   2.865   9.318 -0.2469  0.0887  0.4627
13679SOL    HW141615   9.231   2.827   9.293 -1.3284 -1.1647 -1.5111
13679SOL    HW241616   9.159   2.959   9.303  1.2621  0.1412  1.7228
13680SOL     OW41617   7.664   3.591   9.498  0.9247 -0.1340  0.4748
13680SOL    HW141618   7.633   3.507   9.464  0.6952 -0.6565  1.8911
13680SOL    HW241619   7.613   3.657   9.450  0.9029 -0.7995 -0.4461
13681SOL     OW41620   1.219   8.138   8.444  0.0301  0.0388 -0.2698
13681SOL    HW141621   1.243   8.047   8.461  0.1423 -0.4932 -2.9028
13681SOL    HW241622   1.241   8.153   8.352  2.3212  3.4950  0.6224
13682SOL     OW41623   6.231   6.393   5.494  0.7299 -0.4298 -0.4761
13682SOL    HW141624   6.283   6.343   5.432  1.5229 -2.0056  1.3367
13682SOL    HW241625   6.173   6.328   5.535 -1.5016  0.9773 -1.2198
13683SOL     OW41626   1.098   0.553   2.230 -0.2898 -0.1924 -0.3717
13683SOL    HW141627   1.177   0.500   2.236 -1.1581 -1.4083  1.0113
13683SOL    HW241628   1.124   0.639   2.263  0.4715 -0.5529 -0.0085
13684SOL     OW41629   8.687   7.488   2.894 -0.5907 -0.0475  0.2452
13684SOL    HW141630   8.770   7.489   2.941  0.4703 -1.0077 -1.4997
13684SOL    HW241631   8.689   7.566   2.839 -1.6302  0.8328  1.3983
13685SOL     OW41632   2.949   8.075   3.929 -0.0137 -0.4311 -0.6443
13685SOL    HW141633   2.963   8.032   4.014  0.7585 -2.0473 -1.5281
13685SOL    HW241634   2.857   8.100   3.930  0.3351  0.9747  1.2545
13686SOL     OW41635   9.468   4.964   1.643 -0.7182 -0.4745  0.1947
13686SOL    HW141636   9.535   4.929   1.583 -0.8974  1.5135 -1.2800
13686SOL    HW241637   9.386   4.955   1.595 -0.9977  0.3296  0.5052
13687SOL     OW41638   3.574   2.645   8.868  0.1846  0.7134 -0.0882
13687SOL    HW141639   3.525   2.588   8.809  1.0715  0.3783 -0.5142
13687SOL    HW241640   3.607   2.586   8.937  0.4332  0.8434 -0.0938
13688SOL     OW41641   2.721   3.294   5.246 -0.3287  0.7693 -0.0480
13688SOL    HW141642   2.675   3.355   5.188 -0.1970  2.6465  1.7328
13688SOL    HW241643   2.667   3.215   5.245 -0.3196  0.6824 -2.6962
13689SOL     OW41644   1.616   2.408   2.521 -0.2688  0.4899 -0.4748
13689SOL    HW141645   1.565   2.332   2.495  3.5514 -1.7241 -2.3414
13689SOL    HW241646   1.614   2.406   2.617 -1.0554 -1.4192 -0.4870
13690SOL     OW41647   9.940   8.862   2.354 -0.3244  0.3925 -0.8733
13690SOL    HW141648  10.000   8.835   2.285 -0.0954 -1.4390 -0.0239
13690SOL    HW241649   9.986   8.841   2.436 -1.4036  0.5852 -0.1946
13691SOL     OW41650   8.268   5.353   1.055 -0.0866 -0.0930 -0.6113
13691SOL    HW141651   8.207   5.411   1.100  1.2406  2.3668 -1.8127
13691SOL    HW241652   8.239   5.265   1.079 -3.0130  0.9906  0.2338
13692SOL     OW41653   5.396   9.693   9.424  0.2826 -0.0305  0.1111
13692SOL    HW141654   5.449   9.639   9.365  1.1992  0.1779  0.7232
13692SOL    HW241655   5.450   9.770   9.442 -0.0025 -0.0655  1.1873
13693SOL     OW41656   6.536   3.114   2.541  0.7971 -0.0359 -0.5436
13693SOL    HW141657   6.616   3.156   2.574  1.5629 -1.2306 -0.8235
13693SOL    HW241658   6.560   3.082   2.454 -0.6808  1.5372 -1.5990
13694SOL     OW41659   7.514   6.436   7.808  0.2598  0.4954 -0.1563
13694SOL    HW141660   7.518   6.477   7.722 -1.0394 -0.6343 -0.8035
13694SOL    HW241661   7.605   6.417   7.830  0.7354  2.0754 -0.6149
13695SOL     OW41662   6.245   0.178   7.111  0.4941 -0.0319  0.1151
13695SOL    HW141663   6.326   0.127   7.112 -0.2070 -1.1827  0.4899
13695SOL    HW241664   6.273   0.269   7.118  1.6774 -0.5101  2.7273
13696SOL     OW41665   1.830   4.325   3.724 -0.2005 -0.1153 -0.2896
13696SOL    HW141666   1.791   4.348   3.808  1.5885 -1.3237  0.9428
13696SOL    HW241667   1.880   4.403   3.698  0.4829 -0.2603  0.5547
13697SOL     OW41668   2.454   3.982   4.054  0.6438  0.3473 -0.0483
13697SOL    HW141669   2.447   4.065   4.102 -0.1930 -0.2226  0.8463
13697SOL    HW241670   2.508   3.927   4.111  0.6219  0.0450 -0.3208
13698SOL     OW41671   2.698   4.695   8.416 -0.4855  0.2048  0.1531
13698SOL    HW141672   2.615   4.648   8.416 -0.8434  0.7534  1.9372
13698SOL    HW241673   2.678   4.777   8.462  1.2965 -0.1920  1.7518
13699SOL     OW41674   6.769   3.953   8.398  0.2147 -0.5668  0.6047
13699SOL    HW141675   6.695   3.953   8.459 -0.1348  1.2502  0.2520
13699SOL    HW241676   6.728   3.938   8.312  0.4101 -0.8589  0.5648
13700SOL     OW41677   4.955   5.629   1.499  0.5135 -0.0061  0.0354
13700SOL    HW141678   4.990   5.717   1.513 -0.2423  0.6323 -1.7399
13700SOL    HW241679   4.868   5.631   1.539  1.2927 -0.6784  1.8898
13701SOL     OW41680   1.085   0.033   1.457 -0.0641 -0.2514  0.7193
13701SOL    HW141681   1.056   0.046   1.367  0.0897  2.0431  0.9336
13701SOL    HW241682   1.017   0.075   1.510  0.5903 -0.2440  1.5834
13702SOL     OW41683   6.525   6.087   0.479  0.0379  0.6782 -0.4821
13702SOL    HW141684   6.497   6.173   0.510 -0.8643  0.6831 -1.2551
13702SOL    HW241685   6.447   6.032   0.487  0.9135 -0.3959  1.1016
13703SOL     OW41686   6.329   7.205   9.906 -0.2062 -0.7363  0.1301
13703SOL    HW141687   6.340   7.120   9.948 -0.5731 -0.7365  0.2275
13703SOL    HW241688   6.257   7.246   9.953 -0.1656 -0.4544 -0.0504
13704SOL     OW41689   6.997   5.833   1.500 -0.0615 -0.0138  0.5022
13704SOL    HW141690   6.992   5.919   1.541 -1.9906 -0.5752  1.5944
13704SOL    HW241691   7.085   5.801   1.519  0.7941  1.8097 -0.1931
13705SOL     OW41692   0.490   1.229   1.008 -0.2961 -0.0891 -0.3868
13705SOL    HW141693   0.523   1.317   0.993  0.4471  0.0209  1.5508
13705SOL    HW241694   0.410   1.242   1.059  0.3255 -0.5237  0.7386
13706SOL     OW41695   9.955   9.843   7.414  0.3234 -0.3662 -0.0670
13706SOL    HW141696   9.902   9.768   7.389 -0.2279 -0.0735  0.1946
13706SOL    HW241697  10.044   9.819   7.390  0.4950 -1.9730  1.9240
13707SOL     OW41698   8.585   1.306   2.184 -0.2698 -0.3831 -0.5580
13707SOL    HW141699   8.531   1.341   2.112  0.6241  0.4688 -0.8382
13707SOL    HW241700   8.541   1.337   2.263 -0.2193  0.2797 -0.7811
13708SOL     OW41701   4.099   3.806   4.707  0.2929  0.3648 -0.2297
13708SOL    HW141702   4.079   3.773   4.794 -1.8221  0.6083 -0.5768
13708SOL    HW241703   4.020   3.854   4.681  1.1841  0.9633 -1.9567
13709SOL     OW41704   3.219   8.050   9.216 -0.0807 -0.0954  0.1291
13709SOL    HW141705   3.287   8.097   9.264 -2.0191  2.6355  0.4109
13709SOL    HW241706   3.202   8.103   9.139 -1.2439 -1.2339 -0.4480
13710SOL     OW41707   8.720   8.112   9.152 -0.1306 -0.4054 -0.1040
13710SOL    HW141708   8.753   8.115   9.062 -0.7307  1.2047 -0.2846
13710SOL    HW241709   8.714   8.203   9.179  0.8448 -0.8652  1.8930
13711SOL     OW41710   5.753   5.267   9.666  0.6356 -0.0730 -0.3018
13711SOL    HW141711   5.748   5.321   9.745  1.8580 -1.9681  1.1497
13711SOL    HW241712   5.671   5.285   9.619  0.1209  1.5015  1.0942
13712SOL     OW41713   9.400   6.501   2.290  0.0323  0.6499 -0.1549
13712SOL    HW141714   9.480   6.451   2.275 -0.1890  0.2444 -0.0019
13712SOL    HW241715   9.330   6.442   2.263 -0.1935  1.2177 -0.8607
13713SOL     OW41716   7.713   0.041   5.633  0.0991  0.2703  0.1615
13713SOL    HW141717   7.650   0.065   5.702  0.7916  0.8877  0.5976
13713SOL    HW241718   7.695   0.103   5.562 -0.1401  0.1011  0.0751
13714SOL     OW41719   7.014   5.719   7.215 -0.0836  0.2129  0.3530
13714SOL    HW141720   7.107   5.737   7.230  0.1827 -0.4981 -0.3631
13714SOL    HW241721   7.013   5.659   7.141 -1.1511  0.7051 -0.0598
13715SOL     OW41722   2.975   8.760   9.123 -0.7684 -0.9497  0.0353
13715SOL    HW141723   3.039   8.732   9.058  0.5849  3.6187 -0.9221
13715SOL    HW241724   2.890   8.736   9.085  0.0382  0.6912 -3.1063
13716SOL     OW41725   6.005   4.133   1.818  0.3038  0.6479  0.0436
13716SOL    HW141726   5.944   4.173   1.756 -0.9962 -1.5699 -0.2036
13716SOL    HW241727   6.048   4.063   1.769  1.0099  0.4023  0.9837
13717SOL     OW41728   8.764   0.720   5.641  1.2408  0.3063 -0.5595
13717SOL    HW141729   8.684   0.673   5.616  0.7356  0.3919  0.8392
13717SOL    HW241730   8.755   0.735   5.735  1.9449  2.1878 -0.7608
13718SOL     OW41731   7.614   9.927   8.694 -0.2643 -0.3104  0.5350
13718SOL    HW141732   7.702   9.950   8.663 -0.7454 -0.3971 -0.9835
13718SOL    HW241733   7.582  10.007   8.736  0.1565  0.0472  0.1858
13719SOL     OW41734   9.410   7.362   0.085  0.6947 -0.5073  0.6723
13719SOL    HW141735   9.432   7.442   0.133 -1.5340  0.3195  0.4272
13719SOL    HW241736   9.492   7.334   0.045  2.2130 -0.1295  3.3208
13720SOL     OW41737   9.142   9.850   6.857  0.0809  0.2679  0.0540
13720SOL    HW141738   9.148   9.842   6.762 -0.2117 -0.7446  0.1155
13720SOL    HW241739   9.160   9.943   6.874  0.1867  0.4483 -0.9781
13721SOL     OW41740   0.230   9.117   3.003  0.2231  0.0352  0.1056
13721SOL    HW141741   0.319   9.112   2.969  0.5318 -0.8849  1.0204
13721SOL    HW241742   0.239   9.104   3.097 -1.0239 -1.9928  0.0077
13722SOL     OW41743   5.250   5.150   1.969  0.5483  0.2538 -0.4513
13722SOL    HW141744   5.178   5.093   1.998 -0.5721  0.6106 -2.3767
13722SOL    HW241745   5.218   5.239   1.985  0.8904  0.4016 -0.5792
13723SOL     OW41746   0.426   9.694   8.012 -0.0829 -0.3311  0.0859
13723SOL    HW141747   0.369   9.759   7.971  1.3195  0.3299 -0.8721
13723SOL    HW241748   0.471   9.742   8.082  1.2917 -0.1055 -0.9127
13724SOL     OW41749   2.630   7.371   5.697 -0.4406 -0.2011 -0.2131
13724SOL    HW141750   2.707   7.401   5.649 -1.6223 -0.5495 -2.4494
13724SOL    HW241751   2.584   7.313   5.636 -1.5612 -1.4649  1.6982
13725SOL     OW41752   7.981   7.192   3.238 -0.6017  0.1249 -0.0634
13725SOL    HW141753   8.042   7.228   3.302  0.0719  0.1991 -0.7283
13725SOL    HW241754   7.947   7.268   3.191 -0.7098  0.0381 -0.1289
13726SOL     OW41755   3.178   3.506   7.333  0.3482 -0.2656 -1.0457
13726SOL    HW141756   3.258   3.453   7.342  0.1084 -0.5375 -0.5163
13726SOL    HW241757   3.114   3.461   7.388  0.2663  0.8382 -0.2198
13727SOL     OW41758   9.911   3.257   2.535 -0.0659  0.4147 -0.0844
13727SOL    HW141759   9.947   3.331   2.486  1.2556 -0.3248 -0.2873
13727SOL    HW241760   9.825   3.286   2.563  0.0624  1.6914 -0.9333
13728SOL     OW41761   8.259   4.052   9.721 -0.2817 -0.1207  0.0355
13728SOL    HW141762   8.230   3.978   9.668  0.7946  0.1086 -0.9190
13728SOL    HW241763   8.354   4.044   9.724 -0.2119  0.7774  0.5920
13729SOL     OW41764   6.829   1.355   7.027  0.3546  0.5907  0.3201
13729SOL    HW141765   6.822   1.299   7.104 -0.9680  0.7787  0.3727
13729SOL    HW241766   6.773   1.431   7.048 -0.3372  0.4674 -0.9643
13730SOL     OW41767   5.710   3.876   3.634  0.6078 -0.4308  1.1872
13730SOL    HW141768   5.620   3.907   3.642  0.7020  0.8872 -1.6295
13730SOL    HW241769   5.703   3.788   3.597  0.4980 -1.6494  3.8603
13731SOL     OW41770   6.250   9.499   2.609 -0.1118 -0.4908  0.3171
13731SOL    HW141771   6.242   9.460   2.522 -0.9426 -1.1682  0.6859
13731SOL    HW241772   6.344   9.514   2.619  0.0989 -1.3131 -0.3058
13732SOL     OW41773   3.036   4.416   7.652  0.3073  0.5615 -0.6687
13732SOL    HW141774   3.045   4.489   7.591 -2.8519  1.4061 -0.2633
13732SOL    HW241775   2.947   4.384   7.639  0.4298 -0.9726  1.6410
13733SOL     OW41776   9.956   8.539   0.661 -0.0221  0.1781 -0.2190
13733SOL    HW141777   9.939   8.633   0.657 -1.3344  0.0444  1.3088
13733SOL    HW241778  10.017   8.529   0.734  0.1030 -0.1635 -0.3685
13734SOL     OW41779   8.392   7.972   1.359  0.8973  0.2891 -0.6479
13734SOL    HW141780   8.383   7.886   1.318  0.2773 -0.2946  0.6562
13734SOL    HW241781   8.337   7.967   1.437  0.4215  2.0689 -0.8344
13735SOL     OW41782   9.352   9.793   9.489  0.2175 -0.0581 -0.0380
13735SOL    HW141783   9.417   9.859   9.513  1.8767 -0.6672 -2.5307
13735SOL    HW241784   9.332   9.811   9.397 -1.7114 -1.1006  0.1367
13736SOL     OW41785   6.295   0.768   2.089  0.3262  0.5806 -0.2153
13736SOL    HW141786   6.209   0.802   2.064 -0.6543 -1.1930  0.5557
13736SOL    HW241787   6.328   0.830   2.153 -0.4089  1.2442 -0.4663
13737SOL     OW41788   4.605   2.625   9.214  0.3193  0.0826 -0.3986
13737SOL    HW141789   4.644   2.556   9.268  1.5605  0.8137 -0.3400
13737SOL    HW241790   4.679   2.667   9.171 -0.3677  1.6985 -0.0687
13738SOL     OW41791   2.500   3.471   8.609 -0.1050 -1.1898 -0.0670
13738SOL    HW141792   2.549   3.508   8.683 -0.7769 -0.6968  0.1348
13738SOL    HW241793   2.522   3.528   8.535 -1.3043 -0.2260  0.2893
13739SOL     OW41794   0.349   3.318   9.345 -0.1675  0.2470  0.2571
13739SOL    HW141795   0.380   3.407   9.331 -2.0230  0.9582  0.4070
13739SOL    HW241796   0.286   3.303   9.275 -0.4772 -0.6360  0.7018
13740SOL     OW41797   8.315   1.661   9.976 -0.1188  0.3078  0.0190
13740SOL    HW141798   8.383   1.686   9.914  0.3879  1.4742  0.9953
13740SOL    HW241799   8.235   1.657   9.923  0.0358  2.6858 -0.5176
13741SOL     OW41800   4.496   1.150   0.757  0.2341 -0.0981  0.2614
13741SOL    HW141801   4.448   1.095   0.818  0.5605 -0.1088  0.5127
13741SOL    HW241802   4.469   1.239   0.778  0.0593 -0.1305  0.1693
13742SOL     OW41803   6.077   2.531   7.717 -0.3759  0.4078  0.0533
13742SOL    HW141804   6.159   2.517   7.765 -0.5172 -0.7077 -0.0172
13742SOL    HW241805   6.009   2.530   7.784 -0.2648  2.4702  0.2627
13743SOL     OW41806   6.382   6.038   3.788 -0.3022  0.0389 -0.7048
13743SOL    HW141807   6.379   6.118   3.736  1.1651  0.6719  0.1189
13743SOL    HW241808   6.459   6.048   3.844 -1.5488 -0.7900  1.3109
13744SOL     OW41809   5.766   4.863   0.223  0.6792 -0.2088  0.4512
13744SOL    HW141810   5.851   4.907   0.234  0.3328  0.6320 -0.0905
13744SOL    HW241811   5.744   4.878   0.131  0.7002 -1.8248  0.1604
13745SOL     OW41812   4.943   9.908   0.169 -1.0171  0.4294 -0.1286
13745SOL    HW141813   4.983   9.932   0.085 -2.3538  2.6334 -0.2105
13745SOL    HW241814   4.978   9.972   0.231 -2.7204  1.0634  0.2318
13746SOL     OW41815   1.720   0.638   0.189  0.2726  0.5369  0.1535
13746SOL    HW141816   1.688   0.715   0.236 -0.8177 -0.1509  0.5834
13746SOL    HW241817   1.785   0.599   0.248 -0.0470  0.4760  0.4697
13747SOL     OW41818   6.017   2.114   5.573  0.2962  0.3057  0.3260
13747SOL    HW141819   6.111   2.116   5.559  0.3962  0.5471  0.9982
13747SOL    HW241820   5.979   2.135   5.487  0.8831  1.6759  0.3694
13748SOL     OW41821   8.708   7.912   2.493 -0.2510  0.6703 -0.4819
13748SOL    HW141822   8.653   7.935   2.568 -0.2869  1.5676 -0.7659
13748SOL    HW241823   8.773   7.852   2.528  0.6309  2.1850  0.6312
13749SOL     OW41824   6.796   7.613   8.972  0.6004  0.0287 -0.2490
13749SOL    HW141825   6.758   7.673   8.908  0.8766  0.7834  0.2819
13749SOL    HW241826   6.734   7.540   8.975 -1.1575  1.4736  0.9967
13750SOL     OW41827   3.859   4.672   1.237 -0.4149 -0.5104 -0.1199
13750SOL    HW141828   3.896   4.759   1.253 -1.1431 -0.5867  2.3332
13750SOL    HW241829   3.776   4.689   1.193  0.4384 -0.1218 -1.6456
13751SOL     OW41830   9.514   9.353   4.687 -0.9329  0.1365  0.0835
13751SOL    HW141831   9.536   9.322   4.775 -0.5392  0.1491 -0.0122
13751SOL    HW241832   9.588   9.408   4.661 -0.1919 -1.3155 -0.9973
13752SOL     OW41833   8.818   6.248   5.224  0.1158  0.5324 -0.0912
13752SOL    HW141834   8.904   6.263   5.184  0.7313 -0.9853  0.6030
13752SOL    HW241835   8.821   6.158   5.254 -2.0652  0.1868 -0.7999
13753SOL     OW41836   2.756   4.110   3.470 -0.1951 -0.0668 -0.6572
13753SOL    HW141837   2.849   4.116   3.492 -0.1327 -0.2477 -0.8647
13753SOL    HW241838   2.752   4.044   3.401 -0.1734  1.6448 -2.3944
13754SOL     OW41839   2.290   0.830   0.123 -0.0645 -0.3232  0.1854
13754SOL    HW141840   2.365   0.774   0.143  1.0857  1.1168  0.0369
13754SOL    HW241841   2.263   0.804   0.035 -0.8121 -1.9769  0.8660
13755SOL     OW41842   1.606   0.224   6.367 -0.3731 -0.5335 -0.4730
13755SOL    HW141843   1.604   0.283   6.292  1.3278 -1.7341 -1.5224
13755SOL    HW241844   1.555   0.148   6.340 -1.8466  0.0408  0.5589
13756SOL     OW41845   0.309   3.012   7.822 -0.3562 -0.2795  0.3011
13756SOL    HW141846   0.320   2.960   7.901  0.0422  2.3098  2.0740
13756SOL    HW241847   0.311   2.948   7.750 -2.4736 -2.9428  2.4016
13757SOL     OW41848   1.721   6.686   7.076  0.6606 -0.0761  0.0759
13757SOL    HW141849   1.638   6.725   7.104  1.1005  0.5255  0.5710
13757SOL    HW241850   1.736   6.722   6.988  0.5356  0.0386  0.1013
13758SOL     OW41851   3.717   1.734   2.479 -0.3435  0.0142  0.1641
13758SOL    HW141852   3.766   1.719   2.398 -1.0500  1.6615 -0.6316
13758SOL    HW241853   3.775   1.789   2.532 -0.2009 -0.3917  0.4268
13759SOL     OW41854   1.866   8.275   2.200  0.0264  0.2508 -0.1807
13759SOL    HW141855   1.911   8.264   2.117  1.2824  2.7835  0.0706
13759SOL    HW241856   1.926   8.327   2.254 -2.1747  1.7399  1.0222
13760SOL     OW41857   4.834   6.109   5.953  0.1756  0.1951  0.5405
13760SOL    HW141858   4.901   6.162   5.998  0.7694  1.6492 -1.8837
13760SOL    HW241859   4.792   6.170   5.893 -1.0677 -1.4841 -0.3558
13761SOL     OW41860   7.285   9.002   8.417  0.0162  0.0208 -0.7637
13761SOL    HW141861   7.201   8.956   8.424 -0.0811  0.1089 -1.2682
13761SOL    HW241862   7.325   8.993   8.503 -0.9354  0.7869 -0.2206
13762SOL     OW41863   2.699   0.176   2.774 -0.4645  0.0460 -0.5005
13762SOL    HW141864   2.641   0.124   2.719 -0.9932 -1.1753  1.1277
13762SOL    HW241865   2.787   0.151   2.748 -0.6620  0.7511 -1.9197
13763SOL     OW41866   6.815   3.647   2.343 -0.5322  0.6582 -0.1095
13763SOL    HW141867   6.777   3.711   2.402 -1.0427  1.5983 -1.4131
13763SOL    HW241868   6.741   3.592   2.317 -0.0522 -0.6774  1.2119
13764SOL     OW41869   5.759   1.930   0.604  0.2879 -0.1467 -0.4563
13764SOL    HW141870   5.745   1.955   0.695 -0.3446 -0.3238 -0.4959
13764SOL    HW241871   5.676   1.949   0.561  0.8860  0.8489 -1.2144
13765SOL     OW41872   6.741   9.259   4.603  0.3227  0.0075  0.1162
13765SOL    HW141873   6.815   9.306   4.641  1.7248 -3.3306  1.9068
13765SOL    HW241874   6.664   9.309   4.630  1.7080  4.0615 -2.4608
13766SOL     OW41875   2.367   9.760   7.415 -0.0334  0.1020 -0.1787
13766SOL    HW141876   2.327   9.693   7.470  1.5472  0.5995  1.7318
13766SOL    HW241877   2.369   9.838   7.471  1.2948  0.7514 -1.0784
13767SOL     OW41878   3.074   4.885   1.750 -0.3577  0.1221  0.0325
13767SOL    HW141879   3.091   4.978   1.767 -0.0317 -0.1964  1.6066
13767SOL    HW241880   3.156   4.852   1.715 -0.6242  0.5125 -0.9993
13768SOL     OW41881   5.678   6.836   5.509  0.0204  0.5789  0.5184
13768SOL    HW141882   5.722   6.848   5.593 -0.0702  0.7830  0.5381
13768SOL    HW241883   5.656   6.743   5.506  0.5609  0.4493  0.4547
13769SOL     OW41884   3.791   5.046   3.458 -0.0407 -0.0303  0.1322
13769SOL    HW141885   3.851   5.085   3.395 -1.0792  0.4135 -0.6175
13769SOL    HW241886   3.731   5.116   3.481  0.3483 -0.1793  1.6812
13770SOL     OW41887   9.215   0.148   6.831 -0.1631  0.1699  0.1773
13770SOL    HW141888   9.222   0.210   6.904 -0.6434  1.2823 -0.6762
13770SOL    HW241889   9.279   0.180   6.767 -0.9708  0.2611 -0.6023
13771SOL     OW41890   3.865   7.190   9.066  0.2074  0.3061  0.0584
13771SOL    HW141891   3.956   7.218   9.060  0.8502 -1.6831 -0.3248
13771SOL    HW241892   3.866   7.120   9.131 -1.2050  0.7586  0.6162
13772SOL     OW41893   7.779   4.830   5.159 -0.9657 -0.3104 -0.3553
13772SOL    HW141894   7.699   4.861   5.202 -0.0984 -0.8536  1.7744
13772SOL    HW241895   7.747   4.770   5.091 -2.4089  0.6550 -0.5711
13773SOL     OW41896   3.489   3.123   4.145 -0.2181 -0.3806 -0.7863
13773SOL    HW141897   3.513   3.062   4.214  1.1381 -2.1396 -2.6754
13773SOL    HW241898   3.420   3.177   4.183  1.7063  0.0130  2.5329
13774SOL     OW41899   8.743   4.368   8.301 -0.2227  0.5767  0.4545
13774SOL    HW141900   8.740   4.378   8.396  0.1138 -1.1953  0.6772
13774SOL    HW241901   8.698   4.286   8.284 -1.6862  1.6410 -1.0927
13775SOL     OW41902   9.752   2.134   4.642  0.5891  0.6060  0.1072
13775SOL    HW141903   9.835   2.159   4.684  0.9949  0.8635 -0.8330
13775SOL    HW241904   9.763   2.042   4.620 -0.0994  0.1114  1.6453
13776SOL     OW41905   0.132   9.748   5.595 -0.4561  0.1645 -0.2214
13776SOL    HW141906   0.186   9.679   5.557 -2.0322 -0.3521 -1.6496
13776SOL    HW241907   0.173   9.830   5.564 -0.4193 -0.2068 -1.1872
13777SOL     OW41908  -0.000   3.384   4.316  0.2878  0.0515 -0.0478
13777SOL    HW141909   0.094   3.388   4.302  0.7671 -2.7528  1.5573
13777SOL    HW241910  -0.036   3.453   4.260  3.2525  1.2129 -0.7051
13778SOL     OW41911   2.923   7.095   8.048 -0.1001  0.1698  0.5825
13778SOL    HW141912   2.848   7.076   7.990  0.0328  0.3548  0.3489
13778SOL    HW241913   2.995   7.044   8.010 -0.2386 -0.4566  1.1336
13779SOL     OW41914   7.072   3.580   8.130 -0.2340  0.6362 -0.1464
13779SOL    HW141915   7.027   3.616   8.054  0.4037 -0.9667 -1.3602
13779SOL    HW241916   7.011   3.515   8.165 -0.9621  2.1013  1.3955
13780SOL     OW41917   3.374   7.770   4.418  0.2848 -0.0916 -0.7030
13780SOL    HW141918   3.407   7.690   4.459  0.8313  0.5209  0.0998
13780SOL    HW241919   3.429   7.840   4.455 -0.9282  0.7856 -0.4861
13781SOL     OW41920   8.393   9.665   8.088 -0.6671  0.3148  0.5276
13781SOL    HW141921   8.351   9.592   8.134  0.0317 -0.5002 -0.0808
13781SOL    HW241922   8.393   9.737   8.151  1.4933 -1.1514  2.3776
13782SOL     OW41923   3.120   5.925   8.748 -0.2104 -0.7328  0.0377
13782SOL    HW141924   3.201   5.950   8.704 -0.2582  0.5447  0.6179
13782SOL    HW241925   3.077   6.008   8.769 -0.2993 -1.2563  2.2490
13783SOL     OW41926   9.165   5.976   9.376 -0.1035 -0.1726  0.1769
13783SOL    HW141927   9.233   6.023   9.328 -0.2352  0.6261  0.7511
13783SOL    HW241928   9.175   5.885   9.348  1.3525 -0.1173  0.4010
13784SOL     OW41929   6.062   1.320   2.223  0.6681 -0.2161  0.3561
13784SOL    HW141930   5.991   1.277   2.174  0.3814  2.3487 -1.6737
13784SOL    HW241931   6.134   1.326   2.161  1.4296  0.3618  1.2750
13785SOL     OW41932   0.618   1.063   4.981  0.2412 -0.2981  0.6423
13785SOL    HW141933   0.711   1.072   4.958 -0.0248  0.6834 -0.1175
13785SOL    HW241934   0.619   1.037   5.073  1.2685 -0.0658  0.7125
13786SOL     OW41935   5.685   1.368   5.455  0.1333 -0.2073  0.0713
13786SOL    HW141936   5.594   1.362   5.427 -0.2782 -0.7930  1.4729
13786SOL    HW241937   5.694   1.303   5.524  1.3384  0.5676  0.6870
13787SOL     OW41938   6.439   7.667   0.340 -0.3786 -0.5502  0.4910
13787SOL    HW141939   6.402   7.755   0.349 -0.0512 -0.3476 -0.0962
13787SOL    HW241940   6.478   7.649   0.425 -1.1705 -0.4698  0.8871
13788SOL     OW41941   7.241   8.283   7.049 -0.4181 -0.2694  0.1795
13788SOL    HW141942   7.191   8.265   7.130 -0.6033  0.4272  0.2255
13788SOL    HW241943   7.322   8.234   7.060 -0.1358  0.3736  1.1128
13789SOL     OW41944   6.941   8.048   6.675  0.6298 -0.2901 -0.4203
13789SOL    HW141945   6.867   8.022   6.729  0.1601  0.0862 -0.8674
13789SOL    HW241946   6.901   8.090   6.599  1.3117  0.0618 -0.5898
13790SOL     OW41947   3.895   3.330   1.994  0.2352  0.2491 -0.2360
13790SOL    HW141948   3.930   3.419   1.987  0.5793  0.3630  2.1852
13790SOL    HW241949   3.837   3.332   2.069 -0.1635 -1.4652 -0.4466
13791SOL     OW41950   9.178   0.291   0.179 -0.1723  0.3404  0.1890
13791SOL    HW141951   9.137   0.296   0.265  1.3089 -0.0291  0.9623
13791SOL    HW241952   9.171   0.379   0.143 -0.7460  0.5164  0.7257
13792SOL     OW41953   1.540   2.521   3.848  0.4224  0.6220 -0.4679
13792SOL    HW141954   1.602   2.523   3.774  0.4112 -1.2846 -0.5644
13792SOL    HW241955   1.546   2.432   3.882 -0.6069  1.0765  0.9785
13793SOL     OW41956   2.144   9.509   9.477 -0.1494  0.6464  0.0515
13793SOL    HW141957   2.085   9.442   9.442  0.0065 -0.0078  1.0196
13793SOL    HW241958   2.221   9.504   9.421  1.7147 -3.0002  2.5682
13794SOL     OW41959   4.889   6.647   6.412 -0.5660 -0.3032  0.0930
13794SOL    HW141960   4.935   6.594   6.348 -0.9809 -0.8232  0.2221
13794SOL    HW241961   4.801   6.657   6.377 -0.1689  1.3061 -0.5152
13795SOL     OW41962   7.102   9.607   5.136  0.4228  0.2605 -0.1530
13795SOL    HW141963   7.169   9.604   5.205  0.6136  0.8823 -0.3079
13795SOL    HW241964   7.128   9.537   5.076 -0.9720 -1.7888  1.4865
13796SOL     OW41965   4.259   3.699   5.389 -0.4004 -0.1317 -0.0901
13796SOL    HW141966   4.172   3.706   5.351  0.3800  0.7122 -1.8792
13796SOL    HW241967   4.250   3.733   5.478 -1.4098  2.3978 -1.0783
13797SOL     OW41968   5.325   0.597   3.618 -0.3646 -0.1408  0.8699
13797SOL    HW141969   5.407   0.575   3.663  0.6071  2.6387  0.6537
13797SOL    HW241970   5.347   0.596   3.525 -0.1634  1.7808  0.8499
13798SOL     OW41971   9.327   1.817   2.192 -0.5280  0.1028  0.4146
13798SOL    HW141972   9.363   1.756   2.256 -1.4485  0.7652  1.5876
13798SOL    HW241973   9.337   1.903   2.232 -0.4860  0.6095 -0.6410
13799SOL     OW41974   2.618   9.868   8.356  0.2403 -0.3831  0.4095
13799SOL    HW141975   2.634   9.882   8.263  0.7669  0.2280  0.5847
13799SOL    HW241976   2.663   9.786   8.377 -0.6698 -1.0163 -0.0694
13800SOL     OW41977   0.381   9.137   4.890 -0.5706  0.0932  0.2592
13800SOL    HW141978   0.317   9.129   4.819 -1.0586  0.3425  0.6723
13800SOL    HW241979   0.346   9.084   4.961  0.6187 -1.3465 -0.1616
13801SOL     OW41980   9.780   6.826   7.612 -0.2208 -0.0473  0.5586
13801SOL    HW141981   9.797   6.899   7.671 -0.3938  0.9137 -0.5317
13801SOL    HW241982   9.860   6.817   7.561  0.5887 -2.0262  2.0704
13802SOL     OW41983   0.851   3.246   3.957  0.5394  0.0219  0.2199
13802SOL    HW141984   0.906   3.205   4.023  0.1353 -0.1699  0.4440
13802SOL    HW241985   0.776   3.187   3.949 -0.3040  0.9536  0.9225
13803SOL     OW41986   1.540   0.768   6.279 -0.0956  0.0654  0.1042
13803SOL    HW141987   1.561   0.724   6.362  4.4080 -2.2910 -1.9533
13803SOL    HW241988   1.586   0.852   6.285  0.9249 -0.4553 -0.2705
13804SOL     OW41989   7.338   3.005   6.843 -0.3563 -0.0730  0.1899
13804SOL    HW141990   7.394   3.042   6.911  1.2954 -0.2924 -0.9828
13804SOL    HW241991   7.368   2.914   6.834 -0.6656 -0.1017 -0.6711
13805SOL     OW41992   0.262   3.636   5.654 -0.0984 -0.3077 -0.3219
13805SOL    HW141993   0.289   3.661   5.742  0.1037 -0.0547 -0.4546
13805SOL    HW241994   0.212   3.711   5.622  0.9082  0.1442 -0.8999
13806SOL     OW41995   0.457   9.931   1.206 -0.6262  0.3734  0.3475
13806SOL    HW141996   0.373   9.958   1.171 -0.7593 -0.0341  0.3429
13806SOL    HW241997   0.466   9.839   1.180 -0.7178  0.0694  1.3479
13807SOL     OW41998   4.056   3.057   6.046  0.3515 -0.4439 -0.6128
13807SOL    HW141999   4.111   2.980   6.034 -0.4056 -1.2440  0.7775
13807SOL    HW242000   4.113   3.121   6.090  0.0550 -1.5207  1.4860
13808SOL     OW42001   0.590   3.152   9.101 -0.8969 -0.5268  0.2086
13808SOL    HW142002   0.507   3.109   9.080 -1.1252 -0.0774  0.1720
13808SOL    HW242003   0.652   3.115   9.039 -0.6911 -2.0673  1.2785
13809SOL     OW42004   6.631   6.044   2.464  0.8206 -0.1541 -0.4760
13809SOL    HW142005   6.610   5.959   2.426  0.1609 -0.5780  0.7702
13809SOL    HW242006   6.546   6.080   2.489  1.1087  0.8019 -0.8281
13810SOL     OW42007   2.012   9.869   9.167  0.4588  0.5330 -0.0482
13810SOL    HW142008   1.945   9.801   9.179  1.4621 -0.5683 -0.4481
13810SOL    HW242009   2.002   9.896   9.076  0.7308  0.1482 -0.1987
13811SOL     OW42010   2.691   0.994   7.254  0.4168  0.0324  0.4195
13811SOL    HW142011   2.743   0.917   7.279 -0.2650 -0.7493 -0.5150
13811SOL    HW242012   2.703   1.001   7.159  0.0047  0.7388  0.4167
13812SOL     OW42013  -0.019   2.656   3.231 -0.2934 -0.0236 -0.1513
13812SOL    HW142014  -0.055   2.740   3.258 -1.0433  0.0992 -1.4329
13812SOL    HW242015   0.076   2.666   3.240 -0.4109  0.7376  0.2841
13813SOL     OW42016   5.264   5.511   3.593  0.9478  0.2384  0.3202
13813SOL    HW142017   5.201   5.580   3.612  0.5997  0.2351 -0.7877
13813SOL    HW242018   5.227   5.464   3.518  2.0767  0.0013 -0.1031
13814SOL     OW42019   7.004   2.134   4.025 -0.3020  0.2856  0.3923
13814SOL    HW142020   6.951   2.118   4.103  0.5276 -0.9683  0.7461
13814SOL    HW242021   7.093   2.108   4.051 -0.0811 -0.5495 -1.0847
13815SOL     OW42022   2.027   0.087   8.622 -0.0769  0.0435 -0.0321
13815SOL    HW142023   2.028   0.053   8.532 -0.2084  2.0732 -0.8520
13815SOL    HW242024   2.119   0.093   8.646 -0.0564 -2.1017  0.6756
13816SOL     OW42025   2.024   1.773   4.053  0.6057  0.5144 -0.4361
13816SOL    HW142026   2.022   1.858   4.009  0.1008  1.0585  0.5966
13816SOL    HW242027   2.115   1.761   4.080  1.0874 -0.1592 -2.1966
13817SOL     OW42028   7.403   2.546   3.890  0.3429  0.1903  0.2610
13817SOL    HW142029   7.394   2.641   3.902 -1.9568 -0.2282  2.7925
13817SOL    HW242030   7.331   2.522   3.833  1.5080  0.0149 -1.2008
13818SOL     OW42031   0.773   0.795   9.294  0.5303  0.0968 -0.4213
13818SOL    HW142032   0.732   0.847   9.224  0.4005  1.7252  0.8044
13818SOL    HW242033   0.718   0.718   9.302  0.1709  0.1948 -1.6614
13819SOL     OW42034   5.120   5.957   3.122 -0.0360 -0.1365 -0.3442
13819SOL    HW142035   5.206   5.923   3.145 -0.0309 -0.0568 -0.2421
13819SOL    HW242036   5.115   6.042   3.167 -0.1786 -0.1541 -0.3257
13820SOL     OW42037   4.080   0.500   6.194  0.1038 -0.1153  0.5426
13820SOL    HW142038   4.045   0.411   6.190 -0.3923  0.0854  0.2770
13820SOL    HW242039   4.165   0.495   6.150  0.2475 -0.5314  0.8607
13821SOL     OW42040   0.328   9.231   2.322 -0.2500 -0.6070  0.0594
13821SOL    HW142041   0.279   9.277   2.391  0.3169 -0.3826  0.3168
13821SOL    HW242042   0.351   9.147   2.361  1.0886 -0.0238  0.5837
13822SOL     OW42043   7.119   4.385   8.713 -0.7559 -0.2552 -0.1091
13822SOL    HW142044   7.079   4.471   8.722 -2.4162 -1.1040  1.2703
13822SOL    HW242045   7.051   4.331   8.672 -0.1277 -1.1628  0.0059
13823SOL     OW42046   0.583   2.655   0.493 -0.2673 -0.0806 -0.6058
13823SOL    HW142047   0.667   2.653   0.447 -0.3410  0.4701 -0.7732
13823SOL    HW242048   0.538   2.730   0.455 -0.6760 -0.1404 -0.2343
13824SOL     OW42049   7.531   6.329   5.247  0.0186  0.2019  0.8763
13824SOL    HW142050   7.492   6.257   5.198 -0.9637  0.8437  0.6763
13824SOL    HW242051   7.624   6.307   5.253  0.0718 -0.1474 -0.8378
13825SOL     OW42052   7.754   8.179   4.359 -0.7191  1.0811 -0.0468
13825SOL    HW142053   7.704   8.206   4.436 -0.6731  1.1062 -0.0257
13825SOL    HW242054   7.766   8.259   4.308 -0.2674  1.1736  0.1962
13826SOL     OW42055   6.933   9.700   8.071 -0.3805  0.0128  0.3928
13826SOL    HW142056   6.934   9.671   8.162  2.5009 -0.4990  0.2999
13826SOL    HW242057   6.885   9.632   8.024  0.4042 -1.1335  1.1953
13827SOL     OW42058   7.340   3.247   4.003  0.1541 -0.2966  0.0677
13827SOL    HW142059   7.327   3.328   3.953  0.8459 -0.4633 -0.4006
13827SOL    HW242060   7.252   3.211   4.016 -0.1106  0.2594 -0.1730
13828SOL     OW42061   7.939   7.457   2.495 -0.6631 -0.0324 -0.5373
13828SOL    HW142062   7.856   7.426   2.530 -1.8623  3.1397 -0.2469
13828SOL    HW242063   7.993   7.472   2.572 -0.3453 -0.6410 -0.6325
13829SOL     OW42064   9.966   8.728   1.232 -0.0091 -0.2837 -0.0297
13829SOL    HW142065   9.934   8.767   1.151 -0.2193  0.4096  0.3848
13829SOL    HW242066   9.893   8.674   1.264 -0.4506  0.5680  0.4339
13830SOL     OW42067   9.854   7.711   2.791 -0.0458 -0.8190  0.0231
13830SOL    HW142068   9.942   7.749   2.797  0.5334 -2.2338  1.2185
13830SOL    HW242069   9.861   7.648   2.719  0.1526 -1.4468  0.5791
13831SOL     OW42070   8.388   0.191   8.351 -0.1488 -0.4198  0.1629
13831SOL    HW142071   8.420   0.180   8.440  0.4315  0.3364  0.0613
13831SOL    HW242072   8.297   0.217   8.361 -0.2489 -0.8958  0.5136
13832SOL     OW42073   0.059   9.510   6.986 -0.4278 -0.0292  0.4753
13832SOL    HW142074   0.044   9.550   6.901 -1.8707  2.6120  1.8353
13832SOL    HW242075  -0.012   9.447   6.996  0.5591 -1.3961 -0.7845
13833SOL     OW42076   8.024   4.636   8.488  0.2931  0.9368  0.3163
13833SOL    HW142077   8.069   4.551   8.490 -0.7204  0.3524 -0.4010
13833SOL    HW242078   8.051   4.675   8.405  1.8585  1.9655  1.2789
13834SOL     OW42079   9.141   1.139   2.756  0.4115 -0.1019 -0.0926
13834SOL    HW142080   9.199   1.085   2.702 -0.2876 -1.2994  0.3008
13834SOL    HW242081   9.093   1.075   2.809  0.4136  0.9848  1.2663
13835SOL     OW42082   0.242   2.561   5.594  0.2318 -0.3916  0.3627
13835SOL    HW142083   0.165   2.508   5.612 -1.5237  1.7244 -0.5272
13835SOL    HW242084   0.267   2.537   5.505 -0.4382  0.0862  0.0359
13836SOL     OW42085   1.101   0.816   7.839 -0.1614 -0.0719 -0.5621
13836SOL    HW142086   1.160   0.886   7.811  0.1086 -0.1391 -0.1722
13836SOL    HW242087   1.014   0.855   7.837  0.1142  0.6943  0.9267
13837SOL     OW42088   6.554   0.715   9.412  0.1450 -0.1534  0.9656
13837SOL    HW142089   6.469   0.706   9.455 -0.0363 -0.4959  0.5317
13837SOL    HW242090   6.536   0.765   9.333  0.0419 -1.7009 -0.0292
13838SOL     OW42091   1.175   5.791   1.485 -0.4444  0.6056  0.1599
13838SOL    HW142092   1.218   5.768   1.402  0.1052  1.4185  0.2024
13838SOL    HW242093   1.203   5.723   1.546  0.8099  1.1062  0.1830
13839SOL     OW42094   3.171   8.014   5.607 -0.2731  0.3209 -0.1490
13839SOL    HW142095   3.143   7.944   5.549  1.3776  1.3942 -2.3697
13839SOL    HW242096   3.127   8.092   5.574  3.9752  1.8630 -3.0952
13840SOL     OW42097   5.041   6.538   6.221 -0.1132  0.0321 -0.1742
13840SOL    HW142098   5.047   6.444   6.240 -0.7159 -0.1529 -0.8458
13840SOL    HW242099   5.103   6.552   6.150  1.8931  0.6626  1.5730
13841SOL     OW42100   8.701   5.091   8.562 -0.0840 -0.2247  0.0465
13841SOL    HW142101   8.769   5.156   8.579 -1.1007  0.9666 -0.3029
13841SOL    HW242102   8.638   5.102   8.633 -0.0963 -1.0551  0.1674
13842SOL     OW42103   5.442   5.114   1.177 -0.1313  0.3071 -0.5975
13842SOL    HW142104   5.420   5.022   1.165  0.3448  0.1146 -0.0466
13842SOL    HW242105   5.471   5.144   1.091 -0.0254 -0.1322 -0.7122
13843SOL     OW42106   8.789   8.968   6.339 -0.3857 -0.0637 -0.1907
13843SOL    HW142107   8.864   9.009   6.296 -0.4562  0.7039  0.4156
13843SOL    HW242108   8.728   9.039   6.355 -0.9732 -0.5794 -0.0939
13844SOL     OW42109   4.054   9.699   4.862 -0.1462  0.1100  0.0094
13844SOL    HW142110   4.054   9.770   4.926  1.3643  1.1330 -1.0471
13844SOL    HW242111   4.118   9.726   4.796  0.0959 -2.0053 -0.7150
13845SOL     OW42112   8.109   0.959   9.662 -0.0285  0.4233  0.1214
13845SOL    HW142113   8.031   0.986   9.613 -0.5635 -0.2525  0.5889
13845SOL    HW242114   8.089   0.870   9.693  0.0142  1.0507  2.1119
13846SOL     OW42115   0.206   7.662   6.859 -0.1514 -0.0883 -0.6764
13846SOL    HW142116   0.150   7.622   6.792 -1.7260 -1.2697  1.2350
13846SOL    HW242117   0.169   7.632   6.942  3.0724 -0.5669  0.7363
13847SOL     OW42118   1.451   9.664   6.065  0.2120  0.2635  0.1714
13847SOL    HW142119   1.466   9.595   6.001 -2.5944 -1.7234  1.4930
13847SOL    HW242120   1.449   9.745   6.013  1.3882 -0.8381 -1.7057
13848SOL     OW42121   8.937   2.965   5.918 -0.3747 -0.9474 -0.1197
13848SOL    HW142122   8.857   2.949   5.868 -1.4350  0.4904  1.0377
13848SOL    HW242123   8.982   3.034   5.869 -0.4713 -0.8533 -0.0747
13849SOL     OW42124   1.618   4.656   4.548 -0.2874  0.6896  0.6945
13849SOL    HW142125   1.569   4.738   4.546 -1.7487 -0.1050  2.0786
13849SOL    HW242126   1.607   4.624   4.637  3.9333  1.1119  1.5785
13850SOL     OW42127   0.252   5.723   3.363  0.2156 -0.3588  0.1962
13850SOL    HW142128   0.312   5.695   3.431  0.5724  0.2462  0.1444
13850SOL    HW242129   0.251   5.651   3.300  0.3670 -0.6549  0.5332
13851SOL     OW42130   9.574   4.415   9.013 -0.4338  0.2638 -0.3737
13851SOL    HW142131   9.565   4.510   9.019  2.4112  0.5853  0.2127
13851SOL    HW242132   9.623   4.400   8.933  1.8765 -0.3802  1.0670
13852SOL     OW42133   3.830   6.819   8.422  0.1820  0.5988  0.3292
13852SOL    HW142134   3.791   6.902   8.448  1.5897  1.4497 -0.1842
13852SOL    HW242135   3.837   6.824   8.327 -0.4864 -0.4790  0.2012
13853SOL     OW42136   4.163   2.245   2.802  0.5100  0.2147 -0.4313
13853SOL    HW142137   4.181   2.164   2.752 -0.6547  0.4226 -1.2285
13853SOL    HW242138   4.154   2.312   2.735 -2.0942  0.3251 -0.0797
13854SOL     OW42139   2.509   5.029   7.519 -1.0966 -0.1647  0.3413
13854SOL    HW142140   2.519   4.934   7.527 -1.7725 -0.1686  1.4284
13854SOL    HW242141   2.576   5.055   7.456 -1.1229 -1.4003 -0.2409
13855SOL     OW42142   5.976   4.377   9.241  0.0786  0.3530  0.1239
13855SOL    HW142143   5.926   4.457   9.258  0.1457  0.2648  0.7813
13855SOL    HW242144   5.966   4.326   9.321  1.6752  0.5751  0.5153
13856SOL     OW42145   7.066   2.239   5.566  0.2632 -0.0691  0.0978
13856SOL    HW142146   7.076   2.156   5.612  0.2129  0.6723  1.5003
13856SOL    HW242147   7.136   2.294   5.601  0.0640  0.6035 -0.5342
13857SOL     OW42148   6.007   8.239   1.388 -0.1404  0.1623 -0.2053
13857SOL    HW142149   6.070   8.167   1.381 -0.4436 -0.3221  1.7600
13857SOL    HW242150   5.936   8.205   1.441 -1.4494  1.1585 -1.2485
13858SOL     OW42151   3.766   8.523   1.103 -0.2914  0.2312  0.4041
13858SOL    HW142152   3.711   8.543   1.027  1.7353  0.4643 -1.1181
13858SOL    HW242153   3.815   8.604   1.118 -0.3226  0.0258  1.6820
13859SOL     OW42154   1.991   6.053   2.501  0.6142 -0.0048  0.6135
13859SOL    HW142155   1.930   6.123   2.476  1.3693  0.8707  1.1322
13859SOL    HW242156   2.046   6.040   2.423 -0.4106 -1.0189  0.0360
13860SOL     OW42157   8.579   1.429   6.706 -0.2722  0.3205 -0.3286
13860SOL    HW142158   8.511   1.380   6.753 -0.5216  0.4465 -0.5583
13860SOL    HW242159   8.531   1.491   6.650 -0.0096 -0.5438 -1.5487
13861SOL     OW42160   6.370   1.602   1.610 -0.0590 -0.4504 -0.0461
13861SOL    HW142161   6.302   1.548   1.568 -0.0217 -2.0126  1.7635
13861SOL    HW242162   6.339   1.614   1.700  0.5852  1.5128 -0.0297
13862SOL     OW42163   0.474   6.725   4.381  0.0718  0.0242  0.4624
13862SOL    HW142164   0.527   6.646   4.384 -0.8261 -0.5861  0.9640
13862SOL    HW242165   0.532   6.795   4.413  0.5922 -0.6026  0.9132
13863SOL     OW42166   0.460   1.056   1.961  0.3482 -0.0588  0.5785
13863SOL    HW142167   0.526   1.122   1.983  1.2580  0.4208 -2.9585
13863SOL    HW242168   0.500   0.973   1.987  2.1405  0.2897 -0.8576
13864SOL     OW42169   1.028   2.765   2.573  0.9176  0.5753 -0.1380
13864SOL    HW142170   1.013   2.776   2.667 -0.2269  0.1477 -0.2436
13864SOL    HW242171   1.051   2.673   2.564  1.2592  0.6730 -0.2496
13865SOL     OW42172   9.340   9.315   2.847  0.7267 -0.5036 -0.2816
13865SOL    HW142173   9.368   9.225   2.830  0.7429 -0.4141 -0.7479
13865SOL    HW242174   9.298   9.343   2.765 -1.7417 -1.0053  0.7197
13866SOL     OW42175   2.419   6.881   6.058  0.3072 -0.0789 -0.2477
13866SOL    HW142176   2.391   6.964   6.019  1.0123  0.1148 -0.3482
13866SOL    HW242177   2.498   6.857   6.010 -0.1924 -1.0908 -0.5874
13867SOL     OW42178   8.115   2.321   1.505  0.2275  0.2802  0.0588
13867SOL    HW142179   8.066   2.331   1.423  1.0147  0.5730 -0.3802
13867SOL    HW242180   8.115   2.227   1.522 -0.7090  0.2912  0.2083
13868SOL     OW42181   8.532   6.603   2.876  0.3390  0.1428 -0.5094
13868SOL    HW142182   8.609   6.550   2.895  0.1737  0.1385  0.1867
13868SOL    HW242183   8.501   6.572   2.791 -0.2832 -1.5287  0.2758
13869SOL     OW42184   7.134   3.158   4.910  0.6442  0.2071  0.3760
13869SOL    HW142185   7.159   3.250   4.918  1.5398  0.0205 -0.0998
13869SOL    HW242186   7.199   3.121   4.851  0.0350 -0.6391  0.2207
13870SOL     OW42187   0.480   0.521   1.079 -0.0050  0.1117  0.0388
13870SOL    HW142188   0.474   0.426   1.075 -0.1849  0.0799  0.8783
13870SOL    HW242189   0.431   0.545   1.158  0.7954  0.8164  0.3390
13871SOL     OW42190   8.462   8.008   2.601 -0.1593 -0.7599 -0.1660
13871SOL    HW142191   8.368   7.992   2.595 -0.2170 -1.1974  1.3730
13871SOL    HW242192   8.475   8.041   2.690  1.2154 -1.1843 -0.1840
13872SOL     OW42193   4.167   2.623   1.227  0.2257  0.1535  0.2901
13872SOL    HW142194   4.188   2.627   1.133 -0.3037 -0.7366  0.1225
13872SOL    HW242195   4.247   2.589   1.268  0.3004  0.1022  0.1047
13873SOL     OW42196   1.637   7.684   5.296 -0.1713 -0.0445 -0.5543
13873SOL    HW142197   1.620   7.621   5.226 -0.3709  0.5636 -1.0643
13873SOL    HW242198   1.550   7.712   5.324 -0.0717  0.7796 -1.0511
13874SOL     OW42199   5.275   6.673   6.584  0.8435  0.2271  0.9025
13874SOL    HW142200   5.366   6.653   6.561  1.0154  0.6634  1.1738
13874SOL    HW242201   5.265   6.636   6.672  0.2962 -1.1351  0.2819
13875SOL     OW42202   1.277   4.688   6.348  0.1564 -0.5590  0.1056
13875SOL    HW142203   1.340   4.617   6.360  1.2834  0.3458 -0.2363
13875SOL    HW242204   1.263   4.692   6.253 -0.9612 -1.2003  0.2343
13876SOL     OW42205   4.789   1.557   9.896 -0.7460 -0.1443  0.3689
13876SOL    HW142206   4.725   1.512   9.952 -1.7537 -0.0093 -0.6527
13876SOL    HW242207   4.825   1.488   9.840  0.3759 -0.3071  1.2414
13877SOL     OW42208   3.621   7.453   5.412  0.5281  0.1499 -0.1970
13877SOL    HW142209   3.633   7.382   5.348  0.1176  0.3965 -0.5521
13877SOL    HW242210   3.625   7.533   5.360 -0.9257  0.3134 -0.0855
13878SOL     OW42211   0.403   6.457   5.939  0.2271  0.0022 -0.3443
13878SOL    HW142212   0.365   6.429   6.023  2.1683  0.7541  0.8583
13878SOL    HW242213   0.388   6.552   5.937  0.6254  0.0625 -0.6026
13879SOL     OW42214   3.118   2.609   5.633 -0.8808 -0.2005 -0.0732
13879SOL    HW142215   3.103   2.689   5.584  1.5664 -0.0717 -0.7539
13879SOL    HW242216   3.195   2.628   5.686 -0.8975 -1.7615  0.5615
13880SOL     OW42217   7.805   5.437   9.923 -0.4154  0.0241  0.4019
13880SOL    HW142218   7.783   5.528   9.902  0.3896 -0.0682 -0.9629
13880SOL    HW242219   7.746   5.385   9.869 -0.2827 -0.2626  0.5317
13881SOL     OW42220   4.558   8.533   8.194 -0.0242 -0.2776 -0.0157
13881SOL    HW142221   4.481   8.584   8.172  1.5963  2.0471 -0.6531
13881SOL    HW242222   4.622   8.555   8.126  1.6786 -1.0022  1.2686
13882SOL     OW42223   9.582   1.619   8.758 -0.3132  0.5719 -0.1875
13882SOL    HW142224   9.649   1.589   8.697 -0.0652 -0.6587  0.6555
13882SOL    HW242225   9.630   1.644   8.837 -0.7555  0.6009  0.0778
13883SOL     OW42226   5.932   2.361   3.080  0.0025  0.2455  0.0072
13883SOL    HW142227   5.842   2.392   3.085  0.1769  1.0627 -1.3580
13883SOL    HW242228   5.949   2.323   3.166 -0.8692  2.2097  1.1266
13884SOL     OW42229   3.199   4.798   5.850  0.3935  0.1290  0.2587
13884SOL    HW142230   3.228   4.794   5.759  2.4275  0.4715  0.8577
13884SOL    HW242231   3.145   4.877   5.855 -0.2719 -0.2410 -0.7655
13885SOL     OW42232   5.407   4.857   3.151 -0.0947  0.3784 -0.1725
13885SOL    HW142233   5.335   4.837   3.211  0.3737 -0.0257  0.2687
13885SOL    HW242234   5.446   4.771   3.131 -0.3279  0.5003 -1.1602
13886SOL     OW42235   3.241   6.328   0.556  0.1615  0.8964 -0.7012
13886SOL    HW142236   3.177   6.262   0.529  2.2643 -1.3225 -0.5913
13886SOL    HW242237   3.261   6.306   0.647  2.4679  0.2535 -1.2990
13887SOL     OW42238   5.930   2.921   5.323  0.0034  0.0529 -0.3017
13887SOL    HW142239   5.958   2.986   5.388 -0.6030  0.8822 -0.8682
13887SOL    HW242240   5.984   2.844   5.343  1.0085  0.8456  0.1260
13888SOL     OW42241   1.646   8.352   3.997 -0.2027  0.4141 -0.0920
13888SOL    HW142242   1.572   8.383   4.050 -0.0815 -0.1751  0.4337
13888SOL    HW242243   1.721   8.401   4.029 -0.0509 -0.2526  0.5864
13889SOL     OW42244   4.532   2.926   4.742 -0.0500 -0.1953 -0.1243
13889SOL    HW142245   4.586   2.848   4.732 -0.4368 -0.3077 -1.5383
13889SOL    HW242246   4.517   2.957   4.653 -1.5420  0.3630  0.2819
13890SOL     OW42247   5.135   4.110   0.867  0.6588 -0.1044 -0.2724
13890SOL    HW142248   5.175   4.128   0.952 -0.4563  1.1206  0.0200
13890SOL    HW242249   5.199   4.054   0.823  1.1174 -1.0184  1.4685
13891SOL     OW42250   2.543   1.056   3.227  0.0865  0.1143  0.1194
13891SOL    HW142251   2.493   0.974   3.223 -0.7569  0.6598 -0.6896
13891SOL    HW242252   2.481   1.121   3.260  0.5121  0.6232 -0.0597
13892SOL     OW42253   2.235   8.741   1.018  0.3172 -0.8360 -0.0188
13892SOL    HW142254   2.223   8.660   0.968 -1.5239 -0.0757 -0.9077
13892SOL    HW242255   2.146   8.770   1.037  0.9340  1.1550 -0.0164
13893SOL     OW42256   5.259   5.491   0.989 -0.3848 -0.6320  0.4086
13893SOL    HW142257   5.306   5.504   1.071  1.9786 -1.2948 -0.7570
13893SOL    HW242258   5.184   5.551   0.994 -0.6367 -1.0467  3.2320
13894SOL     OW42259   3.815   7.218   1.171 -0.3019 -0.1310  0.5122
13894SOL    HW142260   3.816   7.139   1.117  2.3912  0.5904 -0.6245
13894SOL    HW242261   3.731   7.259   1.151  0.7976  0.4958 -3.8628
13895SOL     OW42262   1.250   7.467   1.525 -0.0860  0.1375  0.1283
13895SOL    HW142263   1.302   7.516   1.588  1.6407 -1.2791 -0.0982
13895SOL    HW242264   1.160   7.491   1.544  0.5335  1.4690  1.6213
13896SOL     OW42265   4.805   5.264   5.792 -0.2069 -0.2728 -0.2830
13896SOL    HW142266   4.739   5.308   5.739 -0.2897  0.5076  0.4343
13896SOL    HW242267   4.776   5.173   5.796 -1.0770 -0.0055 -0.2493
13897SOL     OW42268   0.270   2.295   3.000  0.2946  0.2399 -0.3025
13897SOL    HW142269   0.236   2.384   2.996 -2.4543 -0.7753 -2.4277
13897SOL    HW242270   0.244   2.264   3.087 -1.6446  0.5359 -0.7203
13898SOL     OW42271   5.267   9.012   4.187 -0.3363  0.3524  0.1407
13898SOL    HW142272   5.335   9.020   4.255  0.2785  1.0310 -0.5387
13898SOL    HW242273   5.315   8.980   4.110 -1.1540 -1.1384  0.2117
13899SOL     OW42274   8.998   7.058   1.030  0.0441  0.1775 -0.5757
13899SOL    HW142275   9.080   7.027   1.069 -0.1524  0.0186 -0.2803
13899SOL    HW242276   8.934   6.989   1.051 -0.5708  1.0789  0.6896
13900SOL     OW42277   7.324   2.662   6.310  0.1168  0.1878 -0.0065
13900SOL    HW142278   7.400   2.720   6.303 -0.4784  1.3504  2.2688
13900SOL    HW242279   7.248   2.719   6.302 -0.4866 -0.3370  1.6093
13901SOL     OW42280   2.676   8.548   2.042  0.1139 -0.2242 -0.3675
13901SOL    HW142281   2.734   8.575   2.113 -1.0745 -0.3778  0.7111
13901SOL    HW242282   2.631   8.629   2.016  0.8512 -0.0866 -1.2594
13902SOL     OW42283   2.074   6.283   4.876 -0.1646  0.4605  0.0096
13902SOL    HW142284   2.031   6.335   4.945  0.0379 -0.1354  0.5860
13902SOL    HW242285   2.147   6.337   4.848 -1.5033  1.7055 -1.2994
13903SOL     OW42286   0.263   0.529   8.822 -0.2359 -0.0117  0.4326
13903SOL    HW142287   0.269   0.441   8.858  1.0656  0.3890  1.2458
13903SOL    HW242288   0.354   0.557   8.809 -0.5938  0.2971 -2.1433
13904SOL     OW42289   2.163   1.945   0.737  0.3283  0.2358  0.4807
13904SOL    HW142290   2.230   1.973   0.800  0.7777  0.4876 -0.0924
13904SOL    HW242291   2.175   2.004   0.662 -0.3979  0.1417  0.2843
13905SOL     OW42292   4.196   6.420   5.359 -0.5654 -0.1670  0.0815
13905SOL    HW142293   4.173   6.327   5.356 -0.6951 -0.2339  1.7891
13905SOL    HW242294   4.112   6.466   5.355 -0.5370 -0.1421 -0.2421
13906SOL     OW42295   1.494   0.869   9.592  0.3072  0.4299 -0.4408
13906SOL    HW142296   1.456   0.787   9.623  1.9195  0.1881  1.0811
13906SOL    HW242297   1.421   0.930   9.588 -0.7193 -0.7687 -0.4948
13907SOL     OW42298   6.405   2.697   2.592 -0.3441 -0.0498 -0.2534
13907SOL    HW142299   6.325   2.652   2.566 -0.1333 -2.4213  2.6673
13907SOL    HW242300   6.474   2.656   2.538 -0.4397 -1.9239  0.9689
13908SOL     OW42301   4.421   8.408   2.972 -0.2215  0.0656 -0.2095
13908SOL    HW142302   4.480   8.379   3.041  0.7889  0.1631 -1.0116
13908SOL    HW242303   4.476   8.460   2.913 -1.1686  0.4091 -0.8169
13909SOL     OW42304   1.166   8.190   4.413 -0.8184  0.8069 -0.0767
13909SOL    HW142305   1.192   8.150   4.496 -0.3710  0.1674 -0.5157
13909SOL    HW242306   1.237   8.168   4.352 -0.1579  2.9209 -0.1651
13910SOL     OW42307   4.303   0.909   3.648 -0.0144  0.5921 -0.3343
13910SOL    HW142308   4.394   0.899   3.677  0.3854  1.7443 -1.1390
13910SOL    HW242309   4.253   0.858   3.711  1.3215 -1.4092 -0.7848
13911SOL     OW42310   1.335   0.462   6.471  0.0488 -0.3122 -0.3365
13911SOL    HW142311   1.425   0.462   6.505  0.7687 -0.1287 -2.1589
13911SOL    HW242312   1.290   0.395   6.524  1.2450 -0.4340  0.5797
13912SOL     OW42313   3.830   2.099   8.828  0.4972 -0.6324  0.1894
13912SOL    HW142314   3.776   2.140   8.760  0.6237  1.6060  1.3525
13912SOL    HW242315   3.766   2.069   8.893  0.4953 -0.3739  0.3105
13913SOL     OW42316   8.655   9.804   5.510 -0.5268 -0.8973  0.4303
13913SOL    HW142317   8.578   9.811   5.454  0.4808 -1.1961 -1.0732
13913SOL    HW242318   8.663   9.890   5.551 -1.2810 -0.6593  0.0936
13914SOL     OW42319   1.498   6.966   9.467 -0.1686 -0.2446  0.3288
13914SOL    HW142320   1.461   6.993   9.383  0.6559 -1.2038 -0.3804
13914SOL    HW242321   1.424   6.962   9.527 -0.7135  0.8090 -0.2529
13915SOL     OW42322   0.396   0.388   0.334  0.2179 -0.0144  0.0710
13915SOL    HW142323   0.437   0.406   0.249  0.8693  0.6461  0.5073
13915SOL    HW242324   0.337   0.462   0.348 -0.1715 -0.3139  0.0324
13916SOL     OW42325   4.156   6.664   1.329 -0.6208 -0.5259 -0.2100
13916SOL    HW142326   4.150   6.568   1.327 -1.4978 -0.4813 -0.4465
13916SOL    HW242327   4.145   6.686   1.421  1.3545 -0.7234  0.1121
13917SOL     OW42328   3.577   9.211   2.763  0.1030  0.5759 -0.5716
13917SOL    HW142329   3.608   9.301   2.772 -0.9461  0.9178 -0.3079
13917SOL    HW242330   3.482   9.217   2.765 -0.0253 -0.7837  2.1341
13918SOL     OW42331   8.552   3.151   5.122  0.0253 -0.1041  0.0995
13918SOL    HW142332   8.498   3.210   5.069 -0.6405 -1.9394 -1.4056
13918SOL    HW242333   8.600   3.099   5.058  1.0071 -0.8218  1.3723
13919SOL     OW42334   2.481   5.971   0.084 -0.5594 -0.1542  0.0029
13919SOL    HW142335   2.491   6.058   0.122 -1.0169 -0.3265  0.5209
13919SOL    HW242336   2.451   5.987  -0.005 -0.8464  0.2183  0.1630
13920SOL     OW42337   9.562   4.858   2.712 -0.2352 -0.1842 -0.2704
13920SOL    HW142338   9.549   4.770   2.745  0.2310  0.3775  1.4981
13920SOL    HW242339   9.474   4.887   2.687 -0.6665 -0.5306  0.7841
13921SOL     OW42340   9.465   6.694   6.687 -0.8378  0.2410 -0.0850
13921SOL    HW142341   9.557   6.670   6.701 -1.2901 -1.0403  0.7541
13921SOL    HW242342   9.423   6.614   6.656 -1.6861  0.8207 -0.4782
13922SOL     OW42343   5.682   9.215   8.674  0.0075 -0.1946  0.3398
13922SOL    HW142344   5.651   9.297   8.635  2.9229  1.0026  0.3043
13922SOL    HW242345   5.602   9.169   8.700 -1.7438  2.5506  0.1759
13923SOL     OW42346   6.828   0.612   5.713  0.4921  0.3487 -0.8093
13923SOL    HW142347   6.859   0.702   5.702 -1.6376  1.3159  0.5085
13923SOL    HW242348   6.765   0.600   5.641  1.9807 -0.7464 -2.0045
13924SOL     OW42349   9.816   6.780   9.754  0.3800  0.2380  0.5513
13924SOL    HW142350   9.766   6.711   9.711 -0.1383  0.7729  0.2799
13924SOL    HW242351   9.853   6.738   9.831 -0.5036 -0.1749  0.7695
13925SOL     OW42352   6.988   3.752   3.359  0.1267  0.2031  0.1872
13925SOL    HW142353   7.063   3.731   3.414  1.3321 -0.3598 -1.5910
13925SOL    HW242354   6.994   3.691   3.286 -2.1356  0.0955  0.0207
13926SOL     OW42355   8.031   4.055   9.088 -0.5145  0.5095 -0.2406
13926SOL    HW142356   8.064   3.981   9.037 -1.4744  0.9553 -1.5437
13926SOL    HW242357   7.970   4.099   9.030 -2.2435  0.5988  1.5487
13927SOL     OW42358   7.892   2.978   9.303 -0.5919  0.3152  0.2825
13927SOL    HW142359   7.865   3.000   9.393  2.2323  1.2468  0.9892
13927SOL    HW242360   7.823   3.015   9.248 -0.7140  2.7355  1.9266
13928SOL     OW42361   6.303   5.841   5.562 -0.3108 -0.4498  0.2733
13928SOL    HW142362   6.245   5.824   5.637 -0.8724 -0.1545 -0.0857
13928SOL    HW242363   6.376   5.781   5.575 -1.8095 -2.5747 -0.4939
13929SOL     OW42364   3.889   1.749   0.734 -0.7893 -0.0228  0.2900
13929SOL    HW142365   3.964   1.698   0.762  0.2601  0.7741 -0.9948
13929SOL    HW242366   3.926   1.826   0.692 -2.1668 -1.3691 -3.8861
13930SOL     OW42367   1.784   3.653   6.679  0.0878  0.3211  0.1670
13930SOL    HW142368   1.804   3.578   6.736 -2.2417  0.2030  0.9410
13930SOL    HW242369   1.857   3.713   6.692  1.7820 -1.5716 -0.0983
13931SOL     OW42370   2.345   7.822   4.466 -0.2682  0.0133 -0.6558
13931SOL    HW142371   2.354   7.823   4.370  0.3338  2.0421 -0.6182
13931SOL    HW242372   2.407   7.754   4.494  2.9585  2.3470 -1.5096
13932SOL     OW42373   5.441   3.600   5.342 -0.2026  0.4077 -0.1079
13932SOL    HW142374   5.509   3.616   5.278 -0.9856  2.3246 -0.5212
13932SOL    HW242375   5.470   3.647   5.421  0.5630 -1.6007  0.8731
13933SOL     OW42376   8.185   3.804   5.352 -0.3913 -0.2347  0.1535
13933SOL    HW142377   8.274   3.831   5.373  0.1920 -2.3378  0.6294
13933SOL    HW242378   8.130   3.851   5.415  0.4254  0.7132  0.1681
13934SOL     OW42379   5.183   3.618   5.251 -0.3945 -0.7470  0.4651
13934SOL    HW142380   5.160   3.536   5.208  1.0497 -0.5558 -0.7425
13934SOL    HW242381   5.272   3.606   5.283 -0.3092  0.2097  0.6321
13935SOL     OW42382   1.114   4.390   3.186 -0.5385 -0.0409  0.1335
13935SOL    HW142383   1.031   4.369   3.229  0.1448 -0.6169  1.2108
13935SOL    HW242384   1.167   4.311   3.196  0.5069  0.6695  0.3549
13936SOL     OW42385   2.620   9.004   0.576 -0.1140  0.0148 -0.0014
13936SOL    HW142386   2.593   9.094   0.557  0.1226 -0.0811 -0.8425
13936SOL    HW242387   2.542   8.963   0.611 -1.0758 -0.2038 -2.2324
13937SOL     OW42388   8.240   9.181   9.399  0.0582 -0.1989 -0.4620
13937SOL    HW142389   8.204   9.160   9.485 -0.1785  0.0569 -0.4971
13937SOL    HW242390   8.272   9.271   9.407  0.1218 -0.2075 -0.6100
13938SOL     OW42391   6.396   7.886   2.374 -0.1891  0.0875  0.1821
13938SOL    HW142392   6.415   7.798   2.406 -2.7524  0.0634  1.9596
13938SOL    HW242393   6.383   7.876   2.280 -0.1475 -1.3685  0.3106
13939SOL     OW42394   9.779   6.263   4.942  0.0533  0.2883 -0.4677
13939SOL    HW142395   9.736   6.195   4.993 -0.8198 -0.6409 -2.3555
13939SOL    HW242396   9.788   6.336   5.003 -1.9622 -0.3622  0.7111
13940SOL     OW42397   2.570   3.874   9.858  0.3381 -0.5782 -0.0341
13940SOL    HW142398   2.495   3.821   9.831  0.1189  0.1149 -0.8376
13940SOL    HW242399   2.537   3.929   9.929 -0.9135  2.0549 -2.4728
13941SOL     OW42400   4.976   0.962   3.298 -0.0815  0.5076  0.1721
13941SOL    HW142401   4.927   1.017   3.358 -1.5904 -0.3945 -0.1811
13941SOL    HW242402   4.943   0.874   3.314  0.2533  0.1041 -1.2174
13942SOL     OW42403   1.313   8.957   1.027  0.5128  0.2344  1.0232
13942SOL    HW142404   1.384   9.020   1.018  0.9038 -0.4025 -0.7199
13942SOL    HW242405   1.356   8.871   1.023 -0.1152 -0.1709  2.3746
13943SOL     OW42406   6.923   5.532   3.805 -0.3706  0.1712  0.0904
13943SOL    HW142407   6.904   5.518   3.898 -0.4015 -0.4116  0.0010
13943SOL    HW242408   6.918   5.627   3.793 -2.0864  0.1296  0.3002
13944SOL     OW42409   3.517   2.030   0.071 -0.2270 -0.0515 -0.5163
13944SOL    HW142410   3.580   2.047   0.000  0.0018 -0.5166 -0.4245
13944SOL    HW242411   3.433   2.059   0.035 -0.0195  0.2406 -0.7724
13945SOL     OW42412   7.513   1.696   6.302 -0.7022  0.1405  0.0292
13945SOL    HW142413   7.591   1.706   6.248  0.1174 -0.5306  1.0367
13945SOL    HW242414   7.453   1.643   6.250 -0.3156  0.3106 -0.5890
13946SOL     OW42415   4.317   2.017   1.338  0.1743  0.2906 -0.1297
13946SOL    HW142416   4.255   2.014   1.411  0.9323 -0.2125  0.5129
13946SOL    HW242417   4.324   1.925   1.310  0.0744  0.4494 -0.6696
13947SOL     OW42418   1.150   5.683   3.597  0.0177  0.2498  0.4946
13947SOL    HW142419   1.243   5.666   3.614 -0.0228 -1.1500 -0.4568
13947SOL    HW242420   1.141   5.778   3.600  1.3819  0.3806  1.0502
13948SOL     OW42421   4.537   4.149   7.856  0.0008 -0.2826  0.4530
13948SOL    HW142422   4.503   4.188   7.936 -0.0341 -0.9930  0.7896
13948SOL    HW242423   4.500   4.203   7.786  1.2793  1.3009  0.9555
13949SOL     OW42424   4.265   2.075   2.607  0.5413  0.1208  0.1538
13949SOL    HW142425   4.314   2.015   2.663  1.2941  0.9589  0.4258
13949SOL    HW242426   4.254   2.028   2.524 -0.5745 -1.1344  0.9693
13950SOL     OW42427   9.593   6.173   3.409 -0.2743  0.2065 -0.0415
13950SOL    HW142428   9.518   6.119   3.432  1.3397 -2.0401  0.3604
13950SOL    HW242429   9.626   6.206   3.492 -1.2131  1.8078 -0.2821
13951SOL     OW42430   6.614   5.878   6.475  0.5365  0.2044 -0.2091
13951SOL    HW142431   6.704   5.908   6.465  0.1770  1.5647  0.3605
13951SOL    HW242432   6.563   5.958   6.487 -0.6520 -0.5751  0.1832
13952SOL     OW42433   8.681   5.423   3.941  0.2103 -0.0659 -0.2312
13952SOL    HW142434   8.729   5.362   3.997  0.2384 -0.3741 -0.5878
13952SOL    HW242435   8.660   5.497   3.998  3.4943  1.4094 -0.6606
13953SOL     OW42436   0.910   8.311   6.998  0.3355  0.6629  0.0391
13953SOL    HW142437   0.850   8.236   6.992  1.5727 -0.2802 -1.2399
13953SOL    HW242438   0.918   8.342   6.908 -0.3578  2.5414  0.5941
13954SOL     OW42439   7.324   4.378   0.928  0.1428 -0.6011 -0.3066
13954SOL    HW142440   7.288   4.323   0.998 -1.1870 -2.7842 -2.5320
13954SOL    HW242441   7.252   4.435   0.903  0.0114 -1.0765 -1.0474
13955SOL     OW42442   5.890   2.266   0.961 -0.2463  0.0127  0.4466
13955SOL    HW142443   5.973   2.314   0.962 -0.9203  1.4731 -2.4427
13955SOL    HW242444   5.905   2.194   0.900 -1.1290  0.4388 -0.3077
13956SOL     OW42445   7.154   0.552   3.108  0.3610 -0.2553  0.1886
13956SOL    HW142446   7.059   0.559   3.114  0.3331  0.5491 -1.0366
13956SOL    HW242447   7.182   0.530   3.197 -0.8139  1.3374  0.9903
13957SOL     OW42448   1.320   0.482   2.761 -0.2039  0.3557  0.5774
13957SOL    HW142449   1.409   0.450   2.776  0.1230 -0.0613 -1.8623
13957SOL    HW242450   1.265   0.403   2.766 -0.2106  0.3533  0.4657
13958SOL     OW42451   7.680   5.874   5.045  0.0383  0.2631 -0.4706
13958SOL    HW142452   7.681   5.839   4.956  0.1891  0.3990 -0.5227
13958SOL    HW242453   7.648   5.802   5.099 -2.9191  1.0255 -1.0110
13959SOL     OW42454   4.755   9.761  -0.016  0.2542  0.4219 -0.5656
13959SOL    HW142455   4.823   9.694  -0.022  0.3452  0.5565 -1.1026
13959SOL    HW242456   4.779   9.812   0.061  0.1090 -0.2372 -0.0723
13960SOL     OW42457   7.888   6.121   8.994  0.5034 -0.7502  0.3563
13960SOL    HW142458   7.941   6.160   8.925 -0.9597 -0.1273 -0.4465
13960SOL    HW242459   7.814   6.081   8.949 -1.1156  0.6850  1.5952
13961SOL     OW42460   1.857   7.850   0.429  0.2822  0.0812  0.1198
13961SOL    HW142461   1.874   7.795   0.352  0.9875  1.1017 -0.4889
13961SOL    HW242462   1.934   7.838   0.484  0.9007  1.1775 -0.4746
13962SOL     OW42463   7.001   4.566   0.594  0.0262  0.0880  0.0532
13962SOL    HW142464   7.023   4.519   0.674 -1.2859  1.1103  1.0735
13962SOL    HW242465   6.963   4.500   0.536 -0.0722 -0.4633  0.7347
13963SOL     OW42466   7.805   0.195   4.771 -0.4457  0.4499 -0.2786
13963SOL    HW142467   7.717   0.163   4.793 -0.6244  0.7076 -0.5919
13963SOL    HW242468   7.793   0.289   4.757 -0.0223  0.5691  0.1591
13964SOL     OW42469   8.900   1.049   7.310 -0.2125  0.8987 -0.3012
13964SOL    HW142470   8.806   1.057   7.292 -0.2388  1.4764  0.0577
13964SOL    HW242471   8.912   0.957   7.335 -0.7075  0.8535 -0.2153
13965SOL     OW42472   7.154   1.389   6.435  0.1169  0.3046  0.3466
13965SOL    HW142473   7.098   1.322   6.395 -2.0582  2.0590  0.2827
13965SOL    HW242474   7.235   1.342   6.456 -0.7807 -2.0045 -0.9338
13966SOL     OW42475   8.225   1.853   9.594  0.1300 -0.0764  0.0855
13966SOL    HW142476   8.201   1.912   9.665 -1.4095 -1.0870  0.4684
13966SOL    HW242477   8.277   1.785   9.636  1.6115  0.7723 -0.2954
13967SOL     OW42478   5.157   1.712   5.530 -0.1621  0.4597  0.7652
13967SOL    HW142479   5.180   1.686   5.619 -1.2869 -0.8678  0.6989
13967SOL    HW242480   5.083   1.771   5.541 -2.6909 -2.4572  0.6586
13968SOL     OW42481   3.916   4.894   7.182  0.0194 -0.2562 -0.2950
13968SOL    HW142482   3.879   4.877   7.096  1.1292 -1.2583 -0.5997
13968SOL    HW242483   3.942   4.808   7.215 -2.5528 -0.2676  2.1136
13969SOL     OW42484   4.744   8.604   2.812  0.5639 -0.0198  0.2578
13969SOL    HW142485   4.653   8.612   2.841  0.6267 -0.1112  0.4877
13969SOL    HW242486   4.782   8.540   2.872  0.7821  0.0235  0.1666
13970SOL     OW42487   5.646   1.833   9.203 -0.1026 -0.5222  0.3910
13970SOL    HW142488   5.636   1.845   9.297 -1.3209 -0.5628  0.2817
13970SOL    HW242489   5.622   1.918   9.165 -0.1570 -0.6700  0.0884
13971SOL     OW42490   4.230   8.990   4.511  0.0132 -0.4950  0.0214
13971SOL    HW142491   4.313   9.034   4.494 -0.1104  1.1288  2.9815
13971SOL    HW242492   4.170   9.027   4.447  1.2744 -0.9523 -1.5015
13972SOL     OW42493   7.703   0.241   4.451 -0.3505 -0.2963 -0.1582
13972SOL    HW142494   7.680   0.148   4.444 -0.7733 -0.3823  1.8454
13972SOL    HW242495   7.797   0.241   4.463 -0.1402 -0.3444 -1.5884
13973SOL     OW42496   6.791   2.588   2.631  0.0660 -0.0388 -0.2513
13973SOL    HW142497   6.734   2.546   2.695 -0.0092  0.6815  0.1727
13973SOL    HW242498   6.876   2.595   2.675  0.2973 -0.4786 -0.6211
13974SOL     OW42499   9.941   4.638   2.684  0.0295  0.1585  0.4063
13974SOL    HW142500   9.878   4.621   2.754 -0.5688 -2.9938 -0.7366
13974SOL    HW242501   9.888   4.660   2.608  0.4615  0.0079  0.0573
13975SOL     OW42502   1.173   7.220   0.954 -0.2243  0.1330 -0.0838
13975SOL    HW142503   1.187   7.133   0.917 -0.3902 -0.8638  2.0441
13975SOL    HW242504   1.246   7.273   0.922 -0.3462 -0.6490 -1.7389
13976SOL     OW42505   6.309   1.934   7.317 -0.0262 -0.0981 -0.5459
13976SOL    HW142506   6.238   1.996   7.336 -0.2456 -0.6533  0.4821
13976SOL    HW242507   6.328   1.947   7.224 -0.0863  1.4890 -0.3568
13977SOL     OW42508   0.816   6.423   8.003  0.6808 -0.1556  0.0634
13977SOL    HW142509   0.890   6.481   7.982  1.2876 -1.1601 -0.6442
13977SOL    HW242510   0.844   6.337   7.972 -0.1626 -0.8552  1.1926
13978SOL     OW42511   8.877   5.505   2.040 -0.0304 -0.7788 -0.3370
13978SOL    HW142512   8.906   5.426   1.994  0.3699  0.2050 -1.8432
13978SOL    HW242513   8.865   5.570   1.971  0.4571  0.7323  0.9350
13979SOL     OW42514   8.612   1.541   9.300  0.0704  0.1253  0.0258
13979SOL    HW142515   8.692   1.583   9.269 -0.4552  0.9540 -0.2371
13979SOL    HW242516   8.546   1.564   9.234 -0.4016 -0.5127  0.2595
13980SOL     OW42517   1.023   6.602   1.726  0.1491  0.1046  0.3049
13980SOL    HW142518   1.038   6.508   1.720  0.1380  0.1067  0.2437
13980SOL    HW242519   1.098   6.636   1.774  0.4875  0.1535 -0.2545
13981SOL     OW42520   0.931   9.129   4.521  0.4412 -0.5247 -0.1079
13981SOL    HW142521   0.939   9.040   4.557 -2.4142 -0.4086  1.0210
13981SOL    HW242522   0.898   9.115   4.432 -0.2960 -0.6168  0.1720
13982SOL     OW42523   2.758   8.415   9.959 -0.4757 -0.0803  0.1269
13982SOL    HW142524   2.813   8.369   9.896 -1.7621 -2.3301  0.5237
13982SOL    HW242525   2.804   8.409  10.042  1.0536  2.5883 -0.3909
13983SOL     OW42526   5.456   0.152   8.279 -0.2573  0.5871  0.0097
13983SOL    HW142527   5.447   0.245   8.303 -0.4953  0.4130  0.6294
13983SOL    HW242528   5.393   0.107   8.336 -2.2656  0.3297 -2.2842
13984SOL     OW42529   9.444   0.276   6.159  0.0477 -0.3004  0.1490
13984SOL    HW142530   9.388   0.350   6.137 -0.9904 -1.7866 -2.6643
13984SOL    HW242531   9.533   0.306   6.140 -0.3271  0.3380 -0.6227
13985SOL     OW42532   3.050   3.896   0.128 -0.6746 -0.3561 -0.2091
13985SOL    HW142533   2.966   3.923   0.093 -1.8330  0.1587  2.7026
13985SOL    HW242534   3.029   3.831   0.195  1.4181 -1.6045 -0.6469
13986SOL     OW42535   7.632   0.054   1.135  0.1917  0.2300 -0.1360
13986SOL    HW142536   7.714   0.093   1.102  0.9238 -1.1007  0.0393
13986SOL    HW242537   7.661  -0.014   1.196 -1.0194 -1.1014 -0.9909
13987SOL     OW42538   7.907   1.830   9.646 -0.5685  0.0242  0.0756
13987SOL    HW142539   7.955   1.867   9.571  0.1646  0.7272  0.8677
13987SOL    HW242540   7.969   1.836   9.719 -1.8451  0.8729  1.1167
13988SOL     OW42541   1.816   9.079   3.318  0.2691 -0.2630 -0.2878
13988SOL    HW142542   1.767   9.012   3.366  0.2941 -0.1925 -0.1625
13988SOL    HW242543   1.876   9.030   3.262  0.9568 -0.3369  0.5064
13989SOL     OW42544   8.700   0.279   1.440 -0.4742  0.1991  0.3703
13989SOL    HW142545   8.781   0.304   1.483  0.0196  1.7951 -1.3467
13989SOL    HW242546   8.647   0.358   1.439 -0.6238  0.1318 -1.5022
13990SOL     OW42547   8.740   9.641   0.501 -0.2190  0.0672 -0.5289
13990SOL    HW142548   8.796   9.607   0.432 -0.7834  0.9033 -1.4251
13990SOL    HW242549   8.651   9.636   0.466 -0.4695  0.9547 -0.0711
13991SOL     OW42550   3.084   4.280   5.146  0.2337 -0.0039  0.3329
13991SOL    HW142551   3.158   4.341   5.147  1.0895 -0.9684 -1.0322
13991SOL    HW242552   3.009   4.334   5.120  1.2404  0.2809 -2.2498
13992SOL     OW42553   3.938   9.414   5.601 -0.6200  0.0252  0.4186
13992SOL    HW142554   4.006   9.409   5.668 -0.8017  1.8181  0.7754
13992SOL    HW242555   3.865   9.364   5.638 -0.3355  0.0914  1.0917
13993SOL     OW42556   1.428   0.915   6.020  0.3042  0.2886  0.4308
13993SOL    HW142557   1.460   1.001   6.046 -0.7125  0.7564  0.1982
13993SOL    HW242558   1.394   0.876   6.101  0.7119  0.1306  0.5257
13994SOL     OW42559   4.598   3.358   3.122 -0.1593  0.3590 -0.3476
13994SOL    HW142560   4.654   3.424   3.164 -0.5525  0.5506 -0.1135
13994SOL    HW242561   4.518   3.406   3.099  0.4228  0.4822 -2.2159
13995SOL     OW42562   6.314   4.255   7.659  0.1677 -0.6432 -0.2568
13995SOL    HW142563   6.298   4.197   7.733  2.1516 -1.6765 -0.5764
13995SOL    HW242564   6.376   4.320   7.693  0.3299 -0.5479 -0.7230
13996SOL     OW42565   1.136   9.841   7.843 -0.0975 -0.3612 -0.4393
13996SOL    HW142566   1.093   9.819   7.760 -0.3684 -2.0664  0.1128
13996SOL    HW242567   1.228   9.852   7.819 -0.4259  0.8588 -1.2247
13997SOL     OW42568   7.287   6.359   8.409 -0.1059  0.2209  0.2112
13997SOL    HW142569   7.347   6.434   8.405 -0.8321  0.7763 -0.5560
13997SOL    HW242570   7.220   6.384   8.473 -1.4807  1.1139 -1.5047
13998SOL     OW42571   2.926   6.335   5.683 -0.4087 -0.1328 -0.1426
13998SOL    HW142572   2.954   6.405   5.742  1.9552 -0.6940 -0.5058
13998SOL    HW242573   2.935   6.255   5.735 -0.1726 -0.4426 -0.6469
13999SOL     OW42574   8.909   9.140   6.600  0.2769 -0.1737 -0.3942
13999SOL    HW142575   8.890   9.055   6.559 -0.0279 -0.1168 -0.3716
13999SOL    HW242576   9.004   9.142   6.606  0.2442 -1.2307  1.1082
14000SOL     OW42577   8.133   3.128   0.623 -0.5694  0.2084 -0.1500
14000SOL    HW142578   8.108   3.218   0.602  0.1455  0.9286  1.8751
14000SOL    HW242579   8.160   3.130   0.715  0.0105 -1.9685 -0.1927
14001SOL     OW42580   1.414   8.331   3.813 -0.3541  0.2227 -0.0582
14001SOL    HW142581   1.486   8.381   3.851 -0.2435  0.0124  0.0063
14001SOL    HW242582   1.339   8.350   3.870 -0.3155  0.3217 -0.0398
14002SOL     OW42583   5.639   9.574   9.861  0.0525 -0.3747 -0.6690
14002SOL    HW142584   5.548   9.590   9.835  0.3377 -0.0017 -1.4521
14002SOL    HW242585   5.637   9.486   9.899 -0.5255 -0.6263 -1.2473
14003SOL     OW42586   0.406   7.742   6.616 -0.0142  0.6074 -0.0722
14003SOL    HW142587   0.368   7.765   6.700  0.2881  0.0086  0.2385
14003SOL    HW242588   0.439   7.653   6.628  0.5618  0.7299 -0.6391
14004SOL     OW42589   0.824   9.234   5.777 -0.0328 -0.4974 -0.3325
14004SOL    HW142590   0.744   9.210   5.729 -0.4862 -0.6531  0.4905
14004SOL    HW242591   0.799   9.231   5.869  1.0214 -0.8940 -0.0438
14005SOL     OW42592   0.338   9.520   0.210 -0.1782 -0.5340  0.5783
14005SOL    HW142593   0.328   9.559   0.123  1.3297  1.7735  1.3483
14005SOL    HW242594   0.425   9.480   0.208 -0.4489 -1.1516  0.8170
14006SOL     OW42595   3.882   0.226   8.884  0.1582 -0.3568  0.2417
14006SOL    HW142596   3.857   0.133   8.891 -0.3223 -0.2273  0.2900
14006SOL    HW242597   3.923   0.246   8.968  1.6311 -0.9154 -0.3043
14007SOL     OW42598   4.426   9.188   4.382  0.1060  0.3079  0.3793
14007SOL    HW142599   4.409   9.230   4.466  0.3135  0.7728  0.1891
14007SOL    HW242600   4.515   9.155   4.389  0.2115  0.5635  0.2533
14008SOL     OW42601   0.659   6.875   0.576 -0.5816 -0.7051 -0.2061
14008SOL    HW142602   0.599   6.817   0.622 -1.0372 -0.6351 -0.7031
14008SOL    HW242603   0.699   6.928   0.645 -0.9328 -0.9027  0.1523
14009SOL     OW42604   8.855   6.281   7.494 -0.0223  0.4520  0.0923
14009SOL    HW142605   8.782   6.243   7.445  0.5459 -0.5151 -0.0339
14009SOL    HW242606   8.876   6.362   7.447 -1.2466  0.9420  0.3563
14010SOL     OW42607   5.507   3.478   2.584 -0.4134  0.2128 -0.5021
14010SOL    HW142608   5.453   3.500   2.508 -0.0541  1.9279 -0.2848
14010SOL    HW242609   5.596   3.471   2.548 -0.2506  0.9819 -0.2664
14011SOL     OW42610   7.952   9.424   9.875 -0.4203  0.3500 -0.1334
14011SOL    HW142611   7.880   9.477   9.909 -1.9782 -1.9428  0.3196
14011SOL    HW242612   7.910   9.355   9.825  1.4142 -1.3727  0.5730
14012SOL     OW42613   5.544   0.739   3.137  0.2886 -0.1301  0.3684
14012SOL    HW142614   5.616   0.790   3.175 -0.9006  0.5186  1.8372
14012SOL    HW242615   5.501   0.801   3.078  1.5322 -0.8433 -1.3854
14013SOL     OW42616   9.726   6.715   5.717 -0.0759  0.2919  0.1834
14013SOL    HW142617   9.757   6.717   5.808 -0.2742  0.0386  0.2564
14013SOL    HW242618   9.657   6.650   5.717  0.0833  0.1216 -0.2045
14014SOL     OW42619   6.956   3.068   5.423  0.6380  0.1135 -0.0935
14014SOL    HW142620   6.902   3.016   5.364  1.7883  1.0834 -2.1167
14014SOL    HW242621   7.040   3.022   5.425  0.4025 -0.3016  1.4305
14015SOL     OW42622   9.478   8.019   7.456  0.4807  1.0196  0.0583
14015SOL    HW142623   9.565   7.980   7.463  0.2529  0.3178 -0.8805
14015SOL    HW242624   9.434   7.968   7.388 -0.3426  1.9720 -0.1426
14016SOL     OW42625   1.236   2.580   4.688  0.3872 -0.3142 -0.1395
14016SOL    HW142626   1.142   2.596   4.678  0.2635 -0.2413  0.9758
14016SOL    HW242627   1.277   2.636   4.623 -0.3478 -0.4119 -0.7012
14017SOL     OW42628   2.656   7.654   6.272 -0.1687  0.0165  0.8872
14017SOL    HW142629   2.656   7.711   6.349 -0.2631  0.0529  0.8600
14017SOL    HW242630   2.651   7.713   6.198  5.7419  0.5283  0.4092
14018SOL     OW42631   3.164   5.155   9.824  0.3106  0.2600  0.0565
14018SOL    HW142632   3.199   5.106   9.898  2.9735  1.1408 -0.5297
14018SOL    HW242633   3.112   5.091   9.776  0.2820 -0.8743  1.5136
14019SOL     OW42634   9.657   7.594   4.403 -0.1003  0.2136  0.3065
14019SOL    HW142635   9.708   7.671   4.429  0.1218  0.1647  0.0242
14019SOL    HW242636   9.710   7.553   4.335 -1.5755  1.4467 -1.6941
14020SOL     OW42637   1.592   4.575   4.812  0.7128  0.0381  0.2260
14020SOL    HW142638   1.621   4.658   4.850  2.2095 -0.3718  0.0438
14020SOL    HW242639   1.652   4.510   4.847  0.1143 -0.8412 -0.3277
14021SOL     OW42640   9.464   8.077   8.042  0.5879  0.6157 -0.5625
14021SOL    HW142641   9.477   8.001   8.099 -1.9166  1.0163  0.7144
14021SOL    HW242642   9.403   8.046   7.975  1.4027  0.8954 -1.4526
14022SOL     OW42643   0.135   2.495   4.412  0.2039  0.5688 -0.1355
14022SOL    HW142644   0.178   2.512   4.497 -0.9994 -0.0965  0.6316
14022SOL    HW242645   0.112   2.403   4.415  0.9588  0.3002 -1.6082
14023SOL     OW42646   4.693   3.655   8.918 -0.3452 -0.5775 -0.1960
14023SOL    HW142647   4.665   3.741   8.888 -0.3427 -0.0304  1.2571
14023SOL    HW242648   4.668   3.595   8.848 -1.6267  0.4147 -0.6253
14024SOL     OW42649   0.234   6.125   0.986 -0.3379 -0.3129 -0.3476
14024SOL    HW142650   0.209   6.096   1.074 -0.4364  1.3420  0.2010
14024SOL    HW242651   0.166   6.088   0.929 -2.2060  1.2863  0.7148
14025SOL     OW42652   2.805   6.489   5.455  0.2184 -0.1205 -0.0246
14025SOL    HW142653   2.771   6.401   5.435  1.1432 -0.3339 -0.7037
14025SOL    HW242654   2.881   6.473   5.511  0.0258  0.2915  0.3595
14026SOL     OW42655   6.689   4.208   3.786  0.2559  0.3829 -0.2547
14026SOL    HW142656   6.650   4.133   3.831  3.3332 -1.0598  0.2798
14026SOL    HW242657   6.694   4.182   3.695 -0.6855  0.9227 -0.4809
14027SOL     OW42658   5.654   3.751   5.477 -0.1140 -0.5209 -0.4860
14027SOL    HW142659   5.696   3.715   5.555 -1.2801  1.7797  1.3501
14027SOL    HW242660   5.720   3.807   5.437  0.0758 -0.6584 -0.3640
14028SOL     OW42661   9.619   7.267   2.326  0.0217 -0.3873  0.1521
14028SOL    HW142662   9.666   7.323   2.265  0.1186 -0.9194 -0.2683
14028SOL    HW242663   9.681   7.253   2.398 -0.2601  0.6169  0.6074
14029SOL     OW42664   7.862   6.210   7.165 -0.0367  0.5715  0.4891
14029SOL    HW142665   7.915   6.132   7.184  1.0065  1.2455  0.4750
14029SOL    HW242666   7.889   6.273   7.231 -0.4606  1.1075  0.1588
14030SOL     OW42667   3.178   1.151   1.993  0.3367  0.1924 -0.1818
14030SOL    HW142668   3.121   1.083   1.957  1.3840 -1.2649  0.7821
14030SOL    HW242669   3.129   1.187   2.067  0.3326 -0.5079  0.1623
14031SOL     OW42670   9.317   7.287   6.283 -0.0159 -0.8887 -0.1547
14031SOL    HW142671   9.275   7.244   6.357  0.2397  0.3380  0.7356
14031SOL    HW242672   9.245   7.320   6.229 -0.3130  1.7779  1.6954
14032SOL     OW42673   2.919   4.646   6.737  0.5024 -0.2429  0.8893
14032SOL    HW142674   2.890   4.620   6.649 -0.3467 -0.4907  1.2284
14032SOL    HW242675   2.968   4.571   6.769 -0.2656 -0.6716  1.1033
14033SOL     OW42676   8.387   9.869   9.715 -0.4402  0.3280 -0.2942
14033SOL    HW142677   8.307   9.863   9.663 -0.0404 -0.5440 -0.8417
14033SOL    HW242678   8.405   9.778   9.742  1.1628  0.2564 -1.4442
14034SOL     OW42679   8.304   8.132   2.250 -0.8013 -0.1183  0.4777
14034SOL    HW142680   8.260   8.138   2.165 -2.1075 -1.6417  0.9908
14034SOL    HW242681   8.250   8.186   2.308 -0.2530  0.4368  0.4731
14035SOL     OW42682   0.892   4.387   2.291 -0.5498 -0.2452  0.2916
14035SOL    HW142683   0.908   4.311   2.236 -0.7470 -0.0153 -0.0920
14035SOL    HW242684   0.852   4.352   2.370 -2.2746 -0.4051 -0.5898
14036SOL     OW42685   1.767   2.350   3.490  0.3395  0.0339 -0.0007
14036SOL    HW142686   1.778   2.416   3.422  0.1092  0.4532  0.3606
14036SOL    HW242687   1.673   2.331   3.490  0.2319  0.5485  0.6675
14037SOL     OW42688   5.477   8.174   1.687 -0.1102 -0.1202  0.0145
14037SOL    HW142689   5.486   8.187   1.781  1.7656 -1.4992  0.0755
14037SOL    HW242690   5.468   8.262   1.651  1.0472  0.5552  1.3059
14038SOL     OW42691   9.331   9.585   4.995  0.0530 -0.0754  0.1511
14038SOL    HW142692   9.426   9.585   5.011  0.0850  0.0550 -0.0419
14038SOL    HW242693   9.313   9.498   4.959  0.5490  0.8445 -2.5150
14039SOL     OW42694   2.846   5.535   7.907 -0.4132 -0.3296  0.3209
14039SOL    HW142695   2.939   5.554   7.917 -0.3523 -0.7962  0.6362
14039SOL    HW242696   2.837   5.508   7.816 -0.1359 -0.8919  0.4593
14040SOL     OW42697   9.650   6.632   1.241 -0.0494  0.3251  0.8986
14040SOL    HW142698   9.683   6.669   1.160  0.5434  0.2196  1.0880
14040SOL    HW242699   9.677   6.694   1.309  1.0262 -0.4660  1.2283
14041SOL     OW42700   9.581   7.021   0.231  0.2622  0.2381  0.4450
14041SOL    HW142701   9.635   6.943   0.241  1.3625  0.7417 -1.3117
14041SOL    HW242702   9.514   6.996   0.167 -0.7345  0.0953  1.4927
14042SOL     OW42703   3.538   8.773   7.868  0.1622 -0.5802  0.2016
14042SOL    HW142704   3.508   8.806   7.953  0.4766 -0.9967  0.4743
14042SOL    HW242705   3.582   8.691   7.888  0.4377 -0.5685 -0.3411
14043SOL     OW42706   0.113   3.114   5.085  0.3313  0.2806  0.7854
14043SOL    HW142707   0.102   3.149   5.173  0.9692 -1.1370  1.4565
14043SOL    HW242708   0.087   3.186   5.027 -1.7405  0.6920  2.1237
14044SOL     OW42709   7.552   3.494   3.300 -0.6553  0.5954 -0.0972
14044SOL    HW142710   7.617   3.446   3.248  0.9291  1.1116  1.3024
14044SOL    HW242711   7.468   3.454   3.276  0.2808 -0.8342 -1.1900
14045SOL     OW42712   7.579   8.432   4.221 -0.1641  0.3162  0.4503
14045SOL    HW142713   7.571   8.496   4.292  1.5161  0.1424  0.8559
14045SOL    HW242714   7.633   8.475   4.155  2.2039 -1.0468  1.3330
14046SOL     OW42715   3.694   5.546   1.233 -0.7628  0.0833 -0.4026
14046SOL    HW142716   3.730   5.623   1.277 -0.1212  0.1244 -0.9852
14046SOL    HW242717   3.601   5.567   1.221 -0.4122  1.1631 -1.3832
14047SOL     OW42718   8.085   7.537   7.769  0.7192  0.1109 -0.4469
14047SOL    HW142719   8.124   7.611   7.815 -0.7420  0.1080  0.8815
14047SOL    HW242720   8.124   7.460   7.810  0.4214  0.1304 -0.1174
14048SOL     OW42721   9.033   4.917   9.265 -0.4145 -0.0086  0.1449
14048SOL    HW142722   8.950   4.956   9.290 -0.1424  0.5528  0.1868
14048SOL    HW242723   9.035   4.924   9.169 -1.0402 -1.3161  0.0059
14049SOL     OW42724   0.986   8.026   6.333  0.0757 -0.4012  0.2197
14049SOL    HW142725   1.024   8.096   6.280 -0.7575 -1.2305 -1.5323
14049SOL    HW242726   1.034   7.948   6.307 -0.9951 -0.9920 -0.0272
14050SOL     OW42727   8.872   0.050   3.925 -0.2275  0.0562 -0.1647
14050SOL    HW142728   8.919  -0.008   3.864  2.2877  0.3895  1.3281
14050SOL    HW242729   8.793   0.074   3.878  0.6578 -1.2649 -2.5170
14051SOL     OW42730   8.615   0.381   2.229 -0.7372 -0.2647 -0.4063
14051SOL    HW142731   8.611   0.362   2.135  0.1856  1.2641 -0.8012
14051SOL    HW242732   8.649   0.301   2.269 -0.8613 -0.8301 -1.4098
14052SOL     OW42733   2.099   7.037   7.849 -0.0554 -0.1936 -0.1557
14052SOL    HW142734   2.139   7.111   7.895  0.2370 -0.5819  0.2188
14052SOL    HW242735   2.036   7.001   7.912  0.2095 -0.6100 -0.1295
14053SOL     OW42736   9.291   4.246   2.716 -0.0985  0.3653  0.1796
14053SOL    HW142737   9.353   4.252   2.789  1.3152 -1.2901 -0.7952
14053SOL    HW242738   9.237   4.170   2.736 -0.0822  0.2465 -0.2123
14054SOL     OW42739   3.514   6.034   1.498 -0.5989 -0.0875  0.4421
14054SOL    HW142740   3.538   5.959   1.553 -2.9057 -0.3814  1.1487
14054SOL    HW242741   3.423   6.018   1.474 -0.7722  1.9039 -0.4144
14055SOL     OW42742   9.218   6.435   0.262  0.2654 -0.1762 -0.7099
14055SOL    HW142743   9.298   6.471   0.224 -0.1883  0.5480 -1.0047
14055SOL    HW242744   9.198   6.495   0.335  0.6487 -1.0460  0.1251
14056SOL     OW42745   6.126   2.106   7.323  0.0585 -0.0194  0.3564
14056SOL    HW142746   6.036   2.074   7.320  0.2235 -0.4047 -1.1701
14056SOL    HW242747   6.125   2.172   7.393 -1.0126 -1.1367  1.4378
14057SOL     OW42748   2.201   7.645   3.847  0.4353 -0.6698  0.3145
14057SOL    HW142749   2.122   7.602   3.878  0.1587 -1.7481 -1.6830
14057SOL    HW242750   2.252   7.575   3.805  1.8315  0.2456  0.3934
14058SOL     OW42751   8.044   2.095   8.911 -0.0662  0.3809  0.7947
14058SOL    HW142752   8.009   2.082   8.999 -1.7875  1.9732  0.4105
14058SOL    HW242753   8.138   2.106   8.924 -0.2615  0.3635  2.4066
14059SOL     OW42754   5.455   2.119   5.092 -0.2394  0.4428 -0.7550
14059SOL    HW142755   5.361   2.118   5.072 -0.2021 -0.3297 -0.9345
14059SOL    HW242756   5.467   2.047   5.154 -0.0617  1.7163  0.7700
14060SOL     OW42757   4.047   0.037   4.679 -0.0809 -0.1143  0.1040
14060SOL    HW142758   3.974   0.072   4.630  0.4319 -0.6642 -1.0919
14060SOL    HW242759   4.009   0.006   4.761 -1.7754 -3.1411 -1.6688
14061SOL     OW42760   7.659   0.909   2.747 -0.1901 -0.4120  0.0460
14061SOL    HW142761   7.652   0.818   2.717 -0.1586 -0.1212 -0.8573
14061SOL    HW242762   7.720   0.904   2.821 -0.7524 -1.2268  0.4715
14062SOL     OW42763   8.225   6.540   2.477 -0.0085  0.0007 -0.4186
14062SOL    HW142764   8.292   6.533   2.545  0.3216 -0.3930 -0.7755
14062SOL    HW242765   8.270   6.513   2.397 -0.8130 -1.1395 -0.5217
14063SOL     OW42766   1.571   7.514   3.623 -0.4169  0.1866  0.4103
14063SOL    HW142767   1.559   7.609   3.621 -1.0170  0.1044 -0.8398
14063SOL    HW242768   1.484   7.480   3.648 -0.1635 -0.0439  1.0174
14064SOL     OW42769   0.680   5.759   3.833  0.2878  0.0289 -0.0017
14064SOL    HW142770   0.619   5.770   3.907 -2.8623  0.1716 -2.4225
14064SOL    HW242771   0.713   5.847   3.817  0.2008  0.1808  0.6292
14065SOL     OW42772   9.498   2.801   8.741  0.1982 -0.2093  0.1373
14065SOL    HW142773   9.445   2.881   8.738 -0.7555 -0.8118  0.3518
14065SOL    HW242774   9.437   2.731   8.718  0.2098 -1.2545  2.8716
14066SOL     OW42775   6.176   3.309   8.669 -0.6073  0.1217  0.0557
14066SOL    HW142776   6.167   3.249   8.595 -0.1242 -0.0698  0.1477
14066SOL    HW242777   6.166   3.396   8.631  0.5687  0.0742 -0.4020
14067SOL     OW42778   9.618   5.423   8.763 -0.4288  0.2071  0.4717
14067SOL    HW142779   9.654   5.376   8.687 -1.2093 -1.3386  1.0248
14067SOL    HW242780   9.695   5.442   8.817  0.0958  1.0519 -0.5291
14068SOL     OW42781   4.510   6.707   2.179  0.5721 -0.0106  0.0251
14068SOL    HW142782   4.463   6.784   2.146 -1.7482 -1.3462 -0.0102
14068SOL    HW242783   4.460   6.681   2.256 -0.0617 -2.7194 -1.1932
14069SOL     OW42784   0.776   0.140   8.473 -0.4580 -0.6968  0.0903
14069SOL    HW142785   0.845   0.101   8.527  0.6624  1.0019 -0.0351
14069SOL    HW242786   0.813   0.223   8.445 -2.9029  0.6700  0.7060
14070SOL     OW42787   4.688   8.072   6.747 -0.2234 -0.2017  0.4435
14070SOL    HW142788   4.623   8.064   6.818 -0.9394  0.4235 -0.1154
14070SOL    HW242789   4.707   7.982   6.721 -1.4377 -0.3845  0.1255
14071SOL     OW42790   0.426   4.227   0.553 -0.3003  0.0195  0.6816
14071SOL    HW142791   0.340   4.200   0.522 -2.3999  3.4758  2.8276
14071SOL    HW242792   0.465   4.274   0.478 -1.9049  1.4889  0.6914
14072SOL     OW42793   1.442   0.747   3.217 -0.7185 -0.0432 -0.3819
14072SOL    HW142794   1.361   0.729   3.169  0.6296 -2.3565 -2.0046
14072SOL    HW242795   1.500   0.787   3.152  0.9892 -2.8118 -0.7378
14073SOL     OW42796   9.349   0.758   2.037  0.4497 -0.3089  0.2602
14073SOL    HW142797   9.416   0.801   2.091  0.3868  0.2787 -0.1157
14073SOL    HW242798   9.276   0.819   2.039  0.4851 -0.2403 -0.5705
14074SOL     OW42799   6.311   7.518   3.458 -0.8628  0.2164  0.3537
14074SOL    HW142800   6.226   7.546   3.424 -0.9735 -0.9917 -0.4200
14074SOL    HW242801   6.368   7.595   3.448 -0.8316 -0.0956 -2.8418
14075SOL     OW42802   2.454   9.473   5.342 -0.6147  0.5463  0.3000
14075SOL    HW142803   2.420   9.555   5.306 -1.2937  0.5163  0.8316
14075SOL    HW242804   2.547   9.474   5.321 -1.1129  0.0417 -2.3883
14076SOL     OW42805   1.001   4.270   1.487  0.3299  0.2057  0.1828
14076SOL    HW142806   1.029   4.231   1.570  0.4202 -0.1256  0.0007
14076SOL    HW242807   0.974   4.358   1.509  0.9220  0.3202  0.4685
14077SOL     OW42808   1.490   0.281   7.306  0.2607  0.8508 -0.0355
14077SOL    HW142809   1.405   0.248   7.279 -0.3671 -0.7658  3.4390
14077SOL    HW242810   1.472   0.370   7.338 -0.1232  0.5625  0.5663
14078SOL     OW42811   4.508   4.525   0.217 -0.4393 -0.0486 -0.1753
14078SOL    HW142812   4.525   4.604   0.167 -1.9420  1.4052  1.5038
14078SOL    HW242813   4.418   4.501   0.195  0.2097 -1.7623 -1.1991
14079SOL     OW42814   1.925   8.846   4.251  0.0700  0.1326 -0.3764
14079SOL    HW142815   1.904   8.819   4.162 -2.4239 -0.8477  0.4304
14079SOL    HW242816   1.908   8.941   4.251 -4.2859 -0.4336 -0.0019
14080SOL     OW42817   2.848   1.708   0.184  0.2056  0.0889 -0.4238
14080SOL    HW142818   2.798   1.627   0.172  0.3672 -0.2316  0.8884
14080SOL    HW242819   2.938   1.683   0.159 -0.1863  0.6144 -2.5936
14081SOL     OW42820   4.600   9.192   7.949 -0.3409 -0.0391 -0.2572
14081SOL    HW142821   4.619   9.188   7.856  0.3077 -0.1902 -0.1233
14081SOL    HW242822   4.651   9.267   7.981 -0.7913  0.1954 -0.0772
14082SOL     OW42823   9.128   6.334   8.315 -0.0335 -0.1165 -0.2546
14082SOL    HW142824   9.049   6.388   8.318  0.9588  1.3462  1.2226
14082SOL    HW242825   9.173   6.361   8.235  0.0187  0.6312  0.0209
14083SOL     OW42826   7.882   7.165   5.141 -0.6742 -0.3829 -0.1022
14083SOL    HW142827   7.938   7.156   5.218  0.1021 -1.3447 -0.7530
14083SOL    HW242828   7.931   7.222   5.082 -1.3766  0.5520  0.1939
14084SOL     OW42829   4.763   1.220   7.066  0.1410  0.2501  0.1247
14084SOL    HW142830   4.855   1.201   7.049  0.0460 -0.3929  0.2878
14084SOL    HW242831   4.722   1.134   7.071  0.1561  0.3179  3.6051
14085SOL     OW42832   0.524   7.733   8.259  0.4287 -0.6287  0.1430
14085SOL    HW142833   0.481   7.716   8.343  1.0254 -1.1376  0.3575
14085SOL    HW242834   0.617   7.735   8.280  0.6225 -1.3186 -0.5823
14086SOL     OW42835   3.325   6.585   6.568  0.4607 -0.5998  0.0654
14086SOL    HW142836   3.278   6.536   6.500  1.7159 -0.4842 -0.9350
14086SOL    HW242837   3.417   6.561   6.555  0.8731  0.4767  0.8624
14087SOL     OW42838   7.994   9.182   5.933  0.3902 -0.0604 -0.1873
14087SOL    HW142839   8.050   9.232   5.992  0.4852  0.0717 -0.3873
14087SOL    HW242840   7.907   9.221   5.943  0.3042 -0.3434  0.2133
14088SOL     OW42841   7.340   3.056   3.152 -0.4127 -0.4667  0.1484
14088SOL    HW142842   7.263   3.107   3.127  0.6885  1.2441  0.0610
14088SOL    HW242843   7.359   3.002   3.076 -1.4841 -0.8791  0.1552
14089SOL     OW42844   8.111   6.810   4.507  0.1548 -0.5839 -0.2778
14089SOL    HW142845   8.090   6.847   4.422  1.0041  0.9123  0.1336
14089SOL    HW242846   8.104   6.715   4.495 -1.7452 -0.3276 -1.4506
14090SOL     OW42847   6.038   1.219   3.993  0.1434  0.0016 -0.3295
14090SOL    HW142848   6.131   1.196   3.997  0.6333  2.0178  1.2226
14090SOL    HW242849   5.994   1.151   4.044  1.2011  0.7247  1.6738
14091SOL     OW42850   1.975   6.905   1.800 -0.8727  0.3441 -0.1299
14091SOL    HW142851   2.006   6.969   1.736  2.4471  0.3402  1.3161
14091SOL    HW242852   1.902   6.860   1.755 -2.6106  4.2231 -1.6027
14092SOL     OW42853   8.230   0.006   5.405 -0.0077 -0.4329  0.2247
14092SOL    HW142854   8.286   0.043   5.472  1.3856  0.7474 -1.4948
14092SOL    HW242855   8.273   0.028   5.322 -2.1129 -0.9954 -1.1195
14093SOL     OW42856   8.103   7.021   6.951 -0.1564  0.3219  0.0974
14093SOL    HW142857   8.140   7.024   7.039  1.2917  0.4622 -0.4933
14093SOL    HW242858   8.030   7.083   6.953  2.5805  3.7822 -0.0057
14094SOL     OW42859   7.975   0.280   9.562  0.1903  0.0013 -0.0521
14094SOL    HW142860   7.911   0.312   9.626 -0.7402  0.2199 -1.0520
14094SOL    HW242861   8.055   0.330   9.580  0.7001 -1.5653  2.4112
14095SOL     OW42862   0.478   1.766   8.650 -0.1381  0.4192 -0.3961
14095SOL    HW142863   0.492   1.675   8.677 -0.5342  0.2679 -0.6804
14095SOL    HW242864   0.564   1.807   8.659 -0.0575  0.1446  0.2056
14096SOL     OW42865   8.630   9.750   4.136 -0.0407 -0.2034  0.0915
14096SOL    HW142866   8.725   9.757   4.122 -0.2207  1.2548 -0.5329
14096SOL    HW242867   8.593   9.820   4.082 -1.5023 -0.9463  0.1038
14097SOL     OW42868   6.505   6.251   3.628  0.0979 -0.2743 -0.7068
14097SOL    HW142869   6.555   6.170   3.616 -2.1392 -1.9162  0.3913
14097SOL    HW242870   6.553   6.298   3.697  2.4015  0.2833 -2.5557
14098SOL     OW42871   8.950   4.000   2.593 -0.2377 -0.0159 -0.4689
14098SOL    HW142872   8.901   4.015   2.512 -1.2302 -0.2370  0.0707
14098SOL    HW242873   8.979   3.909   2.586  1.4043  0.5493 -1.4546
14099SOL     OW42874   3.394   1.310   6.119  0.1117 -0.1771 -0.4909
14099SOL    HW142875   3.356   1.392   6.086 -0.0633 -0.1952 -0.3349
14099SOL    HW242876   3.488   1.319   6.101  0.1906  0.3542  0.1382
14100SOL     OW42877   7.335   6.617   6.408  0.0588 -0.1128 -0.9195
14100SOL    HW142878   7.259   6.570   6.440 -0.2819  0.4868 -0.8205
14100SOL    HW242879   7.344   6.692   6.467 -0.6425  1.0629 -2.2381
14101SOL     OW42880   0.746   3.085   8.654  0.4649 -0.5399  0.0307
14101SOL    HW142881   0.826   3.033   8.642  0.5204 -0.6036  0.6235
14101SOL    HW242882   0.777   3.169   8.687  0.3041 -0.4784  0.0252
14102SOL     OW42883   2.233   8.745   1.488 -0.3173 -0.1558  0.0083
14102SOL    HW142884   2.271   8.804   1.423 -0.6825 -1.7475 -1.7248
14102SOL    HW242885   2.145   8.780   1.503  0.5995  1.6646  1.6184
14103SOL     OW42886   2.053   1.676   9.307  0.4922  0.2242  1.3659
14103SOL    HW142887   1.980   1.735   9.289  0.7627  0.4488  0.9976
14103SOL    HW242888   2.118   1.731   9.351  0.9109  0.3000  0.6586
14104SOL     OW42889   1.580   7.593   1.245 -0.0306 -0.3579 -0.3266
14104SOL    HW142890   1.487   7.578   1.263  0.5688 -1.4493  2.3459
14104SOL    HW242891   1.604   7.665   1.303  0.6981  0.3301 -1.4469
14105SOL     OW42892   0.713   3.467   0.755  0.1454  0.2264 -0.2040
14105SOL    HW142893   0.659   3.402   0.710 -0.5992  0.2778  0.6047
14105SOL    HW242894   0.785   3.416   0.792 -0.6780 -0.2402  0.8177
14106SOL     OW42895   5.174   9.111   8.024  0.1459  0.6209  0.2082
14106SOL    HW142896   5.263   9.112   8.060  1.9275 -1.9641 -3.4900
14106SOL    HW242897   5.141   9.023   8.044 -2.1610  1.8357  2.3845
14107SOL     OW42898   0.521   1.173   7.355  0.3370  0.1473  0.3322
14107SOL    HW142899   0.556   1.227   7.284 -1.2276  0.9804  0.1486
14107SOL    HW242900   0.596   1.160   7.413  1.5503 -0.1818 -1.2120
14108SOL     OW42901   7.866   9.193   1.694  0.1606  0.3130 -0.1642
14108SOL    HW142902   7.831   9.224   1.778  0.4691  0.7188 -0.1833
14108SOL    HW242903   7.961   9.195   1.705  0.2064  0.5046 -0.5723
14109SOL     OW42904   1.160   6.508   9.914  0.0495 -0.4182  0.0566
14109SOL    HW142905   1.126   6.482  10.000 -1.0674 -2.0801 -0.8231
14109SOL    HW242906   1.188   6.426   9.874  0.0183  0.2462 -1.3864
14110SOL     OW42907   2.453   6.755   3.584  0.2230 -0.1264  0.5105
14110SOL    HW142908   2.379   6.800   3.544  0.9050  0.7371  0.1883
14110SOL    HW242909   2.414   6.694   3.646 -0.7348  0.5988  0.6283
14111SOL     OW42910   6.669   7.595   6.811 -0.6031 -0.4144 -0.6914
14111SOL    HW142911   6.577   7.580   6.791 -0.8336 -1.0137  0.6953
14111SOL    HW242912   6.716   7.544   6.746 -1.2553 -0.3669 -1.2117
14112SOL     OW42913   2.571   3.444   0.860  0.4594  0.7669  0.3778
14112SOL    HW142914   2.475   3.445   0.855  0.4163 -1.4241 -0.1268
14112SOL    HW242915   2.590   3.471   0.950 -0.8162 -1.6774  1.4900
14113SOL     OW42916   9.074   6.815   4.800  0.5337  0.4634  0.2728
14113SOL    HW142917   9.154   6.842   4.845  0.4402  0.6119  0.3501
14113SOL    HW242918   9.104   6.781   4.716  0.6409  0.9626  0.1033
14114SOL     OW42919   4.511   4.482   6.403  0.1484 -0.2534 -0.1212
14114SOL    HW142920   4.576   4.424   6.362  0.7830  0.9559 -0.8996
14114SOL    HW242921   4.465   4.522   6.329 -0.7033 -0.2314  0.4151
14115SOL     OW42922   1.031   5.510   0.078 -0.0140  0.1053 -0.0407
14115SOL    HW142923   1.117   5.490   0.116  0.5877  0.4221 -1.1822
14115SOL    HW242924   0.969   5.457   0.129  1.1126 -1.9847 -0.7296
14116SOL     OW42925   4.104   0.350   7.390 -0.2688 -0.4037 -0.6369
14116SOL    HW142926   4.044   0.315   7.455 -0.4918 -0.4928 -0.8866
14116SOL    HW242927   4.166   0.278   7.375  0.2854 -0.0855  0.0864
14117SOL     OW42928   5.022   1.952   5.604  0.0811  0.7302  0.0884
14117SOL    HW142929   5.097   2.010   5.618 -0.3692  1.3714 -0.0894
14117SOL    HW242930   4.947   2.002   5.638 -0.4058  0.5148 -0.6515
14118SOL     OW42931   6.316   9.305   8.377  0.0014  0.5248 -0.1980
14118SOL    HW142932   6.237   9.271   8.418 -0.0130 -1.2931 -1.6317
14118SOL    HW242933   6.383   9.299   8.444 -0.3514 -1.0126  0.0400
14119SOL     OW42934   8.613   5.590   0.282  0.1381  0.1079 -0.1183
14119SOL    HW142935   8.682   5.592   0.217 -1.0001  2.2119 -1.3684
14119SOL    HW242936   8.649   5.636   0.358  1.5097 -2.4543  0.9111
14120SOL     OW42937   9.918   1.433   1.906  0.6459  0.1670 -0.3118
14120SOL    HW142938  10.010   1.439   1.880  0.6739 -1.8218 -0.8555
14120SOL    HW242939   9.908   1.342   1.936 -0.7878  0.7845  1.1984
14121SOL     OW42940   9.884   0.056   0.900 -0.1498  0.1655  0.1282
14121SOL    HW142941   9.852   0.071   0.989  1.0460  0.3312  0.5473
14121SOL    HW242942   9.946  -0.017   0.908  0.5406  0.6739 -0.4300
14122SOL     OW42943   9.193   7.187   4.399  0.4800  0.3486  0.1914
14122SOL    HW142944   9.255   7.141   4.342 -1.2521 -2.0764  0.1012
14122SOL    HW242945   9.199   7.140   4.483 -0.1902  1.0122  0.6183
14123SOL     OW42946   5.950   6.677   7.664  0.1590 -0.2816  0.0377
14123SOL    HW142947   5.861   6.645   7.678  0.5582 -1.6067 -0.3075
14123SOL    HW242948   5.969   6.731   7.741 -0.5718 -0.8291  0.6080
14124SOL     OW42949   9.464   6.106   1.682  0.0671 -0.3182 -0.8008
14124SOL    HW142950   9.502   6.101   1.770  0.9201 -0.5121 -1.1659
14124SOL    HW242951   9.509   6.180   1.641 -0.5501 -0.0316 -0.9734
14125SOL     OW42952   8.863   1.897   5.578 -0.3399 -0.0338  0.4485
14125SOL    HW142953   8.835   1.824   5.524 -0.5096  0.9181 -0.8131
14125SOL    HW242954   8.829   1.878   5.666 -2.5675 -0.2631 -0.3976
14126SOL     OW42955   3.104   3.466   8.214  0.6568  0.2891  0.3484
14126SOL    HW142956   3.177   3.504   8.263  2.6518 -0.3731 -1.9169
14126SOL    HW242957   3.118   3.372   8.218  0.3576  0.1851 -0.7256
14127SOL     OW42958   4.770   0.925   3.895  0.3310 -0.4558  0.0787
14127SOL    HW142959   4.848   0.875   3.869  2.0615  1.3413  1.5620
14127SOL    HW242960   4.804   1.000   3.943 -2.2162  1.6079 -1.1016
14128SOL     OW42961   3.122   2.376   8.063 -0.4499  0.4088  0.2511
14128SOL    HW142962   3.125   2.433   7.986  0.3416  1.8884  1.3209
14128SOL    HW242963   3.137   2.288   8.028 -3.2112  0.5563 -1.6402
14129SOL     OW42964   6.170   7.574   9.829  0.3504  0.0265  0.0320
14129SOL    HW142965   6.171   7.559   9.735 -1.3327 -0.3775  0.0505
14129SOL    HW242966   6.255   7.544   9.859  0.7769 -0.1689 -1.3089
14130SOL     OW42967   5.858   7.667   5.356 -0.5164 -0.0386 -0.1948
14130SOL    HW142968   5.886   7.596   5.414  0.0367  1.2739  1.2037
14130SOL    HW242969   5.784   7.707   5.401 -0.0375  1.0518 -0.3324
14131SOL     OW42970   8.516   1.688   8.869  0.7802  0.4035 -0.0309
14131SOL    HW142971   8.466   1.695   8.951 -0.2422 -1.2234 -0.4731
14131SOL    HW242972   8.586   1.752   8.879 -0.6898  1.9581  1.1211
14132SOL     OW42973   2.999   3.714   7.238 -0.3459  0.2244  0.0371
14132SOL    HW142974   3.070   3.662   7.276 -0.7651 -0.3954 -0.0225
14132SOL    HW242975   2.982   3.672   7.154 -1.4810 -0.2536  0.4984
14133SOL     OW42976   8.708   0.799   6.895 -0.1152  0.3727 -0.0095
14133SOL    HW142977   8.758   0.718   6.893  0.4991  0.5349  3.1967
14133SOL    HW242978   8.760   0.859   6.948 -0.7508  2.7902 -1.9206
14134SOL     OW42979   9.445   3.406   3.692 -0.5450  0.5697  0.5774
14134SOL    HW142980   9.486   3.327   3.658 -0.3438  0.4960  0.9820
14134SOL    HW242981   9.470   3.408   3.785  0.1984  1.5765  0.3778
14135SOL     OW42982   0.173   1.300   0.683 -0.0145  0.2573  0.2343
14135SOL    HW142983   0.085   1.330   0.660 -0.9019 -1.2583  1.4458
14135SOL    HW242984   0.158   1.221   0.735  2.0984 -0.3183  0.0364
14136SOL     OW42985   5.814   0.263   3.221  0.1396 -0.4133 -0.4457
14136SOL    HW142986   5.862   0.338   3.183 -0.4087 -0.7105 -1.7669
14136SOL    HW242987   5.816   0.279   3.315  1.0188  0.6784 -0.6276
14137SOL     OW42988   6.744   2.936   5.725  0.3245  0.3864 -0.7226
14137SOL    HW142989   6.652   2.959   5.735  0.7399  1.2807  1.9174
14137SOL    HW242990   6.777   2.928   5.814  2.4024 -1.7853 -1.5706
14138SOL     OW42991   5.791   9.460   9.489  0.1021  0.4827 -0.2238
14138SOL    HW142992   5.777   9.544   9.446  0.7569 -0.0905 -1.6214
14138SOL    HW242993   5.837   9.407   9.424 -1.8201 -1.5527 -0.0443
14139SOL     OW42994   8.051   6.855   0.352 -0.0604  0.1520  0.0431
14139SOL    HW142995   8.094   6.940   0.351 -0.6070  0.5127  2.5522
14139SOL    HW242996   8.007   6.850   0.267 -0.2986  2.5040 -0.0383
14140SOL     OW42997   0.193   9.229   0.429 -0.1947  1.0301 -0.1257
14140SOL    HW142998   0.138   9.151   0.436 -0.4304  1.0392 -1.4733
14140SOL    HW242999   0.282   9.195   0.427 -0.3380  0.3949 -3.7528
14141SOL     OW43000   5.413   9.533   2.217  0.1437 -0.2915  0.1459
14141SOL    HW143001   5.461   9.492   2.289 -0.9072  1.5300  2.0113
14141SOL    HW243002   5.392   9.462   2.158  1.9240 -1.7148  1.1167
14142SOL     OW43003   4.628   3.988   0.396  0.4692  0.4232 -0.2072
14142SOL    HW143004   4.632   3.977   0.301  0.0404  0.4526 -0.2335
14142SOL    HW243005   4.706   3.945   0.429 -0.0227 -0.7182 -0.4743
14143SOL     OW43006   2.854   6.830   7.371  0.5996 -0.2825  0.4129
14143SOL    HW143007   2.835   6.752   7.422 -0.8982  0.8489  1.6866
14143SOL    HW243008   2.834   6.805   7.281 -0.3638 -1.2310  0.8661
14144SOL     OW43009   1.478   5.454   7.018 -0.1064  0.8736  0.7091
14144SOL    HW143010   1.431   5.418   7.093 -0.1139  0.9459  0.7393
14144SOL    HW243011   1.436   5.414   6.942  0.1765  0.4830  0.7616
14145SOL     OW43012   1.448   1.234   0.172  0.2059 -0.1211  0.8495
14145SOL    HW143013   1.447   1.138   0.168 -3.2250 -0.1862 -1.8772
14145SOL    HW243014   1.386   1.256   0.241  1.6493  0.2518  2.0912
14146SOL     OW43015   4.896   6.964   8.263 -0.3423  0.6508 -0.0852
14146SOL    HW143016   4.843   7.041   8.285 -0.1663  0.3898  1.4056
14146SOL    HW243017   4.982   6.983   8.299 -0.6095 -0.6986  1.4078
14147SOL     OW43018   9.006   0.170   3.173 -0.0181  0.3363  0.5100
14147SOL    HW143019   9.082   0.204   3.220  0.8887  0.4708 -0.9977
14147SOL    HW243020   9.023   0.076   3.164 -0.2026  0.3051  0.4831
14148SOL     OW43021   9.809   7.395   7.145  0.1009 -0.2848  0.1015
14148SOL    HW143022   9.806   7.325   7.210  0.1823 -1.6957 -1.3379
14148SOL    HW243023   9.749   7.366   7.076 -1.7124  2.1989  0.4802
14149SOL     OW43024   0.075   8.244   3.916 -0.4062 -0.9285  0.1281
14149SOL    HW143025   0.058   8.315   3.854 -0.3116  1.2375  2.3822
14149SOL    HW243026   0.171   8.234   3.915 -0.3434 -0.4223  0.3575
14150SOL     OW43027   7.703   6.258   6.683  0.1252 -0.3281 -0.4912
14150SOL    HW143028   7.678   6.297   6.767  3.2171 -1.3576  1.0640
14150SOL    HW243029   7.626   6.208   6.656 -1.8752  2.0966  0.3259
14151SOL     OW43030   1.054   3.350   4.419  0.1972  0.1793  0.3969
14151SOL    HW143031   1.088   3.321   4.504 -0.1096 -0.8769  0.1678
14151SOL    HW243032   1.112   3.423   4.395  0.4469  0.3316  1.3845
14152SOL     OW43033   4.270   1.970   9.725  0.1215  0.4885 -0.0533
14152SOL    HW143034   4.352   1.974   9.677  0.5024  1.2869  0.6450
14152SOL    HW243035   4.212   1.919   9.668  0.3567  1.9134 -1.6593
14153SOL     OW43036   6.287   6.190   1.644  0.3187  0.0515  0.4894
14153SOL    HW143037   6.276   6.265   1.585 -0.4033 -0.0511  0.4849
14153SOL    HW243038   6.287   6.114   1.585  0.5494  0.0140  0.5382
14154SOL     OW43039   9.341   2.133   0.942 -0.3238  0.0448  0.0812
14154SOL    HW143040   9.372   2.223   0.952 -0.4965  0.1191 -0.0438
14154SOL    HW243041   9.254   2.134   0.982 -0.4145 -0.0152 -0.1179
14155SOL     OW43042   1.559   0.086   2.229  0.4825  0.2669 -0.1076
14155SOL    HW143043   1.555   0.100   2.323  2.6492 -0.8196  0.2233
14155SOL    HW243044   1.588  -0.005   2.220  1.1230  0.5957 -1.7831
14156SOL     OW43045   9.415   9.177   0.372  0.5809  0.1657 -0.0517
14156SOL    HW143046   9.348   9.203   0.309 -0.2534 -1.2039  0.2168
14156SOL    HW243047   9.487   9.146   0.318  0.6036  0.7175 -0.3423
14157SOL     OW43048   4.666   2.881   3.632  0.1346  0.4296 -0.0544
14157SOL    HW143049   4.581   2.913   3.604 -0.4609 -0.6736  0.4147
14157SOL    HW243050   4.677   2.916   3.721 -0.3065 -0.2389  0.2778
14158SOL     OW43051   1.838   7.730   2.256  0.4684  0.3685 -0.3529
14158SOL    HW143052   1.779   7.686   2.317  2.5087  0.4146  1.8276
14158SOL    HW243053   1.798   7.718   2.170 -1.5130 -1.5172  0.7338
14159SOL     OW43054   1.055   9.340   2.752  0.5466 -0.0151 -1.0404
14159SOL    HW143055   1.008   9.371   2.675 -0.4320  1.6391  0.1471
14159SOL    HW243056   0.995   9.278   2.794  0.8158 -0.4348 -1.2734
14160SOL     OW43057   9.959   8.825   0.521  0.6653 -0.0581  0.2291
14160SOL    HW143058  10.049   8.849   0.501  0.5536 -0.5821 -0.9571
14160SOL    HW243059   9.923   8.902   0.564  1.6689  0.1582  0.7123
14161SOL     OW43060   5.375   0.545   1.411 -0.0269 -0.7431  0.3690
14161SOL    HW143061   5.287   0.517   1.388 -0.0864 -0.5660  0.3808
14161SOL    HW243062   5.403   0.484   1.479 -0.9940  0.5657  2.0093
14162SOL     OW43063   0.478   3.153   8.741  0.3426  1.0864  0.2588
14162SOL    HW143064   0.480   3.242   8.706  0.5101  0.3378 -1.7965
14162SOL    HW243065   0.564   3.116   8.717  0.0297  0.1858  0.4899
14163SOL     OW43066   0.368   0.862   8.203  0.0547 -0.1821 -0.1005
14163SOL    HW143067   0.325   0.814   8.133 -0.0492  1.3673 -1.1541
14163SOL    HW243068   0.302   0.868   8.272  0.4119 -2.3724  0.4999
14164SOL     OW43069   8.775   1.544   2.209  0.1601  0.2336  0.1643
14164SOL    HW143070   8.688   1.579   2.191  0.3139  0.4848 -0.0906
14164SOL    HW243071   8.763   1.449   2.207 -0.5019  0.2280  2.0117
14165SOL     OW43072   7.715   0.518   8.963  0.6002  0.1673  0.3176
14165SOL    HW143073   7.755   0.435   8.940  1.0795  0.0409  1.5202
14165SOL    HW243074   7.773   0.584   8.925 -1.4365  0.0631 -3.4564
14166SOL     OW43075   2.305   1.840   8.828  0.3366  0.0472 -0.1642
14166SOL    HW143076   2.212   1.821   8.835  0.3507  0.1184  0.2545
14166SOL    HW243077   2.321   1.848   8.734  0.0871 -0.8051 -0.2891
14167SOL     OW43078   0.811   9.013   7.487  1.0271 -0.9526 -0.1545
14167SOL    HW143079   0.819   9.108   7.478 -0.5054 -0.9174 -1.5990
14167SOL    HW243080   0.830   8.979   7.400 -1.7656 -1.6578 -0.5787
14168SOL     OW43081   0.679   8.647   3.494  0.0895 -0.3586  0.1204
14168SOL    HW143082   0.764   8.614   3.525 -0.6361 -2.1184  0.3689
14168SOL    HW243083   0.674   8.617   3.403 -0.3152 -0.3504  0.1410
14169SOL     OW43084   8.885   2.834   4.844  0.4756 -0.1185  0.2182
14169SOL    HW143085   8.908   2.755   4.894  2.9711 -0.2797 -1.0372
14169SOL    HW243086   8.968   2.866   4.810 -0.4213  3.2510  0.8478
14170SOL     OW43087   1.771   7.074   5.616 -0.3562 -0.7698 -0.0140
14170SOL    HW143088   1.685   7.039   5.638  0.0823 -2.5580 -0.9408
14170SOL    HW243089   1.769   7.085   5.521  0.3142 -0.5215 -0.0052
14171SOL     OW43090   6.288   1.963   0.552  0.5385  0.0466  0.2010
14171SOL    HW143091   6.301   2.056   0.538  1.0577  0.2833  2.1266
14171SOL    HW243092   6.214   1.957   0.612  0.3318 -0.8081 -0.1149
14172SOL     OW43093   6.621   1.913   7.938  0.0588 -0.2639 -0.1164
14172SOL    HW143094   6.661   1.881   7.857  1.5013  3.0293 -0.8649
14172SOL    HW243095   6.694   1.934   7.995 -0.8502 -0.0367  1.0015
14173SOL     OW43096   2.326   6.790   5.338  0.0586 -0.0131  0.5343
14173SOL    HW143097   2.413   6.749   5.334 -0.3403 -1.0960  2.1998
14173SOL    HW243098   2.329   6.858   5.270  1.0434 -2.1963 -1.7800
14174SOL     OW43099   6.477   0.461   0.959 -0.3316  0.1931 -0.6891
14174SOL    HW143100   6.485   0.537   0.900 -2.1976  1.1683  0.2215
14174SOL    HW243101   6.391   0.425   0.939  0.5203 -1.7302 -1.0849
14175SOL     OW43102   7.259   8.703   7.866 -0.0674 -0.1125 -0.0893
14175SOL    HW143103   7.184   8.713   7.924 -0.6352 -3.7122  0.0565
14175SOL    HW243104   7.221   8.703   7.778 -0.4733 -2.5668  0.0083
14176SOL     OW43105   9.478   3.586   8.415  0.6240  0.4201 -0.3423
14176SOL    HW143106   9.391   3.586   8.455  0.9592  3.4143  0.6681
14176SOL    HW243107   9.531   3.532   8.474  0.2633  1.7327  1.2745
14177SOL     OW43108   8.655   6.158   9.776 -0.2095 -0.2515 -0.2871
14177SOL    HW143109   8.581   6.128   9.722  1.2625 -3.1904 -0.8794
14177SOL    HW243110   8.733   6.132   9.727  1.3147  2.7438  0.3267
14178SOL     OW43111   7.262   9.220   3.976  0.2205 -0.1640 -0.5927
14178SOL    HW143112   7.200   9.286   4.007  2.0757  0.7256  1.5831
14178SOL    HW243113   7.209   9.141   3.962 -1.4498  0.6087  0.9321
14179SOL     OW43114   3.638   2.072   2.665 -0.3257 -0.4795 -0.1745
14179SOL    HW143115   3.557   2.022   2.657 -0.6725 -0.0713  0.6801
14179SOL    HW243116   3.703   2.007   2.692 -0.5719 -0.6391  0.0372
14180SOL     OW43117   1.629   4.549   1.316  0.3769  0.1638 -0.5314
14180SOL    HW143118   1.649   4.497   1.239 -2.5076  1.0168 -1.9889
14180SOL    HW243119   1.536   4.533   1.332  0.3699  1.7711  1.4164
14181SOL     OW43120   7.148   9.579   5.621 -0.2312  0.0227 -0.2503
14181SOL    HW143121   7.221   9.641   5.625 -0.8410  0.7597 -0.2572
14181SOL    HW243122   7.172   9.520   5.549  0.2711  0.3732 -0.3836
14182SOL     OW43123   5.759   1.634   4.231  0.3855 -0.1543  0.1058
14182SOL    HW143124   5.774   1.545   4.199 -0.1302 -1.0094  2.0839
14182SOL    HW243125   5.770   1.690   4.153  2.5724 -1.7321 -0.8082
14183SOL     OW43126   3.104   4.356   4.574  0.1867 -0.4782  0.6969
14183SOL    HW143127   3.140   4.319   4.655  1.1750  2.2131  1.5930
14183SOL    HW243128   3.169   4.419   4.545 -1.0090 -0.0327 -1.1968
14184SOL     OW43129   4.876   2.893   6.196  0.4187  0.0841 -0.3076
14184SOL    HW143130   4.804   2.952   6.176  1.6878  1.5380 -0.7543
14184SOL    HW243131   4.836   2.821   6.244 -1.2029  1.1894  0.0493
14185SOL     OW43132   1.469   6.789   0.749  0.5084  0.3188  0.2043
14185SOL    HW143133   1.559   6.809   0.721  0.3355  0.5256 -0.2184
14185SOL    HW243134   1.480   6.725   0.819  0.9773  0.0585 -0.0926
14186SOL     OW43135   5.528   3.076   1.043 -0.5256  0.0240  0.7177
14186SOL    HW143136   5.457   3.023   1.080 -0.9557  0.0288 -0.0851
14186SOL    HW243137   5.483   3.149   0.999 -0.0498 -0.2001 -0.1574
14187SOL     OW43138   0.254   3.428   5.935 -0.4521  0.4282 -0.2388
14187SOL    HW143139   0.335   3.478   5.920  0.8193 -1.1873  0.8880
14187SOL    HW243140   0.285   3.342   5.963 -2.5935 -0.3734 -0.2265
14188SOL     OW43141   6.114   3.631   1.003 -0.4018  0.3627  0.2401
14188SOL    HW143142   6.164   3.610   1.082 -0.7966  0.9018  0.6443
14188SOL    HW243143   6.178   3.662   0.940  0.2058 -1.9191 -0.3570
14189SOL     OW43144   2.528   2.032   7.307 -0.3018 -0.5278  0.2742
14189SOL    HW143145   2.514   1.981   7.387  1.0551  1.8114  2.1090
14189SOL    HW243146   2.623   2.029   7.293 -0.3208  0.5941 -0.1786
14190SOL     OW43147   4.384   6.481   9.693  0.1291  0.0534  0.8182
14190SOL    HW143148   4.418   6.528   9.769  0.3769 -1.0176  1.3917
14190SOL    HW243149   4.341   6.404   9.730 -0.9176  0.1993 -0.0526
14191SOL     OW43150   9.341   6.499   9.505  0.5066 -0.1213  0.2040
14191SOL    HW143151   9.351   6.555   9.583 -1.4538  1.0531 -0.3459
14191SOL    HW243152   9.385   6.548   9.435 -3.2701  2.1344 -0.8535
14192SOL     OW43153   0.078   2.065   1.896 -0.1626 -0.0294  0.3867
14192SOL    HW143154   0.002   2.055   1.839 -0.7080  0.2646  1.0456
14192SOL    HW243155   0.045   2.044   1.983  1.0583 -2.1805  0.3978
14193SOL     OW43156   3.417   5.382   4.604  0.1628  0.2720  0.7661
14193SOL    HW143157   3.493   5.432   4.573  0.4030 -1.1807 -1.2003
14193SOL    HW243158   3.343   5.442   4.595  0.6661  0.7927 -0.0451
14194SOL     OW43159   2.951   8.011   0.198 -0.5883 -0.1014 -0.2089
14194SOL    HW143160   2.885   8.056   0.250 -2.5675 -0.5361 -2.1873
14194SOL    HW243161   3.025   7.999   0.258 -1.9405  1.2008  1.8432
14195SOL     OW43162   7.278   7.330   3.644 -0.1302  0.1887  0.2748
14195SOL    HW143163   7.192   7.365   3.620 -0.1937  1.3124  1.9525
14195SOL    HW243164   7.318   7.400   3.697  1.2749 -0.8494  0.6394
14196SOL     OW43165   1.099   9.946   7.346 -0.2521  0.1541 -0.1082
14196SOL    HW143166   1.050   9.916   7.270 -1.5885  1.1439  0.3253
14196SOL    HW243167   1.166  10.004   7.310 -0.7309  0.4367 -0.5535
14197SOL     OW43168   2.360   8.801   2.020 -0.0460  0.7546 -0.1654
14197SOL    HW143169   2.329   8.864   1.954  0.8422  2.7967  1.2523
14197SOL    HW243170   2.339   8.715   1.983 -0.8949  1.8462 -2.4206
14198SOL     OW43171   3.848   1.872   2.262  0.2425 -0.0874 -0.5169
14198SOL    HW143172   3.802   1.956   2.263 -1.4407 -0.8899 -2.5619
14198SOL    HW243173   3.901   1.873   2.341 -0.9773  2.2101  0.3737
14199SOL     OW43174   9.394   8.525   5.068 -0.8305 -0.2557  0.2813
14199SOL    HW143175   9.464   8.466   5.095  1.1190  2.0442  0.6062
14199SOL    HW243176   9.329   8.519   5.138 -1.3439 -2.9109 -0.3338
14200SOL     OW43177   9.771   6.678   3.833 -0.4508  0.3076 -0.1083
14200SOL    HW143178   9.699   6.697   3.774 -0.9272 -1.0778  0.0062
14200SOL    HW243179   9.849   6.679   3.777 -0.8474 -0.5671 -0.6929
14201SOL     OW43180   0.006   1.025   4.228  0.5200 -0.4863  0.0502
14201SOL    HW143181   0.057   0.994   4.303 -0.4526 -0.9381  0.5390
14201SOL    HW243182  -0.022   0.945   4.184  0.8638 -0.2270 -0.6579
14202SOL     OW43183   5.698   8.330   6.191 -0.6428 -0.1096  0.1372
14202SOL    HW143184   5.743   8.369   6.116  0.4045 -1.5463 -0.0117
14202SOL    HW243185   5.713   8.392   6.262  1.8746 -0.6531  0.1770
14203SOL     OW43186   1.066   4.811   9.652 -0.3292  0.8524 -0.1144
14203SOL    HW143187   1.128   4.758   9.601 -1.4924 -0.2474 -0.4545
14203SOL    HW243188   1.109   4.825   9.736 -0.1210 -1.0266  0.1456
14204SOL     OW43189   2.881   7.575   5.537  0.3514 -0.7928  0.2022
14204SOL    HW143190   2.961   7.529   5.560  0.6426 -1.1950 -1.4506
14204SOL    HW243191   2.844   7.524   5.465 -0.5012  0.3201 -0.1862
14205SOL     OW43192   1.215   3.998   6.485  0.8049  0.1972 -0.0519
14205SOL    HW143193   1.276   3.942   6.533  0.2943  0.5629  1.0416
14205SOL    HW243194   1.152   4.028   6.551 -0.7958 -0.4716 -1.2072
14206SOL     OW43195   3.316   9.254   4.476 -0.1787  0.4432  0.7255
14206SOL    HW143196   3.330   9.221   4.387 -3.7534  0.7743 -0.1280
14206SOL    HW243197   3.343   9.182   4.532  1.0002 -0.2625 -0.6784
14207SOL     OW43198   3.503   6.750   3.257  0.7625  0.9533  0.4310
14207SOL    HW143199   3.468   6.686   3.318 -0.8423  1.3335 -0.0545
14207SOL    HW243200   3.437   6.819   3.253  1.7914  1.9467 -0.1587
14208SOL     OW43201   7.846   3.463   2.254  0.3404 -0.3936 -0.3560
14208SOL    HW143202   7.924   3.408   2.260 -0.2466 -1.2606 -0.4922
14208SOL    HW243203   7.791   3.436   2.327 -0.5458 -0.9604 -1.1984
14209SOL     OW43204   8.260   7.415   5.350 -0.3726  0.1248 -0.3739
14209SOL    HW143205   8.182   7.466   5.370 -1.4428 -1.5174 -0.1871
14209SOL    HW243206   8.294   7.389   5.435 -1.8472 -2.3403 -0.4499
14210SOL     OW43207   9.122   6.240   6.571  0.1679 -0.4284 -0.3578
14210SOL    HW143208   9.176   6.319   6.566  1.6759 -1.2652  1.4075
14210SOL    HW243209   9.043   6.262   6.522  0.7832  1.9524 -0.4276
14211SOL     OW43210   4.922   5.389   1.841 -0.0016  0.0533  0.4241
14211SOL    HW143211   4.884   5.320   1.894 -1.3111  0.4198 -0.0033
14211SOL    HW243212   4.940   5.348   1.756 -1.3300  0.3546 -0.0242
14212SOL     OW43213   0.669   2.687   8.354  0.6517  0.4511 -0.4083
14212SOL    HW143214   0.657   2.698   8.259 -2.0474 -0.4666 -0.2479
14212SOL    HW243215   0.633   2.600   8.372  1.9372  0.2372  1.3793
14213SOL     OW43216   3.537   4.062   1.490 -0.4851 -0.2490  0.8464
14213SOL    HW143217   3.608   4.020   1.539 -0.7466 -1.4869  0.2087
14213SOL    HW243218   3.489   3.989   1.451 -0.6506  0.6762 -0.7442
14214SOL     OW43219   0.243   8.003   2.360 -0.0563 -0.1990 -0.9478
14214SOL    HW143220   0.289   8.086   2.364  0.0738 -0.3248  1.0617
14214SOL    HW243221   0.152   8.024   2.378 -0.2309 -0.3570 -1.6172
14215SOL     OW43222   2.425   4.939   1.191  0.2592 -0.1563  0.1432
14215SOL    HW143223   2.505   4.961   1.143  0.3763  1.0132  0.8212
14215SOL    HW243224   2.380   4.875   1.136  1.1983 -0.1134 -0.7022
14216SOL     OW43225   1.937   1.671   6.974 -1.0131  0.4073 -0.1030
14216SOL    HW143226   1.933   1.609   6.901 -0.2368  0.3068 -0.0713
14216SOL    HW243227   1.848   1.704   6.983 -1.0293  0.7666 -1.3995
14217SOL     OW43228   4.933   6.592   7.365 -0.4527 -0.2783  0.2111
14217SOL    HW143229   4.916   6.545   7.447  0.2179 -0.5817  0.1860
14217SOL    HW243230   4.919   6.684   7.387  0.1419 -0.3168  0.7846
14218SOL     OW43231   5.118   9.265   1.251  0.6868  0.8104 -0.4624
14218SOL    HW143232   5.165   9.262   1.168  2.1736 -0.8167  0.3540
14218SOL    HW243233   5.029   9.238   1.230  0.9136  0.9218 -1.6005
14219SOL     OW43234   2.891   9.704   2.612 -0.2786 -0.1831 -0.3634
14219SOL    HW143235   2.877   9.798   2.624  0.4753 -0.0891 -0.1101
14219SOL    HW243236   2.936   9.697   2.528  0.0963 -0.2625 -0.1627
14220SOL     OW43237   1.133   0.906   3.616 -0.2267 -0.2696  0.2152
14220SOL    HW143238   1.208   0.875   3.565 -0.6756  0.6177 -1.0554
14220SOL    HW243239   1.060   0.850   3.590 -0.0985 -0.9388  1.2264
14221SOL     OW43240   5.608   2.314   7.699  0.1565  0.1850  0.1324
14221SOL    HW143241   5.540   2.348   7.640 -1.8947  0.2135  2.3376
14221SOL    HW243242   5.630   2.228   7.662 -1.5723 -0.1086 -0.3195
14222SOL     OW43243   4.911   7.471   3.535  0.2344  0.1147  0.5768
14222SOL    HW143244   4.864   7.400   3.491 -1.2241  1.2361  0.2385
14222SOL    HW243245   4.989   7.486   3.482 -0.1265 -0.3630 -0.0938
14223SOL     OW43246   1.280   4.668   2.587  0.6688 -0.4371  0.2524
14223SOL    HW143247   1.243   4.730   2.650 -0.3447 -0.2362 -0.5019
14223SOL    HW243248   1.375   4.677   2.597  0.5593 -0.7794  2.0841
14224SOL     OW43249   8.692   2.443   8.794 -0.0151  0.5039  0.0960
14224SOL    HW143250   8.662   2.362   8.753 -1.4156  0.8576  0.3861
14224SOL    HW243251   8.659   2.512   8.736 -0.0858  0.9183  0.6269
14225SOL     OW43252   1.814   2.197   1.593  0.3020  0.0964  0.3302
14225SOL    HW143253   1.865   2.263   1.641 -1.3818  1.5506  0.2305
14225SOL    HW243254   1.730   2.239   1.579 -0.9959 -2.2753  0.6219
14226SOL     OW43255   6.094   9.517   7.009 -0.3543 -0.5673 -0.1206
14226SOL    HW143256   6.105   9.474   6.924  1.5920  0.8942 -0.6992
14226SOL    HW243257   6.112   9.449   7.073 -1.9690 -1.7298 -0.8348
14227SOL     OW43258   4.867   4.860   2.203  0.6172  0.2647  0.0254
14227SOL    HW143259   4.779   4.880   2.234  0.3617  0.7743 -0.9971
14227SOL    HW243260   4.883   4.770   2.232 -1.4273 -0.9484 -2.3435
14228SOL     OW43261   2.314   3.642   0.070  0.1428 -0.3720 -0.3413
14228SOL    HW143262   2.352   3.728   0.052  0.9845 -0.6566  0.0554
14228SOL    HW243263   2.234   3.640   0.016  2.0101 -0.8021 -3.2948
14229SOL     OW43264   4.831   7.047   1.034 -0.1130  0.2186 -0.4499
14229SOL    HW143265   4.848   7.105   1.108 -0.9714  0.8086 -0.7039
14229SOL    HW243266   4.907   6.989   1.032  1.3519  2.0282 -0.8633
14230SOL     OW43267   6.668   4.316   4.455  0.1342  0.9970  0.0101
14230SOL    HW143268   6.645   4.278   4.540  1.0562  0.3601 -0.0064
14230SOL    HW243269   6.584   4.340   4.416 -0.5556 -1.3745 -0.1283
14231SOL     OW43270   6.776   5.630   7.333 -0.6964 -0.2990 -0.2843
14231SOL    HW143271   6.747   5.569   7.266 -0.8732  1.7026 -2.1383
14231SOL    HW243272   6.861   5.660   7.303 -0.9726  0.9723  0.1374
14232SOL     OW43273   2.550   0.843   4.951  0.5711  0.4123 -0.3589
14232SOL    HW143274   2.642   0.871   4.954 -0.0845  2.6576  1.0041
14232SOL    HW243275   2.511   0.881   5.029 -1.2906 -1.5355 -0.2410
14233SOL     OW43276   1.054   2.482   5.402  0.4056 -0.8277  0.3110
14233SOL    HW143277   1.106   2.468   5.323 -0.0712 -2.1017  0.1980
14233SOL    HW243278   1.113   2.463   5.474  0.4810 -0.9289  0.2220
14234SOL     OW43279   0.511   6.040   3.974  0.3684 -0.2700 -0.3132
14234SOL    HW143280   0.498   5.945   3.973  3.7812 -0.8664 -0.2837
14234SOL    HW243281   0.599   6.053   3.938  0.9131  2.7060  1.7132
14235SOL     OW43282   3.729   7.068   2.754 -0.0680  0.1564 -0.4449
14235SOL    HW143283   3.822   7.045   2.757  0.3037  1.3224 -1.8270
14235SOL    HW243284   3.689   7.016   2.823  1.1634 -2.4383 -1.5568
14236SOL     OW43285   3.576   1.138   6.692  0.5249 -0.4011  0.1015
14236SOL    HW143286   3.596   1.192   6.768 -2.5078 -0.0954  0.8072
14236SOL    HW243287   3.596   1.048   6.721  0.8533 -0.1433  0.6940
14237SOL     OW43288   0.141   3.164   6.357 -0.0096 -0.5317 -0.4379
14237SOL    HW143289   0.060   3.116   6.377 -0.4793  0.3930 -0.0652
14237SOL    HW243290   0.185   3.172   6.441 -1.4875  2.4477  0.1730
14238SOL     OW43291   0.609   9.319   3.951  0.0897  0.3691 -0.2854
14238SOL    HW143292   0.694   9.274   3.951  0.1078  0.3293 -2.1817
14238SOL    HW243293   0.610   9.371   3.871 -1.6445  0.4714 -0.2669
14239SOL     OW43294   3.486   4.494   2.199  0.3245 -0.0499  0.3299
14239SOL    HW143295   3.404   4.524   2.239 -0.0373 -0.8789  0.2326
14239SOL    HW243296   3.463   4.472   2.109  1.0735  1.5009 -0.2763
14240SOL     OW43297   6.932   7.151   8.055 -0.0792  0.5270 -0.0087
14240SOL    HW143298   6.970   7.158   7.968  1.5150  0.6741  0.6669
14240SOL    HW243299   6.972   7.222   8.105  0.6283 -0.7800  1.3804
14241SOL     OW43300   3.911   4.381   8.190 -0.4423 -0.1519 -0.0631
14241SOL    HW143301   3.932   4.385   8.097 -1.3198 -2.1699 -0.4015
14241SOL    HW243302   3.826   4.425   8.197 -0.2789  0.1854 -0.1630
14242SOL     OW43303   8.683   6.070   8.963 -0.2280 -0.2883 -0.7407
14242SOL    HW143304   8.734   6.050   8.885 -1.5976 -1.7099 -1.3156
14242SOL    HW243305   8.721   6.015   9.032 -1.0425 -1.4836 -1.2116
14243SOL     OW43306   4.792   0.441   4.100 -0.4899 -0.4557 -0.4653
14243SOL    HW143307   4.738   0.364   4.083  2.4035 -2.1086 -3.1760
14243SOL    HW243308   4.737   0.515   4.073 -2.6889 -1.6333  0.4981
14244SOL     OW43309   9.674   5.550   5.000  0.5971 -0.4059 -0.0871
14244SOL    HW143310   9.677   5.475   4.940  1.3679 -0.4350 -0.0236
14244SOL    HW243311   9.621   5.615   4.954  0.3198 -0.8128 -0.3506
14245SOL     OW43312   6.111   0.794   5.136 -0.2700  0.2099 -0.2457
14245SOL    HW143313   6.176   0.859   5.165  0.2190 -0.6870  0.7720
14245SOL    HW243314   6.154   0.710   5.153 -1.0472 -0.3829 -1.1669
14246SOL     OW43315   2.180   7.033   0.961  0.1241  0.1494 -0.4666
14246SOL    HW143316   2.260   7.083   0.974  0.5247 -0.7056  0.5822
14246SOL    HW243317   2.115   7.097   0.932  1.2596  0.7886 -1.6513
14247SOL     OW43318   9.208   3.161   9.315  0.2250 -0.3130 -0.6750
14247SOL    HW143319   9.291   3.165   9.268  0.4874  0.6402 -0.1581
14247SOL    HW243320   9.196   3.249   9.349 -0.6739 -0.6173 -0.1821
14248SOL     OW43321   4.037   5.726   8.818 -0.8702  0.0207  0.0207
14248SOL    HW143322   4.050   5.648   8.765  1.0269  0.6166 -0.4729
14248SOL    HW243323   3.992   5.788   8.760 -3.7994 -1.1237  0.8779
14249SOL     OW43324   4.912   2.595   6.261 -0.0870 -0.5879  0.2744
14249SOL    HW143325   4.961   2.649   6.323  0.6421  0.5137 -1.1767
14249SOL    HW243326   4.978   2.537   6.223 -0.2799 -0.4541 -0.2749
14250SOL     OW43327   0.900   5.597   8.426  0.7192 -0.3300  0.3232
14250SOL    HW143328   0.815   5.640   8.437  0.1412 -0.8947 -1.6263
14250SOL    HW243329   0.964   5.667   8.438  0.0757 -0.0510  2.6309
14251SOL     OW43330   0.082   1.096   6.244  0.2924 -0.0550  0.5260
14251SOL    HW143331   0.167   1.057   6.263  0.1381  0.1518  1.7581
14251SOL    HW243332   0.052   1.130   6.329 -1.6034 -1.2980  0.4258
14252SOL     OW43333   3.004   5.941   5.144  0.4945  0.1845 -0.3781
14252SOL    HW143334   2.912   5.931   5.167  0.6192  0.8503  0.4632
14252SOL    HW243335   3.005   5.941   5.048 -0.3510 -0.0442 -0.3958
14253SOL     OW43336   6.890   3.967   3.583 -0.0770 -0.6223 -0.5964
14253SOL    HW143337   6.812   4.018   3.561  1.3591  1.8112 -0.4129
14253SOL    HW243338   6.928   3.942   3.498 -1.8388 -3.3260 -0.7259
14254SOL     OW43339   7.719   4.035   7.400 -0.4796  0.3962  0.0990
14254SOL    HW143340   7.645   4.084   7.436 -0.3271 -0.9682  2.5281
14254SOL    HW243341   7.678   3.964   7.350 -0.9273 -0.5408  1.6874
14255SOL     OW43342   1.714   4.183   7.156 -0.0324  0.5433  0.4660
14255SOL    HW143343   1.659   4.236   7.098  0.5521 -0.2434 -0.8601
14255SOL    HW243344   1.668   4.099   7.162  0.8615 -0.0463 -0.4733
14256SOL     OW43345   2.351   2.102   9.158 -0.0723  0.7689  0.4809
14256SOL    HW143346   2.287   2.111   9.088  0.0678 -1.1426  0.0360
14256SOL    HW243347   2.433   2.078   9.113 -0.0747 -0.8866  1.2627
14257SOL     OW43348   9.524   9.189   3.736  0.1362 -0.4708  0.1090
14257SOL    HW143349   9.456   9.211   3.673  0.8465  1.3100 -0.0900
14257SOL    HW243350   9.567   9.112   3.699 -1.3527 -1.2542 -0.0548
14258SOL     OW43351   8.174   9.891   8.881 -0.1297 -0.2104 -0.1049
14258SOL    HW143352   8.197   9.808   8.923 -1.6644 -0.5860  0.0468
14258SOL    HW243353   8.227   9.893   8.801  0.6365 -0.8768  0.3753
14259SOL     OW43354   0.876   4.935   3.538 -0.4277 -0.7434 -0.1852
14259SOL    HW143355   0.891   4.868   3.605  2.2511 -1.4031 -1.3207
14259SOL    HW243356   0.927   5.010   3.568  0.7534 -1.0283 -1.3888
14260SOL     OW43357   3.003   6.047   7.742  0.3223 -0.1314  0.0558
14260SOL    HW143358   3.090   6.006   7.750  0.4550 -0.2550 -1.6311
14260SOL    HW243359   2.948   5.977   7.708 -1.2031 -0.9152  3.6347
14261SOL     OW43360   1.944   3.757   3.164 -0.5799 -0.4904 -0.1149
14261SOL    HW143361   1.893   3.702   3.223 -0.8150  0.0208  0.1738
14261SOL    HW243362   1.997   3.696   3.113  1.9715 -0.9094  2.7530
14262SOL     OW43363   9.822   6.241   0.349 -0.3344 -0.4492 -0.7871
14262SOL    HW143364   9.888   6.307   0.329 -0.1110 -0.5049 -0.2562
14262SOL    HW243365   9.766   6.238   0.272  0.9250 -1.1864 -1.7129
14263SOL     OW43366   3.400   8.446   0.637 -0.7094 -0.3321  0.0945
14263SOL    HW143367   3.428   8.448   0.729  0.8509 -1.5260 -0.3184
14263SOL    HW243368   3.356   8.361   0.627 -0.2749 -0.5059 -0.4100
14264SOL     OW43369   4.313   9.091   4.842 -0.2114  0.7795 -0.3052
14264SOL    HW143370   4.285   9.077   4.751  1.4910  1.4786 -0.9750
14264SOL    HW243371   4.335   9.004   4.874 -1.9207  0.3682 -0.1417
14265SOL     OW43372   7.064   8.416   4.865 -0.1944  0.5192 -0.0183
14265SOL    HW143373   7.093   8.477   4.933 -0.4903  1.3628 -0.6440
14265SOL    HW243374   7.016   8.470   4.803  2.9897  0.4635 -2.8016
14266SOL     OW43375   3.869   5.860   0.381 -0.8919  0.1174 -0.1083
14266SOL    HW143376   3.824   5.943   0.366 -0.3521  0.4222 -0.0861
14266SOL    HW243377   3.869   5.849   0.476 -0.6335  0.2792 -0.0898
14267SOL     OW43378   8.974   4.989   1.530  0.0219  0.4553  0.1090
14267SOL    HW143379   8.939   4.902   1.507  1.0425  0.3293 -1.0898
14267SOL    HW243380   8.905   5.050   1.504 -0.3110  0.0672  0.0684
14268SOL     OW43381   9.753   9.285   0.100 -0.0992  0.2382  0.1696
14268SOL    HW143382   9.830   9.329   0.136 -0.1984  0.2966  0.3089
14268SOL    HW243383   9.777   9.267   0.009  0.1949 -0.0170  0.2957
14269SOL     OW43384   5.356   7.017   8.125 -0.3475  0.2692 -0.0427
14269SOL    HW143385   5.411   7.012   8.046  0.4850  0.0485  0.5350
14269SOL    HW243386   5.353   6.927   8.158 -0.9126  0.3133  0.0383
14270SOL     OW43387   3.986   7.856   5.023 -0.1172 -0.0460  0.0814
14270SOL    HW143388   3.952   7.899   5.101  2.2039  0.7633  0.7378
14270SOL    HW243389   3.975   7.762   5.040  2.7395 -0.0589  2.6881
14271SOL     OW43390   4.086   0.571   8.523 -0.3361 -0.3107 -0.1997
14271SOL    HW143391   4.048   0.560   8.610  1.8644 -1.8288  0.6469
14271SOL    HW243392   4.158   0.632   8.535 -0.4533  0.0314 -1.1279
14272SOL     OW43393   5.735   3.713   6.190 -0.5202  0.2713 -0.4781
14272SOL    HW143394   5.739   3.625   6.227  0.1164  0.3122 -0.4478
14272SOL    HW243395   5.754   3.771   6.263  0.1599  0.3811 -0.7381
14273SOL     OW43396   2.376   0.844   3.211 -0.0194 -0.1462 -0.5945
14273SOL    HW143397   2.417   0.766   3.174 -0.6739 -1.2065  0.8235
14273SOL    HW243398   2.325   0.811   3.285 -1.2513  1.4871 -0.6722
14274SOL     OW43399   0.163   0.666   0.779  0.1215 -0.0562  0.0441
14274SOL    HW143400   0.167   0.732   0.710 -0.0246  0.7045  0.7585
14274SOL    HW243401   0.240   0.684   0.834 -0.0694 -0.3084  0.3978
14275SOL     OW43402   8.359   2.313   1.153 -0.0389  0.2963 -0.0510
14275SOL    HW143403   8.444   2.345   1.182 -1.4378  1.9925  2.6458
14275SOL    HW243404   8.339   2.240   1.213  0.1038 -1.0941 -1.6282
14276SOL     OW43405   2.722   5.175   3.388  0.0827 -0.2793  0.0604
14276SOL    HW143406   2.797   5.228   3.361  0.4307 -0.9756 -0.3653
14276SOL    HW243407   2.742   5.087   3.356 -0.2569 -0.7829  1.1904
14277SOL     OW43408   7.269   2.321   2.027  0.1751  0.1127  0.0380
14277SOL    HW143409   7.336   2.338   1.961  0.4225  0.2688  0.3235
14277SOL    HW243410   7.267   2.401   2.080 -1.1864  0.6391 -0.7693
14278SOL     OW43411   7.856   4.273   1.842 -0.2868  0.1799  0.0177
14278SOL    HW143412   7.873   4.186   1.806 -1.4598  0.2041 -0.6651
14278SOL    HW243413   7.810   4.320   1.772  1.7683  1.9427 -0.2452
14279SOL     OW43414   2.682   0.347   8.556 -0.0560 -0.1392  0.1669
14279SOL    HW143415   2.617   0.282   8.528  1.0100 -2.3239  2.3768
14279SOL    HW243416   2.758   0.329   8.501  0.7362 -1.8698  1.7138
14280SOL     OW43417   1.885   1.394   8.251 -0.1590 -0.1593 -0.2255
14280SOL    HW143418   1.874   1.360   8.340 -0.0989  1.3225  0.3795
14280SOL    HW243419   1.801   1.378   8.209 -0.5499  0.0768  0.4501
14281SOL     OW43420   6.342   2.793   7.645 -0.4213  0.5762  0.6194
14281SOL    HW143421   6.351   2.754   7.733 -3.1497 -0.2454  0.6446
14281SOL    HW243422   6.271   2.856   7.655 -0.1504  1.1226 -0.8164
14282SOL     OW43423   3.355   0.251   8.745 -0.3401 -0.2298 -0.2179
14282SOL    HW143424   3.403   0.169   8.749  1.9911  1.0598  0.0425
14282SOL    HW243425   3.286   0.242   8.811  1.6259 -0.9609  1.8528
14283SOL     OW43426   3.824   2.325   3.772  0.1685 -0.5314 -0.3404
14283SOL    HW143427   3.883   2.385   3.725 -0.6176 -0.7855 -1.7147
14283SOL    HW243428   3.772   2.382   3.828 -0.1371  0.0317 -1.1709
14284SOL     OW43429   5.468   3.447   1.061 -0.1706 -0.3029 -0.1341
14284SOL    HW143430   5.437   3.363   1.028  1.1597 -0.8758  0.0377
14284SOL    HW243431   5.395   3.507   1.043 -0.1530 -0.9046 -2.6487
14285SOL     OW43432   0.412   0.721   9.202 -0.0915  0.6499 -0.0899
14285SOL    HW143433   0.322   0.694   9.185  0.0451  0.9465 -1.3835
14285SOL    HW243434   0.417   0.730   9.297 -1.7630  1.8094 -0.0816
14286SOL     OW43435   4.133   9.486   6.916  0.1659 -0.3627  1.3821
14286SOL    HW143436   4.172   9.561   6.961 -1.0906  2.1789 -1.4149
14286SOL    HW243437   4.154   9.500   6.824 -3.5936 -1.1271  0.2342
14287SOL     OW43438   1.137   1.774   7.644 -0.0326 -0.1486 -0.3787
14287SOL    HW143439   1.215   1.829   7.652  0.3092 -0.9068  2.0450
14287SOL    HW243440   1.067   1.823   7.688 -0.9388  0.4276 -2.3388
14288SOL     OW43441   7.406   2.800   7.056 -0.4212  0.4903 -0.0664
14288SOL    HW143442   7.414   2.776   6.964 -2.4390  0.5637 -0.3023
14288SOL    HW243443   7.492   2.835   7.080  0.5710 -0.8613 -1.5078
14289SOL     OW43444   6.700   6.999   8.656  0.1045  0.3308  0.1889
14289SOL    HW143445   6.766   7.066   8.673  0.3409  0.3149 -0.6235
14289SOL    HW243446   6.619   7.036   8.692  0.5297  0.3795  1.1204
14290SOL     OW43447   8.981   4.218   5.004 -0.5845  0.0694 -0.2736
14290SOL    HW143448   9.034   4.251   4.932 -1.2470 -0.4758 -1.0322
14290SOL    HW243449   8.938   4.296   5.040 -1.3926  0.1916 -1.4320
14291SOL     OW43450   0.030   6.218   5.923  0.2923  0.0163 -0.0097
14291SOL    HW143451  -0.017   6.300   5.932  0.0532 -0.2723  1.6065
14291SOL    HW243452   0.118   6.237   5.955  0.1410 -0.4381  0.6840
14292SOL     OW43453   0.239   6.601   9.681 -0.5425 -0.3770  0.4188
14292SOL    HW143454   0.218   6.521   9.729  0.6399 -1.1596 -0.2990
14292SOL    HW243455   0.311   6.640   9.730  1.5954 -1.8793 -1.3140
14293SOL     OW43456   4.434   9.762   9.591  0.5769  0.1781  0.6310
14293SOL    HW143457   4.526   9.736   9.584  0.0066 -2.0615  0.9638
14293SOL    HW243458   4.436   9.840   9.648  2.3981  1.2910 -0.8480
14294SOL     OW43459   2.051   6.894   2.333  0.6446  0.1410 -0.0750
14294SOL    HW143460   1.987   6.866   2.268 -0.4628  0.3855  0.8776
14294SOL    HW243461   2.030   6.985   2.351  1.0929  0.1496  0.4502
14295SOL     OW43462   3.387   7.059   3.831  0.2880  0.1530 -0.2307
14295SOL    HW143463   3.343   7.052   3.747 -1.9024 -1.5245  0.9675
14295SOL    HW243464   3.370   7.149   3.860  0.8645  0.6700 -1.4047
14296SOL     OW43465   3.609   1.262   9.577 -0.1649  0.2109  0.2123
14296SOL    HW143466   3.532   1.224   9.618 -0.7213 -0.7049 -1.6158
14296SOL    HW243467   3.631   1.203   9.505  0.9122  1.6163 -0.6772
14297SOL     OW43468   0.128   7.873   4.538  0.2679 -0.2047 -0.0457
14297SOL    HW143469   0.173   7.791   4.560 -0.8600 -0.6386  0.7272
14297SOL    HW243470   0.153   7.890   4.447  2.7205  0.0638  0.5898
14298SOL     OW43471   2.879   4.560   9.131  0.0522  0.0394  0.8688
14298SOL    HW143472   2.952   4.581   9.073 -0.4780 -1.6433 -0.5232
14298SOL    HW243473   2.919   4.542   9.216  0.9470  1.7153  0.8266
14299SOL     OW43474   1.033   1.336   8.111 -0.1291 -0.4939  0.3142
14299SOL    HW143475   1.084   1.384   8.177 -0.0275 -0.9843  0.6023
14299SOL    HW243476   0.949   1.381   8.108  0.5936  0.8430 -0.7625
14300SOL     OW43477   7.518   9.587   0.975 -0.0271 -0.2330  0.4372
14300SOL    HW143478   7.500   9.681   0.974 -0.0297 -0.1235 -3.2260
14300SOL    HW243479   7.435   9.547   1.001 -0.2234  0.7565  1.3821
14301SOL     OW43480   3.656   0.847   0.410  0.2143  0.1173 -0.5184
14301SOL    HW143481   3.690   0.912   0.349 -0.6190  0.9440 -0.1159
14301SOL    HW243482   3.734   0.810   0.452  0.6758  1.2398 -0.3637
14302SOL     OW43483   7.631   1.616   3.506 -0.2553  0.1108 -0.2096
14302SOL    HW143484   7.548   1.643   3.545  1.1121 -0.3059  3.3235
14302SOL    HW243485   7.693   1.685   3.529  1.3994 -1.8416  1.6290
14303SOL     OW43486   0.390   4.233   7.534 -0.1677 -0.4602 -0.5361
14303SOL    HW143487   0.345   4.154   7.565  2.3571 -1.4644  0.7810
14303SOL    HW243488   0.395   4.290   7.612  0.9756 -0.4440 -0.6142
14304SOL     OW43489   5.013   6.832   0.908 -0.8441  0.3529  0.0324
14304SOL    HW143490   5.045   6.804   0.823 -1.7965 -2.9414  0.5997
14304SOL    HW243491   5.083   6.884   0.945  1.7599 -2.2834 -0.8197
14305SOL     OW43492   4.581   3.552   0.895  0.4670 -0.9127 -0.1369
14305SOL    HW143493   4.555   3.638   0.927  0.7415 -0.0414 -2.0901
14305SOL    HW243494   4.510   3.526   0.836  0.1350 -2.2897  0.8310
14306SOL     OW43495   3.950   2.048   4.879 -0.2168 -0.1399 -0.1894
14306SOL    HW143496   3.872   2.101   4.896 -0.2217 -0.3977  0.6507
14306SOL    HW243497   4.022   2.111   4.877 -0.4392  0.1002 -0.9803
14307SOL     OW43498   9.326   9.217   3.536  0.0418  0.6037 -0.0739
14307SOL    HW143499   9.319   9.286   3.470  0.4509  0.6892 -0.0268
14307SOL    HW243500   9.240   9.174   3.535 -0.1414  0.9744 -0.2553
14308SOL     OW43501   1.288   5.352   4.593 -0.0882 -0.2800 -0.5574
14308SOL    HW143502   1.319   5.265   4.569  1.8725  0.1956 -0.0060
14308SOL    HW243503   1.282   5.351   4.688  1.9872  0.7191 -0.3452
14309SOL     OW43504   0.197   9.789   6.626  0.7584  0.5977 -0.1522
14309SOL    HW143505   0.191   9.790   6.530 -0.7490  1.6980 -0.0712
14309SOL    HW243506   0.149   9.711   6.652  0.4824  0.7267 -0.2675
14310SOL     OW43507   4.386   9.393   8.827 -0.1845  0.1691 -0.3507
14310SOL    HW143508   4.381   9.482   8.860 -0.2123 -0.2919  0.9427
14310SOL    HW243509   4.311   9.386   8.768 -0.1245  1.0263 -0.5402
14311SOL     OW43510   0.354   1.999   8.710  0.1885  0.3173  0.1256
14311SOL    HW143511   0.408   2.055   8.655 -1.2574 -0.7122 -2.5466
14311SOL    HW243512   0.386   1.910   8.692 -1.1211 -0.1390 -0.0627
14312SOL     OW43513   2.291   7.496   8.675 -0.4130  0.0032 -0.3006
14312SOL    HW143514   2.307   7.542   8.593 -0.9631  2.5194  0.9161
14312SOL    HW243515   2.234   7.423   8.651 -0.9452  0.9552 -2.0707
14313SOL     OW43516   8.557   7.331   6.639  0.0700 -0.0513 -0.5777
14313SOL    HW143517   8.567   7.393   6.711 -2.4725  1.5218 -1.4615
14313SOL    HW243518   8.492   7.268   6.671  0.1042 -0.2688 -0.9328
14314SOL     OW43519   1.682   8.567   4.393 -0.4851 -0.0000  0.2229
14314SOL    HW143520   1.698   8.489   4.446 -0.6668 -0.6607 -0.6732
14314SOL    HW243521   1.588   8.566   4.378 -0.5713  0.6963  0.6388
14315SOL     OW43522   4.182   1.125   4.124 -0.2244 -0.0167 -0.0539
14315SOL    HW143523   4.173   1.157   4.034 -0.5031  0.8853  0.2872
14315SOL    HW243524   4.270   1.087   4.127  0.0935  0.6780 -0.4810
14316SOL     OW43525   0.256   9.404   4.674  0.0606 -0.1888  0.1895
14316SOL    HW143526   0.203   9.327   4.654  0.5507 -0.4559 -0.0780
14316SOL    HW243527   0.202   9.478   4.644 -1.7122 -0.1879  3.0890
14317SOL     OW43528   0.840   6.339   8.648  0.0083 -0.1304  0.4100
14317SOL    HW143529   0.750   6.371   8.653  0.2735  0.5896  0.7229
14317SOL    HW243530   0.834   6.246   8.671 -0.8236 -0.4151 -0.8493
14318SOL     OW43531   4.402   1.038   9.171  0.3046  0.0834 -0.0165
14318SOL    HW143532   4.369   0.950   9.190  1.7394 -0.3325  0.7222
14318SOL    HW243533   4.381   1.090   9.248 -0.7827  0.4953 -0.5608
14319SOL     OW43534   4.564   8.073   5.742  0.1492 -0.2816 -0.3705
14319SOL    HW143535   4.611   8.138   5.795 -1.2568  1.4347 -1.1446
14319SOL    HW243536   4.574   8.104   5.652  1.1532 -2.2884 -1.0275
14320SOL     OW43537   4.996   7.697   7.473 -0.1065  0.1110  0.5956
14320SOL    HW143538   5.041   7.631   7.526  0.2977 -0.2927 -0.2264
14320SOL    HW243539   4.914   7.656   7.447  0.1270 -0.0611  0.1168
14321SOL     OW43540   3.708   0.416   7.506  0.7810 -0.5761  0.6900
14321SOL    HW143541   3.620   0.438   7.476  0.5494 -2.2120  0.1105
14321SOL    HW243542   3.765   0.480   7.462  0.2889 -1.9272 -2.0891
14322SOL     OW43543   8.910   1.148   3.306 -0.3402 -0.2840 -0.0290
14322SOL    HW143544   8.976   1.143   3.376 -1.4081 -0.6822  0.9789
14322SOL    HW243545   8.830   1.112   3.346 -0.8526 -0.9800 -1.6053
14323SOL     OW43546   4.454   2.252   8.551  0.0203  0.6348 -0.2506
14323SOL    HW143547   4.436   2.299   8.632 -0.4854 -0.5210  0.3293
14323SOL    HW243548   4.537   2.207   8.568 -0.0098  0.5137 -0.4231
14324SOL     OW43549   2.513   5.081   6.501 -0.9405  0.8166 -0.1178
14324SOL    HW143550   2.504   4.987   6.485 -2.3451  0.6967  1.2037
14324SOL    HW243551   2.604   5.100   6.476 -0.6938 -0.8309 -0.6229
14325SOL     OW43552   3.040   1.427   0.393  0.3524  0.2841 -0.1432
14325SOL    HW143553   3.086   1.509   0.377  0.6791  0.4524  1.4710
14325SOL    HW243554   3.086   1.388   0.468  0.4171 -1.5505 -1.0903
14326SOL     OW43555   2.340   7.181   7.067  0.7232  0.4382 -0.0168
14326SOL    HW143556   2.372   7.210   7.152 -0.5126 -0.3132  0.7383
14326SOL    HW243557   2.249   7.156   7.083  1.1132 -1.8876 -1.0218
14327SOL     OW43558   8.064   1.947   2.224 -0.1613  0.0667  0.5498
14327SOL    HW143559   8.097   1.894   2.151 -2.1398 -2.0566  1.0967
14327SOL    HW243560   8.088   2.037   2.200  1.7363 -0.8199 -1.3125
14328SOL     OW43561   8.088   7.472   3.419 -0.1135  0.7214  0.2325
14328SOL    HW143562   8.058   7.443   3.505  1.5679  0.5750  0.8180
14328SOL    HW243563   8.095   7.567   3.427  1.0301  0.6295  0.6481
14329SOL     OW43564   2.863   3.785   8.631 -0.1995 -0.2368  0.0882
14329SOL    HW143565   2.902   3.744   8.709 -0.1628  2.1979  1.4435
14329SOL    HW243566   2.936   3.793   8.570  0.6994  1.1651  1.2818
14330SOL     OW43567   4.692   2.333   9.311  0.0626  0.0242 -0.0459
14330SOL    HW143568   4.651   2.361   9.393  1.4262  0.2763  0.5711
14330SOL    HW243569   4.693   2.238   9.315 -0.0669  0.0298  0.1200
14331SOL     OW43570   3.977   3.127   9.721  0.0473  0.6403  0.0525
14331SOL    HW143571   3.913   3.158   9.786 -0.1190 -0.3496  0.3718
14331SOL    HW243572   4.062   3.147   9.760 -0.0546  0.5891  0.2996
14332SOL     OW43573   8.091   6.308   8.429  1.1153  0.0073  0.1770
14332SOL    HW143574   8.071   6.331   8.339  3.9742 -1.2122 -0.8826
14332SOL    HW243575   8.070   6.214   8.435 -1.2556  0.5490  1.5479
14333SOL     OW43576   5.502   2.123   6.077 -0.3584  0.1903  0.0753
14333SOL    HW143577   5.586   2.150   6.040 -0.3545 -2.3401 -2.0786
14333SOL    HW243578   5.523   2.043   6.126 -1.2903  0.4300  0.8836
14334SOL     OW43579   9.300   0.376   7.988 -0.3581 -0.3860  0.1100
14334SOL    HW143580   9.277   0.459   8.029  1.1226  0.1386 -0.0546
14334SOL    HW243581   9.222   0.351   7.939 -1.1997  0.3520  1.0464
14335SOL     OW43582   9.619   1.836   1.927 -0.2866 -0.1846  0.1200
14335SOL    HW143583   9.591   1.747   1.949 -1.3972  0.2826  0.7077
14335SOL    HW243584   9.662   1.827   1.842 -0.0250 -1.3409  0.3580
14336SOL     OW43585   8.018   9.014   1.256  0.7100 -0.2771 -0.0978
14336SOL    HW143586   8.049   8.925   1.239 -0.2761 -0.5686 -0.3797
14336SOL    HW243587   7.953   9.004   1.325  0.7598  0.2609  0.0322
14337SOL     OW43588   7.283   9.837   7.721  0.2424 -0.5130 -0.2569
14337SOL    HW143589   7.307   9.858   7.631  1.4864 -1.1519 -0.0952
14337SOL    HW243590   7.192   9.807   7.714 -0.0494  0.4953 -1.1223
14338SOL     OW43591   8.000   7.301   1.172 -0.3271  0.1826  0.5729
14338SOL    HW143592   7.953   7.315   1.254 -0.2068  0.6617  0.5639
14338SOL    HW243593   7.932   7.295   1.105 -0.7034 -3.6106  1.0910
14339SOL     OW43594   5.910   0.625   3.617  0.2250  0.4952  0.4791
14339SOL    HW143595   6.002   0.646   3.628 -0.1121  0.9493  3.4695
14339SOL    HW243596   5.864   0.691   3.670 -1.5958 -1.1607  1.0878
14340SOL     OW43597   7.847   1.243   5.874  0.1152 -0.5182  0.1385
14340SOL    HW143598   7.869   1.196   5.955  0.4422 -0.1675  0.2567
14340SOL    HW243599   7.870   1.181   5.805 -2.8276 -1.9813  0.3175
14341SOL     OW43600   1.190   9.653   0.056 -0.3605  0.2048 -0.2994
14341SOL    HW143601   1.141   9.600  -0.006  1.0167 -1.7448  0.1702
14341SOL    HW243602   1.265   9.598   0.081  0.3918  1.8338  1.3092
14342SOL     OW43603   7.976   4.847   6.064  0.2662  0.2500 -0.3369
14342SOL    HW143604   7.921   4.910   6.018 -0.4876 -0.8428 -0.9836
14342SOL    HW243605   7.986   4.774   6.002  1.0625 -0.2899  0.4015
14343SOL     OW43606   3.749   1.475   3.748  0.2051  0.4389 -0.2453
14343SOL    HW143607   3.712   1.495   3.662 -0.1983 -0.8125 -0.3838
14343SOL    HW243608   3.682   1.503   3.810 -0.9587 -1.6161 -0.4872
14344SOL     OW43609   7.264   5.417   1.733 -0.6728 -0.6490  0.1126
14344SOL    HW143610   7.306   5.437   1.649  0.3516 -0.0902  0.7444
14344SOL    HW243611   7.277   5.496   1.786  0.1185 -1.5756  1.3548
14345SOL     OW43612   8.478   7.119   0.422 -0.1539  0.0251  0.5143
14345SOL    HW143613   8.519   7.078   0.346  3.2382  1.6942  1.2532
14345SOL    HW243614   8.384   7.121   0.400  0.6094  0.2301 -3.5465
14346SOL     OW43615   5.708   8.553   0.390 -0.1098  0.6602 -0.2539
14346SOL    HW143616   5.676   8.466   0.415  0.8003  0.9491  2.1574
14346SOL    HW243617   5.678   8.564   0.300 -2.2208 -1.2047  0.1214
14347SOL     OW43618   6.647   9.211   0.831 -0.2801 -0.0831  0.1205
14347SOL    HW143619   6.713   9.280   0.844  0.4335 -0.6489 -0.4468
14347SOL    HW243620   6.570   9.258   0.799 -0.1537  0.5823  0.7439
14348SOL     OW43621   8.743   1.877   5.841 -0.0919 -0.1443 -0.1360
14348SOL    HW143622   8.730   1.784   5.861 -2.0358 -0.2499 -1.6302
14348SOL    HW243623   8.738   1.921   5.926  1.5866 -1.4313  0.6928
14349SOL     OW43624   5.903   2.702   9.938  0.5196 -0.3402 -0.4888
14349SOL    HW143625   5.823   2.741   9.973  0.9665 -0.0263  0.2111
14349SOL    HW243626   5.972   2.766   9.958  1.1393 -1.1438  0.0176
14350SOL     OW43627   3.447   4.128   0.943  1.0421 -0.0031  0.2272
14350SOL    HW143628   3.442   4.076   1.023  1.8854 -1.3970 -0.5851
14350SOL    HW243629   3.508   4.081   0.888  1.4704  1.6271 -0.7534
14351SOL     OW43630   7.286   9.207   9.741 -0.4320 -0.4345 -0.0903
14351SOL    HW143631   7.212   9.268   9.742 -0.3167 -0.2812  1.0799
14351SOL    HW243632   7.345   9.242   9.674 -0.9227  0.0567 -0.2726
14352SOL     OW43633   2.278   4.114   0.249 -0.6535 -0.2924  0.1259
14352SOL    HW143634   2.195   4.150   0.217 -0.1657  2.2645  1.4666
14352SOL    HW243635   2.287   4.149   0.338  2.0510 -0.1650 -0.1205
14353SOL     OW43636   2.546   7.334   1.363  0.2170 -0.0489  0.2106
14353SOL    HW143637   2.552   7.389   1.441 -2.2210 -2.0462  1.9527
14353SOL    HW243638   2.626   7.281   1.365  1.0755  1.2082  0.2382
14354SOL     OW43639   3.704   2.626   6.836 -0.2018 -0.1955  0.5259
14354SOL    HW143640   3.660   2.693   6.888 -0.9815 -1.6972  1.8787
14354SOL    HW243641   3.633   2.576   6.797  0.3720 -0.6004 -0.0243
14355SOL     OW43642   7.157   7.964   8.361  0.1983  0.2307 -0.4955
14355SOL    HW143643   7.172   8.047   8.317 -0.0450  1.6775  1.9410
14355SOL    HW243644   7.091   7.920   8.308  0.5226  1.4671 -1.9826
14356SOL     OW43645   6.505   8.816   5.997  0.8353  1.0100 -0.3950
14356SOL    HW143646   6.480   8.733   5.955  0.4321  1.0805 -0.3020
14356SOL    HW243647   6.547   8.789   6.079 -0.4526  0.9094  0.2636
14357SOL     OW43648   1.109   6.844   5.625  0.2581 -0.8453  0.0822
14357SOL    HW143649   1.198   6.812   5.642 -0.1336 -2.2428 -0.3338
14357SOL    HW243650   1.054   6.788   5.679 -0.3510  0.3695  0.7545
14358SOL     OW43651   4.038   7.472   9.091  0.0731  0.7022  0.3717
14358SOL    HW143652   4.094   7.460   9.168  0.5607 -0.3058 -0.1298
14358SOL    HW243653   3.959   7.513   9.126  0.6202  1.0252  1.2812
14359SOL     OW43654   0.221   7.208   8.084 -0.1787  0.3277 -0.1887
14359SOL    HW143655   0.251   7.277   8.144 -0.1224 -0.5779  0.8591
14359SOL    HW243656   0.297   7.189   8.029  0.5370 -0.4448  1.0181
14360SOL     OW43657   2.258   9.853   0.234  0.2300 -0.1605 -0.3489
14360SOL    HW143658   2.249   9.808   0.318 -0.5840  1.9086  0.7421
14360SOL    HW243659   2.289   9.941   0.257 -1.0906  0.8308 -2.0987
14361SOL     OW43660   8.809   2.369   6.763 -0.5957 -0.1511  0.7816
14361SOL    HW143661   8.841   2.279   6.753  1.4775  0.6533 -0.7070
14361SOL    HW243662   8.803   2.402   6.673 -1.1483  1.2404  1.3093
14362SOL     OW43663   2.066   9.889   6.969  0.1205 -0.2163  0.1141
14362SOL    HW143664   2.088   9.934   7.051  0.3665  0.8865 -0.5362
14362SOL    HW243665   2.090   9.798   6.985  1.7521  0.2751  0.6939
14363SOL     OW43666   3.927   5.242   0.500  0.2088  0.5469  0.0446
14363SOL    HW143667   3.850   5.248   0.444 -0.2121 -0.0359  0.5419
14363SOL    HW243668   3.891   5.232   0.588  0.8541  2.5886  0.5825
14364SOL     OW43669   0.552   5.107   5.630 -0.6059  0.4441  0.2977
14364SOL    HW143670   0.613   5.131   5.560 -1.7878  1.5119 -0.4064
14364SOL    HW243671   0.590   5.028   5.668  1.2544  1.0895 -0.0646
14365SOL     OW43672   3.556   7.532   9.632 -0.2619  0.2023 -0.2519
14365SOL    HW143673   3.546   7.572   9.546  2.4472  2.2565  0.2577
14365SOL    HW243674   3.642   7.490   9.629 -1.1383 -1.8386  0.7385
14366SOL     OW43675   8.087   8.982   4.072  0.0911 -0.6427 -0.1810
14366SOL    HW143676   8.065   8.937   3.991 -1.4604 -0.4504  0.0931
14366SOL    HW243677   8.128   8.915   4.127  1.0108 -0.8094 -1.0519
14367SOL     OW43678   2.972   2.557   7.512 -0.6642  0.4137  0.0513
14367SOL    HW143679   2.959   2.651   7.497 -1.3759  0.3201  0.0411
14367SOL    HW243680   3.007   2.552   7.601  1.0240  0.7906 -0.5510
14368SOL     OW43681   9.996   1.531   0.503 -0.1665 -0.0086 -0.0577
14368SOL    HW143682   9.900   1.532   0.503 -0.2113 -1.7245  0.7834
14368SOL    HW243683  10.019   1.545   0.411 -1.3010 -1.6702 -0.6464
14369SOL     OW43684   5.318   9.203   3.480 -0.3606 -0.0423  0.1177
14369SOL    HW143685   5.360   9.223   3.564 -0.6787 -0.3325  0.3487
14369SOL    HW243686   5.377   9.139   3.439  0.6424  1.3128 -0.6097
14370SOL     OW43687   4.000   0.980   1.932  0.2697  0.1056 -0.2576
14370SOL    HW143688   3.961   0.908   1.982  1.1088 -0.2714 -0.1270
14370SOL    HW243689   4.037   0.938   1.854 -0.4578  0.5993 -0.8882
14371SOL     OW43690   4.038   6.003   8.981  0.0040  0.9690  0.4043
14371SOL    HW143691   4.012   5.983   9.071 -0.4664 -0.3490  0.0036
14371SOL    HW243692   4.133   5.992   8.981 -0.2017 -1.2834  0.2583
14372SOL     OW43693   6.513   5.885   5.245  0.1237  0.3405  0.5293
14372SOL    HW143694   6.533   5.951   5.311  2.0530 -1.0636  1.4232
14372SOL    HW243695   6.476   5.935   5.172  0.3074  2.2279  1.6607
14373SOL     OW43696   9.840   5.592   8.573  0.0113 -0.0002 -0.5278
14373SOL    HW143697   9.761   5.646   8.565 -0.3498 -0.6615 -1.8567
14373SOL    HW243698   9.899   5.643   8.628 -1.7358  0.0273  1.4314
14374SOL     OW43699   9.826   2.695   0.233  0.2713  0.2478 -0.5603
14374SOL    HW143700   9.759   2.631   0.211  0.1943 -0.4610  1.5131
14374SOL    HW243701   9.777   2.773   0.262  0.3538  0.2724 -0.4858
14375SOL     OW43702   0.624   9.696   2.250 -0.1669 -0.7067 -0.1545
14375SOL    HW143703   0.656   9.665   2.335 -2.7576 -0.1062  1.1619
14375SOL    HW243704   0.547   9.642   2.233 -0.8251  0.4893 -1.1405
14376SOL     OW43705   0.563   4.655   2.567  1.0435  0.2047  0.0591
14376SOL    HW143706   0.570   4.614   2.481  1.7843  3.4340 -1.5754
14376SOL    HW243707   0.485   4.710   2.560  0.8389  0.1518  1.6487
14377SOL     OW43708   8.860   2.574   1.126  0.3313  0.4205  0.0173
14377SOL    HW143709   8.884   2.575   1.218  1.6827 -2.6288 -0.1969
14377SOL    HW243710   8.783   2.632   1.121 -0.0366  0.3647  3.0903
14378SOL     OW43711   7.104   9.858   6.448 -0.5994 -0.7832 -0.3698
14378SOL    HW143712   7.104   9.783   6.508 -1.9249  0.5236  1.3768
14378SOL    HW243713   7.090   9.934   6.504  0.7046  0.8125 -2.0845
14379SOL     OW43714   9.356   4.329   5.921  0.1100 -0.3656  0.1473
14379SOL    HW143715   9.423   4.374   5.972 -0.6106  0.7334  0.1504
14379SOL    HW243716   9.388   4.239   5.914  3.4322  0.7657 -2.8923
14380SOL     OW43717   4.711   1.391   7.722 -0.3146 -0.2927 -0.4749
14380SOL    HW143718   4.769   1.460   7.755 -0.7259 -0.3165  0.3105
14380SOL    HW243719   4.699   1.332   7.796 -1.4314 -0.2293 -0.5843
14381SOL     OW43720   1.490   1.147   1.319 -0.5109  0.2779  0.1698
14381SOL    HW143721   1.473   1.225   1.266  0.5838 -0.0416 -0.7082
14381SOL    HW243722   1.420   1.086   1.295 -0.1960  0.2467 -0.7244
14382SOL     OW43723   6.527   6.703   8.791 -0.0914 -0.3252 -0.0463
14382SOL    HW143724   6.591   6.668   8.728  2.6962  0.0149  2.3579
14382SOL    HW243725   6.526   6.797   8.774  0.2111 -0.3080  0.0150
14383SOL     OW43726   9.839   1.660   1.094 -0.1938  0.2757  0.6175
14383SOL    HW143727   9.859   1.746   1.056 -2.0659 -0.0710 -1.3429
14383SOL    HW243728   9.754   1.672   1.136 -0.0194 -0.4065  1.1834
14384SOL     OW43729   0.378   9.137   1.216  0.2446  0.7347  0.0831
14384SOL    HW143730   0.303   9.197   1.221  1.4081  2.2145  0.8291
14384SOL    HW243731   0.445   9.187   1.169  1.1584 -0.0837  0.4875
14385SOL     OW43732   2.699   4.662   8.910 -0.2121  0.3774  0.5866
14385SOL    HW143733   2.734   4.721   8.842 -0.7027  1.2284  1.0483
14385SOL    HW243734   2.758   4.674   8.984 -0.7546  0.8797  0.9423
14386SOL     OW43735   1.398   9.214   7.380  0.3123 -0.2924  0.4451
14386SOL    HW143736   1.373   9.305   7.398  0.0775  0.0097 -1.2871
14386SOL    HW243737   1.467   9.220   7.315 -1.5539 -1.3800 -1.7736
14387SOL     OW43738   5.256   4.824   1.889 -0.5741 -0.6209  0.1119
14387SOL    HW143739   5.342   4.832   1.930 -0.8887 -1.0411  0.8796
14387SOL    HW243740   5.246   4.904   1.837 -0.6333  0.5009  1.7844
14388SOL     OW43741   3.932   0.898   2.502  0.0539 -0.6154 -0.0899
14388SOL    HW143742   3.846   0.861   2.521 -0.1114 -1.1463 -1.7301
14388SOL    HW243743   3.913   0.985   2.465  0.3779  0.5319  2.2838
14389SOL     OW43744   5.499   7.743   5.988 -0.0803 -0.0479  0.4212
14389SOL    HW143745   5.547   7.766   6.068  0.4473  1.6249 -0.3444
14389SOL    HW243746   5.562   7.753   5.918 -0.4184 -1.9303 -0.2221
14390SOL     OW43747   6.546   9.914   2.122 -0.0477 -0.1307  0.3413
14390SOL    HW143748   6.479   9.884   2.183 -1.0780 -0.4431 -0.9085
14390SOL    HW243749   6.618   9.852   2.132  0.5469  0.7892  2.4404
14391SOL     OW43750   7.869   7.965   2.043 -0.1352  0.1115 -0.0403
14391SOL    HW143751   7.899   7.916   2.119  0.4168  0.4052 -0.0630
14391SOL    HW243752   7.863   8.056   2.073 -2.2070 -0.0822  0.3206
14392SOL     OW43753   4.191   7.921   4.115 -0.0841 -0.0799  0.2416
14392SOL    HW143754   4.138   7.981   4.064  0.1958 -0.7221 -0.8306
14392SOL    HW243755   4.139   7.841   4.122 -1.1257  0.7264  2.9737
14393SOL     OW43756   7.977   4.019   3.674 -0.6479 -0.0710  0.7876
14393SOL    HW143757   7.996   3.991   3.585 -1.4230  1.3045  0.1619
14393SOL    HW243758   7.901   3.967   3.700 -0.4200 -0.4750  0.6512
14394SOL     OW43759   0.571   5.557   5.903 -0.0869  0.0198 -0.5777
14394SOL    HW143760   0.592   5.467   5.876 -0.7440 -0.7243  1.1983
14394SOL    HW243761   0.647   5.608   5.878  1.0479 -1.3747 -0.1249
14395SOL     OW43762   3.169   0.822   0.084 -0.2149 -0.0526 -0.1935
14395SOL    HW143763   3.252   0.807   0.129  0.1449  2.4317  0.1444
14395SOL    HW243764   3.103   0.820   0.153  0.1094  1.8594  0.2510
14396SOL     OW43765   5.395   5.231   4.747  0.1520  0.3737 -0.3828
14396SOL    HW143766   5.438   5.298   4.800 -0.3162 -0.9373  1.7322
14396SOL    HW243767   5.467   5.180   4.710  0.4727  0.9664 -0.5819
14397SOL     OW43768   3.066   4.187   9.740  0.9148  0.6548  0.2139
14397SOL    HW143769   3.028   4.219   9.658  3.5388 -0.0362 -1.4045
14397SOL    HW243770   3.042   4.253   9.805 -1.4656  1.0999 -1.0118
14398SOL     OW43771   9.169   1.744   5.533  0.3037 -0.1375 -0.1981
14398SOL    HW143772   9.149   1.715   5.444  1.5341  0.4300 -0.6778
14398SOL    HW243773   9.150   1.838   5.532 -0.7193 -0.3233  0.4671
14399SOL     OW43774   4.842   1.417   8.540  0.0491 -0.2693 -0.1420
14399SOL    HW143775   4.869   1.359   8.469  1.4141  1.2134 -0.8838
14399SOL    HW243776   4.881   1.502   8.519 -1.5297  0.8385  1.1354
14400SOL     OW43777   5.093   3.893   4.614 -0.0845  0.0057 -0.1810
14400SOL    HW143778   5.121   3.882   4.705  0.1608  1.1168 -0.1065
14400SOL    HW243779   5.139   3.824   4.567  1.4407  0.6861  0.2240
14401SOL     OW43780   1.916   2.688   6.358  0.6913  0.3680  0.4595
14401SOL    HW143781   1.930   2.775   6.396  0.6434  1.2051 -1.3008
14401SOL    HW243782   1.887   2.634   6.431  1.1643  1.7097  1.7006
14402SOL     OW43783   4.500   6.675   7.484 -0.4344  0.0233 -0.0939
14402SOL    HW143784   4.578   6.644   7.531 -1.2664 -0.7108  0.8499
14402SOL    HW243785   4.442   6.599   7.483 -1.3233  0.6972 -0.3810
14403SOL     OW43786   5.652   7.913   4.245  0.4859  0.1461 -0.1562
14403SOL    HW143787   5.623   7.974   4.312  1.6337 -0.6598  1.1138
14403SOL    HW243788   5.584   7.846   4.243  1.4567 -0.9828  1.7993
14404SOL     OW43789   6.839   4.014   5.699  0.4156 -0.2419  0.2387
14404SOL    HW143790   6.854   3.922   5.679  0.3501 -0.5508  1.5267
14404SOL    HW243791   6.746   4.027   5.680  0.1566 -0.7417  1.1157
14405SOL     OW43792   0.428   6.892   4.867  0.1196 -0.2262  0.2527
14405SOL    HW143793   0.386   6.974   4.840  2.0579  1.3545  1.7020
14405SOL    HW243794   0.401   6.828   4.801 -1.9890  1.4111 -0.5710
14406SOL     OW43795   5.874   3.299   8.631  0.1181  0.6113  0.2481
14406SOL    HW143796   5.935   3.233   8.600 -0.3700  0.4148 -0.3090
14406SOL    HW243797   5.874   3.290   8.726  0.5051  0.2190  0.2105
14407SOL     OW43798   6.436   5.542   7.776 -0.6412  0.3270  0.1265
14407SOL    HW143799   6.471   5.460   7.812 -0.1779  1.1446  1.6128
14407SOL    HW243800   6.379   5.514   7.704 -0.8612 -1.3328  0.8950
14408SOL     OW43801   6.559   9.211   9.496  0.0151  0.2779 -0.1117
14408SOL    HW143802   6.488   9.178   9.441  0.1680  1.3997 -1.0067
14408SOL    HW243803   6.604   9.276   9.442  2.6752 -1.4202 -0.1474
14409SOL     OW43804   1.433   8.148   0.359  0.2142 -0.1942 -0.0886
14409SOL    HW143805   1.491   8.077   0.331 -0.5188 -0.9120  0.1806
14409SOL    HW243806   1.388   8.176   0.280  0.7502  0.2108 -0.2570
14410SOL     OW43807   6.739   2.749   3.810  0.0601  0.4127 -0.2542
14410SOL    HW143808   6.806   2.687   3.782 -0.7752 -0.6822  0.1213
14410SOL    HW243809   6.658   2.698   3.814 -0.5852  1.4419  0.3984
14411SOL     OW43810   8.253   8.206   3.302  0.3007  0.4407 -0.2205
14411SOL    HW143811   8.174   8.228   3.252 -1.0682 -1.2483  1.0915
14411SOL    HW243812   8.239   8.116   3.330  0.5553  1.4728  3.8913
14412SOL     OW43813   7.484   3.210   0.639 -0.2356  0.0975 -0.4036
14412SOL    HW143814   7.421   3.213   0.567 -0.5316 -0.7244 -0.1894
14412SOL    HW243815   7.434   3.239   0.715 -0.2593 -0.2170 -0.2995
14413SOL     OW43816   0.733   1.040   1.566  0.3896 -0.0362 -0.2728
14413SOL    HW143817   0.727   1.005   1.656  1.3371  0.8722  0.1567
14413SOL    HW243818   0.662   1.103   1.560 -0.7270 -1.2805 -0.7375
14414SOL     OW43819   7.226   0.339   2.621 -0.5076  0.4264  0.1814
14414SOL    HW143820   7.206   0.264   2.678 -1.0788  0.0810 -0.4510
14414SOL    HW243821   7.220   0.415   2.679 -0.3883  0.0212  0.7342
14415SOL     OW43822   5.582   4.598   0.019 -0.0262  0.5739 -0.0511
14415SOL    HW143823   5.600   4.602   0.113  1.3040 -1.3107 -0.1844
14415SOL    HW243824   5.489   4.577   0.013  0.2187 -0.8717  0.8905
14416SOL     OW43825   2.176   8.880   4.839  0.0840 -0.2981  0.1290
14416SOL    HW143826   2.242   8.884   4.771  0.8342  1.5691  0.9082
14416SOL    HW243827   2.214   8.927   4.913 -0.7584 -2.1252  1.8053
14417SOL     OW43828   6.757   5.390   0.011  0.7884 -0.1611  0.2412
14417SOL    HW143829   6.669   5.424   0.024  1.2030  1.0532  0.0072
14417SOL    HW243830   6.815   5.461   0.037  1.7349 -1.2540  1.2590
14418SOL     OW43831   5.834   6.105   1.052  0.9874  0.6163 -0.5538
14418SOL    HW143832   5.917   6.073   1.088  0.2211 -0.9818 -0.1313
14418SOL    HW243833   5.824   6.193   1.088  0.9325 -0.3819  2.0660
14419SOL     OW43834   4.332   3.767   3.339  0.0053  0.1511  0.1410
14419SOL    HW143835   4.244   3.794   3.315  0.1364  0.3550 -0.1151
14419SOL    HW243836   4.325   3.741   3.431 -0.5734 -0.9812 -0.2141
14420SOL     OW43837   8.881   4.950   6.859 -0.4390 -0.2005  0.1884
14420SOL    HW143838   8.870   5.013   6.787  0.4232  0.4905  0.6431
14420SOL    HW243839   8.803   4.962   6.913 -0.8198 -0.3259 -0.3217
14421SOL     OW43840   7.495   9.890   3.186 -0.1836 -0.1798 -0.6780
14421SOL    HW143841   7.495   9.918   3.277 -1.6109  1.8595 -1.2233
14421SOL    HW243842   7.446   9.808   3.185  0.0813 -0.3662  0.4012
14422SOL     OW43843   9.817   6.933   4.785  0.2842 -0.5297  0.5176
14422SOL    HW143844   9.871   6.994   4.733 -0.5782 -1.2403 -1.3015
14422SOL    HW243845   9.832   6.848   4.744 -1.6937 -0.8444  0.3825
14423SOL     OW43846   2.652   7.034   4.527  0.6148 -0.3710  0.0344
14423SOL    HW143847   2.746   7.030   4.508  0.4624 -1.7255 -0.5443
14423SOL    HW243848   2.633   6.951   4.571 -0.4893 -0.5382 -0.7263
14424SOL     OW43849   6.355   9.726   7.510 -0.0319 -0.2804 -0.2028
14424SOL    HW143850   6.285   9.666   7.536  0.6629 -0.3687  1.6360
14424SOL    HW243851   6.388   9.761   7.593  1.7240  0.1953 -1.0546
14425SOL     OW43852   5.340   9.280   6.795  0.0309 -0.1082  0.8407
14425SOL    HW143853   5.420   9.294   6.744 -0.4855  0.8191  0.2704
14425SOL    HW243854   5.350   9.339   6.870  0.7654 -1.4308  1.8318
14426SOL     OW43855   6.065   4.133   4.349  0.3968  0.1081 -0.3228
14426SOL    HW143856   6.144   4.187   4.341  0.6338 -0.2771 -0.6017
14426SOL    HW243857   6.065   4.105   4.441 -0.6500  1.9687  0.3052
14427SOL     OW43858   3.049   9.239   6.629 -0.2614 -0.6374 -0.1823
14427SOL    HW143859   3.104   9.183   6.684 -1.2981 -0.9711  0.5367
14427SOL    HW243860   2.971   9.187   6.611 -0.3848 -0.1494 -1.1426
14428SOL     OW43861   5.838   6.385   4.906  0.6059 -0.1401 -0.4835
14428SOL    HW143862   5.922   6.383   4.952  1.4986 -0.0142 -2.0606
14428SOL    HW243863   5.840   6.309   4.848 -0.9579 -0.9200  0.4203
14429SOL     OW43864   1.530   7.981   8.349  0.1660  0.5021 -0.2549
14429SOL    HW143865   1.560   7.938   8.429  0.2489  0.8805 -0.0790
14429SOL    HW243866   1.611   8.009   8.306  0.0757  2.1921  0.5912
14430SOL     OW43867  10.000   5.366   1.657 -0.8017 -0.4106 -0.6613
14430SOL    HW143868   9.958   5.289   1.696  0.4675 -0.7748  0.0264
14430SOL    HW243869   9.967   5.367   1.567 -2.7754 -0.2917  0.0009
14431SOL     OW43870   7.076   3.737   8.824  0.4360 -0.5567 -0.0242
14431SOL    HW143871   7.071   3.778   8.737  1.4648 -1.6223 -0.6219
14431SOL    HW243872   6.993   3.760   8.866 -0.5276 -0.8424 -1.6736
14432SOL     OW43873   4.471   6.854   1.573  0.2081 -0.1264  0.1818
14432SOL    HW143874   4.530   6.857   1.648 -0.8314 -0.7651  1.0443
14432SOL    HW243875   4.527   6.828   1.500  0.6148 -3.0148  1.3976
14433SOL     OW43876   9.710   5.406   6.724  0.4282  0.6364 -0.0460
14433SOL    HW143877   9.684   5.392   6.815 -0.2311  0.0081 -0.3238
14433SOL    HW243878   9.805   5.400   6.725  0.4078  0.3585  0.5565
14434SOL     OW43879   8.531   7.395   3.872 -0.1053 -0.8880  0.6174
14434SOL    HW143880   8.489   7.443   3.944 -0.6893 -1.0522  0.3918
14434SOL    HW243881   8.509   7.304   3.888 -3.5801 -0.6504 -1.8443
14435SOL     OW43882   5.506   6.667   7.947 -0.2983  0.8322 -0.2818
14435SOL    HW143883   5.419   6.705   7.963 -0.5219  0.4851 -0.6599
14435SOL    HW243884   5.510   6.592   8.006  0.5294  1.9907  1.1857
14436SOL     OW43885   1.958   6.686   2.498  0.1010 -0.4041 -0.3401
14436SOL    HW143886   1.995   6.746   2.433 -0.3766  1.4244  0.9820
14436SOL    HW243887   2.008   6.605   2.487  0.6731  0.1598 -2.3098
14437SOL     OW43888   2.212   9.537   3.470 -0.1642 -0.2245 -0.0059
14437SOL    HW143889   2.246   9.516   3.383  1.8721 -1.0525  0.9407
14437SOL    HW243890   2.122   9.567   3.454 -0.2595 -1.5367 -2.2490
14438SOL     OW43891   6.411   0.435   6.517  0.4469 -0.1054  0.1505
14438SOL    HW143892   6.368   0.396   6.592  2.2621  0.7894  1.7531
14438SOL    HW243893   6.442   0.361   6.465 -0.6504 -0.7284  0.3598
14439SOL     OW43894   4.951   8.921   9.056  0.2238  0.2159  0.0647
14439SOL    HW143895   5.032   8.953   9.017  0.1599  0.6896  0.3082
14439SOL    HW243896   4.898   9.000   9.071  1.0243  0.3395  2.8844
14440SOL     OW43897   1.076   9.815   2.394  0.1665  0.0882 -0.0526
14440SOL    HW143898   1.093   9.724   2.368  2.9200  0.2099  1.0181
14440SOL    HW243899   1.106   9.867   2.319  1.1984  0.1874  0.4188
14441SOL     OW43900   1.017   5.319   6.586  0.1315 -0.2939  0.0797
14441SOL    HW143901   0.959   5.378   6.633  0.6752  0.6951 -0.4642
14441SOL    HW243902   0.999   5.233   6.624 -1.6368 -0.0105 -0.0404
14442SOL     OW43903   1.766   3.253   4.747  0.2917  0.2692 -0.3440
14442SOL    HW143904   1.742   3.173   4.795  0.8685  1.0996  1.3966
14442SOL    HW243905   1.712   3.322   4.787  1.8185  1.2395  0.1296
14443SOL     OW43906   2.547   4.215   1.016 -0.3304 -0.4340  0.4392
14443SOL    HW143907   2.623   4.161   1.040  0.4829  0.6123  0.3217
14443SOL    HW243908   2.507   4.239   1.099  0.6602  0.6354  0.6408
14444SOL     OW43909   3.923   5.345   6.643 -0.3252 -0.3350  0.3490
14444SOL    HW143910   3.925   5.336   6.548 -1.8094 -1.6116  0.3915
14444SOL    HW243911   3.859   5.415   6.659  0.0220 -0.0292  0.4102
14445SOL     OW43912   9.834   3.034   7.365 -0.3104 -0.0899 -0.3314
14445SOL    HW143913   9.836   3.116   7.413  0.2332 -0.5248  0.4155
14445SOL    HW243914   9.925   3.005   7.363 -0.3539 -0.1848 -1.4542
14446SOL     OW43915   1.309   3.752   1.647 -0.0563 -0.5601 -0.0917
14446SOL    HW143916   1.396   3.771   1.613  0.4766 -0.9706  1.0044
14446SOL    HW243917   1.252   3.816   1.604  0.4358 -1.4819 -2.2826
14447SOL     OW43918   7.539   8.969   4.428 -0.2748  0.2824 -0.6416
14447SOL    HW143919   7.627   8.970   4.390 -0.4117 -0.6054 -1.0090
14447SOL    HW243920   7.486   8.921   4.364 -0.3901 -1.7436  0.8769
14448SOL     OW43921   9.852   7.417   6.276 -0.4527 -0.0077 -0.5211
14448SOL    HW143922   9.799   7.375   6.208 -0.9947 -0.1983  0.0210
14448SOL    HW243923   9.938   7.429   6.234 -0.8895  0.2276 -1.3681
14449SOL     OW43924   0.788   9.776   9.387 -0.0887 -0.7093 -0.1892
14449SOL    HW143925   0.699   9.788   9.354  0.0877 -0.7330 -0.6745
14449SOL    HW243926   0.810   9.686   9.366 -0.0071 -0.7509  0.0722
14450SOL     OW43927   8.965   3.290   4.261  0.1406 -0.4344  0.4874
14450SOL    HW143928   9.043   3.297   4.207  0.6899 -0.1083  1.2927
14450SOL    HW243929   8.901   3.348   4.220  1.0129  0.9177  0.9428
14451SOL     OW43930   1.339   7.730   7.746  0.3234  0.4598 -0.1940
14451SOL    HW143931   1.399   7.742   7.672 -1.6218 -1.2367 -2.2073
14451SOL    HW243932   1.277   7.802   7.738  1.2003  1.3760  1.0026
14452SOL     OW43933   5.699   0.752   8.628  0.0170 -0.0278  0.1383
14452SOL    HW143934   5.752   0.781   8.553  0.6575 -2.7916 -0.5961
14452SOL    HW243935   5.751   0.682   8.667 -1.5972 -0.5255  1.4799
14453SOL     OW43936   5.770   3.183   1.002 -0.2754  0.4562 -0.1659
14453SOL    HW143937   5.756   3.271   0.966 -1.7082  0.5374  0.5217
14453SOL    HW243938   5.685   3.140   0.994  0.5109 -1.0326 -0.8740
14454SOL     OW43939   8.125   1.406   7.305 -0.0125  0.0140 -0.2331
14454SOL    HW143940   8.215   1.387   7.280  0.2650  0.3471  0.4895
14454SOL    HW243941   8.132   1.469   7.376 -0.7575 -0.9193  0.7177
14455SOL     OW43942   4.146   5.978   6.878 -0.1485 -0.1499 -0.2540
14455SOL    HW143943   4.091   6.017   6.946  0.1029 -0.4323  0.1168
14455SOL    HW243944   4.231   5.967   6.919  0.1792  0.2423 -0.8112
14456SOL     OW43945   2.039   8.759   5.198  0.2151  0.6925  0.4176
14456SOL    HW143946   2.047   8.838   5.144 -0.9173 -0.1667 -1.0868
14456SOL    HW243947   1.945   8.752   5.214  0.5463  1.1145  2.8731
14457SOL     OW43948   9.788   2.670   1.196 -0.0978 -0.0365  0.4447
14457SOL    HW143949   9.795   2.597   1.257 -0.5245  1.4450  2.3720
14457SOL    HW243950   9.822   2.745   1.245 -1.7775  1.5004 -0.6113
14458SOL     OW43951   3.626   1.243   2.843 -0.2209  0.0170  0.5772
14458SOL    HW143952   3.626   1.327   2.797 -0.7064  0.1310  0.7870
14458SOL    HW243953   3.567   1.188   2.792 -0.9239  0.2083  1.1832
14459SOL     OW43954   1.580   6.708   3.304  0.5544 -0.6738 -0.0257
14459SOL    HW143955   1.571   6.701   3.209 -0.3479  2.0705 -0.2492
14459SOL    HW243956   1.501   6.667   3.339  0.7419 -1.4232 -0.4654
14460SOL     OW43957   8.489   7.039   9.048  0.0180  0.0571 -0.1869
14460SOL    HW143958   8.551   6.968   9.034  1.4175  1.3151 -0.7154
14460SOL    HW243959   8.490   7.054   9.143 -1.9890 -2.0174  0.2541
14461SOL     OW43960   7.855   3.996   5.466 -0.5830  0.1927  0.1350
14461SOL    HW143961   7.826   4.074   5.513 -2.0376  0.4711 -1.1564
14461SOL    HW243962   7.795   3.989   5.392  0.5179 -1.2556 -0.6652
14462SOL     OW43963   0.601   4.926   9.377 -0.0795  0.1402 -0.0202
14462SOL    HW143964   0.678   4.882   9.341  0.7962  0.3100  1.5598
14462SOL    HW243965   0.635   5.007   9.413 -1.3085  1.0481 -0.8209
14463SOL     OW43966   4.134   6.346   1.278 -0.1700  0.1218  0.0308
14463SOL    HW143967   4.104   6.339   1.368 -0.9189  0.5946 -0.1738
14463SOL    HW243968   4.217   6.299   1.277 -0.9317 -1.3026  0.5932
14464SOL     OW43969   2.841   8.244   7.454 -0.6769  0.1227  0.2273
14464SOL    HW143970   2.819   8.330   7.419  0.9652  0.7005  0.5099
14464SOL    HW243971   2.852   8.188   7.377  0.1138  0.6620 -0.0624
14465SOL     OW43972   8.994   1.474   8.186 -0.4222  0.3903 -0.1753
14465SOL    HW143973   9.086   1.449   8.186 -0.8686 -1.4105 -1.1180
14465SOL    HW243974   8.974   1.493   8.278  0.5562 -0.5793  0.2615
14466SOL     OW43975   9.072   5.053   7.577  0.2382  0.1633 -0.1147
14466SOL    HW143976   9.067   4.972   7.628  1.1608  0.3102  0.2228
14466SOL    HW243977   8.981   5.083   7.572  0.1642  0.4293  1.9219
14467SOL     OW43978   8.639   9.257   6.655  0.0262 -0.0959 -0.3634
14467SOL    HW143979   8.609   9.197   6.723  0.3899  0.2903  0.1486
14467SOL    HW243980   8.722   9.220   6.626  0.6792  0.6020  0.5579
14468SOL     OW43981   0.462   5.862   3.599 -0.2852 -0.0335  0.2949
14468SOL    HW143982   0.428   5.777   3.624 -1.8312  0.7118  0.8786
14468SOL    HW243983   0.545   5.870   3.646  0.7100 -1.8355 -1.0347
14469SOL     OW43984   2.851   0.551   9.081 -0.0314 -0.0622 -0.0727
14469SOL    HW143985   2.764   0.577   9.113 -0.0495 -1.1088  0.7716
14469SOL    HW243986   2.832   0.498   9.003 -0.2981 -1.9228  1.1937
14470SOL     OW43987   7.384   5.898   4.164 -0.5673 -0.1774 -0.5593
14470SOL    HW143988   7.365   5.943   4.081  0.0089  0.9014 -0.1217
14470SOL    HW243989   7.298   5.875   4.199 -0.8082 -1.1888 -1.7213
14471SOL     OW43990   8.674   5.879   1.681  0.2937  0.5117  0.0264
14471SOL    HW143991   8.753   5.933   1.681  1.4288 -1.0608 -0.6238
14471SOL    HW243992   8.619   5.916   1.750  1.4096  1.9101  0.2030
14472SOL     OW43993   9.896   4.047   8.701 -0.3519  0.0446 -0.1076
14472SOL    HW143994   9.908   3.987   8.627  0.6673 -0.4769  0.4607
14472SOL    HW243995   9.847   4.121   8.664  0.5589  0.0196 -1.4233
14473SOL     OW43996   7.520   1.491   8.527 -0.5134  0.2822 -0.2485
14473SOL    HW143997   7.601   1.452   8.560 -1.6117 -0.4970  1.6941
14473SOL    HW243998   7.524   1.479   8.432  1.9330  0.9058 -0.2829
14474SOL     OW43999   3.450   2.880   7.267 -0.1906 -0.0594 -0.1276
14474SOL    HW144000   3.533   2.923   7.246 -0.1802 -0.2400 -0.4597
14474SOL    HW244001   3.475   2.802   7.317 -0.0580 -0.8316 -1.3399
14475SOL     OW44002   6.030   4.466   4.479  0.4835 -0.1238 -0.4044
14475SOL    HW144003   5.995   4.406   4.413 -0.0608 -0.5447  0.2514
14475SOL    HW244004   6.001   4.429   4.562 -0.7981  1.6147 -0.0110
14476SOL     OW44005   3.369   2.850   8.197  0.2673  0.1370 -0.3918
14476SOL    HW144006   3.294   2.835   8.254  1.8119  0.6949  1.9464
14476SOL    HW244007   3.331   2.889   8.118 -1.7944  2.1374  1.4062
14477SOL     OW44008   2.946   7.081   6.790  0.0820  0.3242 -0.3454
14477SOL    HW144009   2.948   7.060   6.697 -0.9770 -0.6514 -0.1645
14477SOL    HW244010   2.872   7.032   6.824  0.5457  0.5527  1.0447
14478SOL     OW44011   2.395   8.008   6.100  0.2001 -0.3979 -0.5667
14478SOL    HW144012   2.441   7.930   6.069  0.2521 -0.6628  0.1663
14478SOL    HW244013   2.420   8.016   6.192  0.6887  0.8426 -0.7879
14479SOL     OW44014   4.037   9.800   3.083 -0.0772  0.3549 -0.3639
14479SOL    HW144015   4.092   9.871   3.050  2.7981  0.0573  3.1561
14479SOL    HW244016   3.984   9.841   3.152 -0.2859 -0.4102 -0.0639
14480SOL     OW44017   9.684   3.384   9.062  1.1509 -0.2344  0.2853
14480SOL    HW144018   9.766   3.364   9.108  0.3361  0.8032  2.2661
14480SOL    HW244019   9.619   3.395   9.131  0.0200  2.1025 -1.0282
14481SOL     OW44020   5.270   4.413   4.513  0.3909  0.4704  0.2711
14481SOL    HW144021   5.218   4.492   4.506 -1.0401  0.1212  4.1674
14481SOL    HW244022   5.320   4.425   4.595  1.0004 -2.1457  0.3680
14482SOL     OW44023   0.832   8.761   3.249 -0.0202 -0.2604  0.2953
14482SOL    HW144024   0.854   8.807   3.330 -0.4732 -1.0578  0.8825
14482SOL    HW244025   0.910   8.710   3.228  1.8127  3.0992 -2.1383
14483SOL     OW44026   5.175   7.660   0.690  0.3073  0.4352  0.2007
14483SOL    HW144027   5.267   7.633   0.684  0.7479  1.7467  0.5565
14483SOL    HW244028   5.133   7.622   0.614  0.5478 -2.3137  1.3346
14484SOL     OW44029   7.790   6.413   3.147 -0.2316  0.3323  0.8230
14484SOL    HW144030   7.842   6.348   3.099 -0.8107  1.5502 -1.6223
14484SOL    HW244031   7.825   6.410   3.236  2.6413 -0.3497 -0.2165
14485SOL     OW44032   3.973   3.918   8.512 -0.3746 -0.5245  0.6367
14485SOL    HW144033   4.034   3.984   8.479 -1.3374 -0.2873 -0.7313
14485SOL    HW244034   4.021   3.836   8.508  0.5150 -0.0663  1.4649
14486SOL     OW44035   2.219   6.352   9.427 -0.0494  0.5655  0.0097
14486SOL    HW144036   2.180   6.439   9.435  1.5571  1.3522 -0.1662
14486SOL    HW244037   2.172   6.298   9.490 -0.7327  1.6962  0.4970
14487SOL     OW44038   8.695   7.388   5.648 -0.5225 -0.6187  0.2306
14487SOL    HW144039   8.635   7.461   5.661 -1.7019 -1.6501  0.7329
14487SOL    HW244040   8.729   7.368   5.735  1.3534  0.5706 -0.1666
14488SOL     OW44041   8.430   3.328   4.939 -0.1184  0.3189 -0.0069
14488SOL    HW144042   8.364   3.396   4.952  0.8744  1.2030  0.5740
14488SOL    HW244043   8.426   3.308   4.846  0.5885  2.2851 -0.5186
14489SOL     OW44044   7.904   5.446   0.258  0.1199 -0.1350 -0.0062
14489SOL    HW144045   7.899   5.419   0.166  1.0195  0.1404 -0.1549
14489SOL    HW244046   7.998   5.447   0.277  0.1712  2.7183  0.0109
14490SOL     OW44047   9.017   6.774   4.258  0.7277  0.0611  0.4190
14490SOL    HW144048   8.953   6.833   4.299  0.0177 -1.5176  1.6588
14490SOL    HW244049   9.052   6.825   4.185 -3.1568  0.4486 -1.4271
14491SOL     OW44050   9.298   4.639   3.529  0.3877  0.2260  0.2210
14491SOL    HW144051   9.342   4.724   3.528  0.0156  0.4357  0.8844
14491SOL    HW244052   9.229   4.649   3.595  0.2200 -0.5295  0.1656
14492SOL     OW44053   6.642   9.027   7.199 -0.3894  0.1421 -0.8646
14492SOL    HW144054   6.564   9.046   7.146 -0.3310  3.3465  0.0326
14492SOL    HW244055   6.632   9.081   7.277  0.7348 -2.6208  1.3424
14493SOL     OW44056   6.453   1.492   5.897 -0.1682  0.0017 -0.3800
14493SOL    HW144057   6.376   1.460   5.944  0.7142 -0.7973  0.5834
14493SOL    HW244058   6.420   1.560   5.839 -1.0825  2.4371  2.7220
14494SOL     OW44059   5.420   8.052   2.845 -0.1069  0.2144 -0.1945
14494SOL    HW144060   5.446   8.015   2.930 -0.7184  2.7576  1.1964
14494SOL    HW244061   5.329   8.022   2.834 -0.5252  1.0531  0.8022
14495SOL     OW44062   2.096   1.930   2.401  0.7215  0.3255 -0.0694
14495SOL    HW144063   2.048   1.891   2.475  0.0972  1.7029  0.2848
14495SOL    HW244064   2.061   1.886   2.324 -2.1624  2.1739  0.0440
14496SOL     OW44065   4.568   0.497   3.522  0.1224  0.4440 -0.3576
14496SOL    HW144066   4.553   0.417   3.471 -1.7593  0.9856 -0.7541
14496SOL    HW244067   4.659   0.519   3.506  0.1833 -0.6360 -1.7182
14497SOL     OW44068   8.916   1.040   1.761 -0.4129 -0.4912 -0.3296
14497SOL    HW144069   8.933   1.042   1.855 -0.5642  1.4163 -0.2957
14497SOL    HW244070   8.934   0.950   1.735 -0.8916 -1.2040  1.6112
14498SOL     OW44071   1.528   6.554   9.722  0.1167 -0.6277 -0.0959
14498SOL    HW144072   1.554   6.580   9.810 -0.8168  1.0752 -0.2924
14498SOL    HW244073   1.609   6.523   9.681  1.0918  0.9850  0.5309
14499SOL     OW44074   2.561   9.688   2.262 -0.5232 -0.0009 -0.3600
14499SOL    HW144075   2.593   9.683   2.352  1.1596 -0.7180 -0.9490
14499SOL    HW244076   2.544   9.781   2.248 -0.4013  0.1751  0.5532
14500SOL     OW44077   1.226   1.686   8.452 -0.6201  0.1322  0.0458
14500SOL    HW144078   1.194   1.724   8.534  0.4634 -2.6757  1.8909
14500SOL    HW244079   1.312   1.725   8.439 -1.7994  2.5087 -1.2346
14501SOL     OW44080   2.933   6.135   2.575  0.3920  0.4734 -0.4902
14501SOL    HW144081   2.991   6.184   2.634 -0.0254 -0.3610  0.6364
14501SOL    HW244082   2.904   6.200   2.511  0.5476  1.4935  0.4544
14502SOL     OW44083   2.300   3.879   8.062  0.3958  0.0333  0.1144
14502SOL    HW144084   2.375   3.851   8.116  1.7878 -0.3817 -1.9332
14502SOL    HW244085   2.239   3.805   8.067  1.1865 -0.6536 -0.0728
14503SOL     OW44086   1.179   7.141   6.584  0.0695  0.3220 -0.0031
14503SOL    HW144087   1.213   7.144   6.494  1.8048 -0.1722  0.6191
14503SOL    HW244088   1.097   7.092   6.576  0.8868 -0.9260 -1.1025
14504SOL     OW44089   9.416   9.951   2.133 -0.1692  0.1226  0.1904
14504SOL    HW144090   9.458  10.019   2.185 -1.3793  0.6295  0.5424
14504SOL    HW244091   9.466   9.948   2.052  0.3290  0.9257  0.4594
14505SOL     OW44092   8.759   1.117   8.632 -0.0850 -0.2323  0.3173
14505SOL    HW144093   8.674   1.111   8.589  0.0420 -0.2381  0.0662
14505SOL    HW244094   8.766   1.036   8.683 -0.3293 -0.1242  0.5243
14506SOL     OW44095   8.579   2.255   9.196  0.4737  0.0205  0.0358
14506SOL    HW144096   8.610   2.216   9.114 -0.9729 -1.5213  0.1729
14506SOL    HW244097   8.647   2.318   9.220  2.9208 -2.3352 -0.2604
14507SOL     OW44098   9.408   9.953   5.198  0.0134 -0.2154  0.3886
14507SOL    HW144099   9.342   9.887   5.219  0.2774 -0.5870  0.0628
14507SOL    HW244100   9.367  10.009   5.132  0.6229 -1.4691 -1.0942
14508SOL     OW44101   8.295   3.818   1.231  0.0395  0.0684  0.1408
14508SOL    HW144102   8.367   3.826   1.294 -0.7331  0.7629  0.9802
14508SOL    HW244103   8.306   3.732   1.192  1.1226  0.0272  0.4990
14509SOL     OW44104   9.267   9.751   9.160  0.3035 -0.1729 -0.4459
14509SOL    HW144105   9.180   9.783   9.135  0.3716 -1.4514 -2.5738
14509SOL    HW244106   9.324   9.828   9.153 -0.3071  0.2366 -0.9823
14510SOL     OW44107   1.969   6.143   0.932  0.0446  0.7555 -0.1429
14510SOL    HW144108   1.913   6.179   1.001  0.0058  0.3559  0.0369
14510SOL    HW244109   2.058   6.156   0.965  0.0621  1.3569 -0.4120
14511SOL     OW44110   1.888   8.993   3.904  0.0560 -0.4454  0.1236
14511SOL    HW144111   1.927   9.067   3.951  1.4814 -1.0882 -0.0192
14511SOL    HW244112   1.794   9.011   3.907  0.1140 -0.1588  2.7012
14512SOL     OW44113   6.499   9.684   2.638  0.2116  0.4402  0.3178
14512SOL    HW144114   6.421   9.731   2.666 -0.3795 -0.5035  0.2851
14512SOL    HW244115   6.568   9.715   2.697 -0.0360  1.7180 -0.0334
14513SOL     OW44116   9.799   8.979   8.087 -1.1378 -0.2013 -0.2459
14513SOL    HW144117   9.755   8.942   8.010 -1.5973 -0.8074  0.3070
14513SOL    HW244118   9.866   9.037   8.050 -1.6054 -0.1909 -1.1034
14514SOL     OW44119   0.761   7.854   0.234  0.8799  0.4583 -0.0744
14514SOL    HW144120   0.710   7.853   0.153  1.5328 -0.2529 -0.4900
14514SOL    HW244121   0.700   7.822   0.301  0.9589 -1.0434 -0.6850
14515SOL     OW44122   1.082   0.327   3.431  0.0258 -0.1197 -0.0829
14515SOL    HW144123   1.004   0.271   3.430 -0.1033  0.0627 -0.7898
14515SOL    HW244124   1.104   0.338   3.338  1.8423 -1.4879  0.1306
14516SOL     OW44125   5.173   6.960   3.216 -0.3354  0.2495  0.0096
14516SOL    HW144126   5.198   6.953   3.124 -0.7901 -0.5746 -0.0612
14516SOL    HW244127   5.153   6.870   3.243  0.6293  0.3526  1.1634
14517SOL     OW44128   1.380   4.070   1.416 -0.2653 -0.4315 -0.0551
14517SOL    HW144129   1.400   4.157   1.450 -0.0154 -0.1925 -0.8006
14517SOL    HW244130   1.303   4.042   1.466  1.4161 -1.0766  2.3498
14518SOL     OW44131   7.454   0.427   4.473  0.4196  0.8607 -0.0319
14518SOL    HW144132   7.419   0.349   4.431 -0.9080  1.6808 -0.5166
14518SOL    HW244133   7.540   0.401   4.506 -0.2843 -0.9889  0.4346
14519SOL     OW44134   1.063   9.611   6.137 -0.1679 -0.2142  0.2938
14519SOL    HW144135   1.065   9.689   6.192 -3.1437 -1.5319  2.5514
14519SOL    HW244136   1.056   9.645   6.048 -0.4462  2.0711  1.1206
14520SOL     OW44137   2.305   3.230   4.388  0.5699 -0.2931 -0.4525
14520SOL    HW144138   2.341   3.162   4.446 -1.7797 -1.4306 -0.2081
14520SOL    HW244139   2.254   3.181   4.323 -1.2265  1.2214 -0.2453
14521SOL     OW44140   9.365   0.061   8.865  0.0016  0.0130  0.4734
14521SOL    HW144141   9.419  -0.006   8.823  0.4190  0.0446  0.9507
14521SOL    HW244142   9.277   0.045   8.832  0.3550  0.1919 -0.6245
14522SOL     OW44143   4.555   9.373   3.652  0.7173 -0.3748  0.5154
14522SOL    HW144144   4.567   9.286   3.612  0.1132  0.1595 -0.8704
14522SOL    HW244145   4.461   9.382   3.661  0.6150  0.9561 -1.3099
14523SOL     OW44146   1.030   4.598   2.902  0.4983 -0.0578  0.0054
14523SOL    HW144147   1.038   4.508   2.871  0.0496  0.5197 -1.9639
14523SOL    HW244148   1.079   4.650   2.838  1.0522  1.0869  1.2999
14524SOL     OW44149   7.203   5.639   0.302 -0.2617 -0.5053 -0.4085
14524SOL    HW144150   7.183   5.552   0.336  1.1146 -1.8752 -2.7959
14524SOL    HW244151   7.117   5.680   0.291 -1.0454 -2.0589 -0.4321
14525SOL     OW44152   3.925   0.845   7.047 -0.2098 -0.3347 -0.0856
14525SOL    HW144153   3.948   0.752   7.042  1.2511 -0.1597  2.0935
14525SOL    HW244154   3.985   0.887   6.984  0.4519 -0.6774  0.3065
14526SOL     OW44155   5.057   4.516   2.430  0.1122 -0.4856  0.1101
14526SOL    HW144156   4.974   4.562   2.418  0.9212  0.8061 -0.7960
14526SOL    HW244157   5.076   4.477   2.344  0.6456 -0.4233  0.1971
14527SOL     OW44158   3.719   9.122   9.823  0.6063  0.1910 -0.0766
14527SOL    HW144159   3.738   9.161   9.909 -1.6700  0.0709  0.5595
14527SOL    HW244160   3.721   9.196   9.763 -0.1888  0.7415  0.5341
14528SOL     OW44161   6.122   2.227   2.133  0.4204 -0.1553  0.0384
14528SOL    HW144162   6.151   2.317   2.115  0.6134 -0.3468 -0.6122
14528SOL    HW244163   6.094   2.229   2.224 -0.4676  0.8066 -0.2336
14529SOL     OW44164   1.863   8.921   0.323 -0.3682  0.6676 -0.2453
14529SOL    HW144165   1.823   8.971   0.252 -0.6739  1.1265  0.2409
14529SOL    HW244166   1.879   8.985   0.392 -1.9776 -0.0913  0.9199
14530SOL     OW44167   3.445   4.393   6.631 -0.0954 -0.0998  0.1895
14530SOL    HW144168   3.407   4.314   6.668 -1.0155  1.3239  2.5330
14530SOL    HW244169   3.390   4.464   6.664  1.6682  1.6620 -0.4132
14531SOL     OW44170   9.831   2.096   3.499 -0.4313  0.4637  0.2580
14531SOL    HW144171   9.826   2.042   3.421 -2.0331  1.5773 -0.4573
14531SOL    HW244172   9.771   2.055   3.561 -1.5311  1.2937 -0.2309
14532SOL     OW44173   2.180   6.335   5.447  0.2106 -0.5665  0.4993
14532SOL    HW144174   2.111   6.389   5.484 -0.7903 -1.4771  0.0425
14532SOL    HW244175   2.258   6.390   5.448 -0.1718  0.0012  2.3442
14533SOL     OW44176   6.802   8.618   8.877 -0.0095  0.3467 -0.4188
14533SOL    HW144177   6.799   8.667   8.794  0.8034  2.4925  0.7563
14533SOL    HW244178   6.874   8.556   8.865 -2.1471 -1.9164 -2.5709
14534SOL     OW44179   9.273   4.938   9.400 -0.2835  0.1723  0.1308
14534SOL    HW144180   9.198   4.921   9.343 -0.5389  4.0240 -0.9649
14534SOL    HW244181   9.235   4.952   9.487 -0.7958  1.2579 -0.2499
14535SOL     OW44182   0.974   0.108   2.828 -0.2741  0.2180 -0.3723
14535SOL    HW144183   0.889   0.068   2.807  0.1814 -1.0119  0.0578
14535SOL    HW244184   0.980   0.102   2.923 -0.3922  1.7801 -0.2358
14536SOL     OW44185   1.280   2.546   0.893 -0.1047  0.6083  0.7331
14536SOL    HW144186   1.227   2.609   0.942  1.4334  1.7380  1.0209
14536SOL    HW244187   1.323   2.599   0.826  0.3821 -0.3484  0.2818
14537SOL     OW44188   4.675   3.518   9.433  0.0556  0.1158  0.3290
14537SOL    HW144189   4.709   3.572   9.505 -0.8965 -0.1011  0.9573
14537SOL    HW244190   4.734   3.443   9.429  0.3201  0.3048  0.6435
14538SOL     OW44191   2.006   1.828   5.614 -0.4300  0.4431 -0.9361
14538SOL    HW144192   1.948   1.865   5.547 -1.6209 -1.3254 -0.9317
14538SOL    HW244193   1.950   1.820   5.691 -0.3244 -1.5972 -1.0256
14539SOL     OW44194   9.835   2.567   7.391 -0.3792 -0.0606 -0.1139
14539SOL    HW144195   9.900   2.593   7.325  0.9678 -1.6046  0.5371
14539SOL    HW244196   9.852   2.625   7.465 -1.0379  0.8205 -0.6442
14540SOL     OW44197   4.463   6.224   1.654 -0.5746 -0.2089 -0.1840
14540SOL    HW144198   4.548   6.230   1.610  1.1052 -2.2855  2.4803
14540SOL    HW244199   4.447   6.313   1.687  0.1333  0.3996 -1.4024
14541SOL     OW44200   6.239   8.479   1.499  0.6816 -0.2844  0.1590
14541SOL    HW144201   6.173   8.528   1.450 -0.0888  0.7837  2.1341
14541SOL    HW244202   6.195   8.399   1.526  1.0624 -0.8106 -0.7708
14542SOL     OW44203   4.338   2.235   0.220 -0.1275 -0.2165 -0.3191
14542SOL    HW144204   4.372   2.181   0.291 -1.8263 -0.0673  0.6810
14542SOL    HW244205   4.295   2.173   0.161 -0.0204 -0.1880 -0.4276
14543SOL     OW44206   0.191   0.263   3.918 -0.5368  0.0681 -0.2131
14543SOL    HW144207   0.212   0.312   3.998 -1.9059  0.4391 -0.0560
14543SOL    HW244208   0.095   0.266   3.912 -0.4942 -0.4404 -1.5662
14544SOL     OW44209   0.583   9.189   3.549  0.0828  0.0332  0.4723
14544SOL    HW144210   0.605   9.096   3.540 -1.3097 -0.1652 -1.6327
14544SOL    HW244211   0.487   9.191   3.551  0.0208  1.5171 -1.5494
14545SOL     OW44212   7.457   3.864   6.851 -0.5978 -0.4661 -0.6982
14545SOL    HW144213   7.513   3.860   6.929 -2.6370 -0.0859  0.8573
14545SOL    HW244214   7.513   3.903   6.784  1.1679 -0.6222  0.5998
14546SOL     OW44215   5.419   5.549   0.467  0.9628 -1.0394 -0.5619
14546SOL    HW144216   5.433   5.567   0.560  0.4877 -0.7331 -0.5494
14546SOL    HW244217   5.452   5.626   0.422  2.1783 -1.6239 -0.7239
14547SOL     OW44218   5.255   1.389   1.041 -0.3750 -0.6855 -0.3604
14547SOL    HW144219   5.275   1.472   0.997 -1.4930 -0.3639 -0.3060
14547SOL    HW244220   5.276   1.406   1.133 -1.5212 -0.1131 -0.1848
14548SOL     OW44221   8.585   5.954   7.004 -0.0708  0.0069 -0.2221
14548SOL    HW144222   8.545   5.869   7.020 -0.7625  0.3049 -0.3485
14548SOL    HW244223   8.519   6.004   6.956 -0.1080  1.0103  0.8192
14549SOL     OW44224   1.481   6.095   8.613  0.0753  0.2918 -0.1367
14549SOL    HW144225   1.533   6.062   8.540 -1.6127 -1.6969 -0.5387
14549SOL    HW244226   1.546   6.126   8.676  1.7846 -1.8837 -0.6899
14550SOL     OW44227   8.306   9.304   4.435 -0.3833  0.6473 -0.0238
14550SOL    HW144228   8.317   9.220   4.390 -1.0075  0.6814 -0.2537
14550SOL    HW244229   8.239   9.287   4.500 -0.4281  0.9383  0.0073
14551SOL     OW44230   5.933   2.961   8.787 -0.4577  0.2803  0.1188
14551SOL    HW144231   5.968   2.874   8.806  0.4478  0.2306 -1.6475
14551SOL    HW244232   5.869   2.946   8.718 -0.6778  0.9690  0.1721
14552SOL     OW44233   3.726   0.620   9.052  0.6311  0.1927 -0.0429
14552SOL    HW144234   3.750   0.681   8.983 -2.0192  0.6304 -0.6989
14552SOL    HW244235   3.633   0.605   9.039  0.2333 -0.4910  2.8296
14553SOL     OW44236   5.231   2.384   4.498  0.2381 -0.0459  0.0896
14553SOL    HW144237   5.311   2.332   4.496  0.8580  0.9026 -0.4159
14553SOL    HW244238   5.260   2.472   4.521 -0.5596  0.4843 -0.8609
14554SOL     OW44239   2.949   7.311   3.882 -0.1999  0.0893  0.2962
14554SOL    HW144240   2.986   7.242   3.827 -0.3216 -0.6512  1.1199
14554SOL    HW244241   3.025   7.361   3.911  0.0024 -0.3416  0.5347
14555SOL     OW44242   8.824   5.160   7.863  0.2771 -0.1914 -0.1208
14555SOL    HW144243   8.792   5.144   7.774  0.5645  0.7319 -0.4107
14555SOL    HW244244   8.855   5.251   7.860 -0.4625  0.1251  1.1419
14556SOL     OW44245   2.071   0.834   7.488  0.5760 -0.3064  0.2460
14556SOL    HW144246   2.141   0.893   7.515  1.2070 -1.0179  0.1838
14556SOL    HW244247   2.098   0.748   7.520  0.6792 -0.9420 -1.4507
14557SOL     OW44248   0.002   1.442   6.073 -0.4600  0.9397 -0.1081
14557SOL    HW144249   0.089   1.472   6.046  0.1582 -1.6665 -1.3265
14557SOL    HW244250  -0.032   1.395   5.997 -1.2073 -1.5803  1.6613
14558SOL     OW44251   6.904   8.490   6.886 -0.6633  0.1344  0.2451
14558SOL    HW144252   6.859   8.407   6.874 -0.9514  0.3143  0.0610
14558SOL    HW244253   6.837   8.556   6.869 -0.7677  0.4087  1.5620
14559SOL     OW44254   6.392   3.168   9.282 -0.2596  0.0674 -0.1929
14559SOL    HW144255   6.394   3.074   9.301  0.8612 -0.0989 -1.0066
14559SOL    HW244256   6.319   3.178   9.220 -0.8504 -0.1320  0.4519
14560SOL     OW44257   7.627   6.387   7.450  0.4073 -0.1932  0.0451
14560SOL    HW144258   7.631   6.482   7.439  0.5973 -0.2575 -0.4690
14560SOL    HW244259   7.541   6.363   7.415  0.2817 -0.1933  0.3472
14561SOL     OW44260   8.790   8.510   7.018 -0.2758 -0.7413 -0.5715
14561SOL    HW144261   8.758   8.460   7.093 -0.3254  0.6768  0.3812
14561SOL    HW244262   8.710   8.544   6.977 -0.1851 -0.5209 -0.5638
14562SOL     OW44263   5.483   3.884   4.745 -0.0051  0.2002  0.7496
14562SOL    HW144264   5.436   3.881   4.662 -0.1228  0.3090  0.8112
14562SOL    HW244265   5.434   3.825   4.803  0.8631 -0.9540  0.3478
14563SOL     OW44266   4.697   0.074   0.967 -0.1016  0.2004  0.0925
14563SOL    HW144267   4.635   0.022   1.019 -2.0854  3.5544  1.4233
14563SOL    HW244268   4.729   0.013   0.901 -1.5138 -2.9017  2.0061
14564SOL     OW44269   7.812   5.915   4.218  0.6529  0.0995  0.2719
14564SOL    HW144270   7.804   5.956   4.304  0.3605  1.0296 -0.1878
14564SOL    HW244271   7.765   5.832   4.226 -0.2002  0.6225  0.7341
14565SOL     OW44272   7.156   0.650   1.301  0.5510 -0.8941  0.0089
14565SOL    HW144273   7.132   0.650   1.394  0.3150 -1.9633 -0.0449
14565SOL    HW244274   7.252   0.656   1.302  0.5190 -0.3051  0.2966
14566SOL     OW44275   1.195   4.913   5.437 -0.3908 -0.2899  0.1484
14566SOL    HW144276   1.232   4.854   5.372  1.2373  0.3950  0.4196
14566SOL    HW244277   1.257   4.911   5.510 -0.8710  0.9044  0.6158
14567SOL     OW44278   5.020   5.118   0.534  0.4651 -0.1072  0.9762
14567SOL    HW144279   5.023   5.214   0.534  2.2152 -0.1209 -0.7705
14567SOL    HW244280   5.107   5.091   0.505 -0.7535 -2.1675 -1.0639
14568SOL     OW44281   8.406   7.478   2.015  0.2898 -0.0419  0.0298
14568SOL    HW144282   8.422   7.558   2.066 -1.1635  0.8265 -0.7851
14568SOL    HW244283   8.482   7.470   1.958 -0.0873  1.5064 -0.7510
14569SOL     OW44284   8.005   1.010   7.855 -0.2043  0.0354  0.4112
14569SOL    HW144285   8.052   0.935   7.819 -0.4989 -0.4274  0.9699
14569SOL    HW244286   7.914   0.996   7.830 -0.4106 -0.2884  1.3219
14570SOL     OW44287   6.120   2.344   4.728  0.2476 -0.2922  0.3886
14570SOL    HW144288   6.076   2.311   4.806  0.5232  0.0845  0.7119
14570SOL    HW244289   6.144   2.434   4.751  4.3069 -1.4447  1.6293
14571SOL     OW44290   3.372   0.817   9.416 -0.4871 -0.4323  0.3064
14571SOL    HW144291   3.388   0.758   9.342 -0.3907  0.2220 -0.2088
14571SOL    HW244292   3.413   0.899   9.390 -1.2596  0.0877  0.6897
14572SOL     OW44293   0.779   1.525   2.654  0.0878 -0.4167  0.2676
14572SOL    HW144294   0.859   1.490   2.692 -0.0665 -0.4398  0.5718
14572SOL    HW244295   0.756   1.598   2.711  1.6447  1.6885 -1.5932
14573SOL     OW44296   9.748   0.907   7.887  0.5067  0.4113  0.0768
14573SOL    HW144297   9.681   0.928   7.822  0.6169 -1.5445 -0.7569
14573SOL    HW244298   9.701   0.856   7.953  1.0277 -0.5178 -0.2475
14574SOL     OW44299   3.567   2.570   1.871  0.3951  0.0490 -0.6676
14574SOL    HW144300   3.506   2.635   1.907  2.1887  0.3779  2.1375
14574SOL    HW244301   3.637   2.623   1.832  2.0902  0.0033  2.0224
14575SOL     OW44302   2.012   0.856   0.185 -0.2015  0.0122 -0.0597
14575SOL    HW144303   1.969   0.940   0.172 -0.6836 -0.0123  1.2584
14575SOL    HW244304   2.102   0.870   0.156 -1.0358  0.0558 -2.9263
14576SOL     OW44305   9.978   0.572   5.072  0.2842  0.7264 -0.6573
14576SOL    HW144306  10.037   0.508   5.113 -0.2379 -0.0607 -1.1002
14576SOL    HW244307   9.891   0.551   5.107  0.1000  1.1884 -0.8216
14577SOL     OW44308   3.144   2.790   8.780  0.0664  0.4060 -0.1036
14577SOL    HW144309   3.070   2.843   8.808  0.0015  0.2513  0.0222
14577SOL    HW244310   3.194   2.847   8.722  0.3121  0.8010  0.4921
14578SOL     OW44311   8.363   3.140   7.446  0.0020  0.4658 -0.4432
14578SOL    HW144312   8.442   3.179   7.408  0.6925  0.4501  0.9299
14578SOL    HW244313   8.363   3.050   7.413  0.6007  0.4473 -0.4061
14579SOL     OW44314   7.315   1.527   3.278  0.5478  0.3702 -0.0900
14579SOL    HW144315   7.382   1.557   3.216  1.9709 -0.0678  1.1756
14579SOL    HW244316   7.359   1.462   3.332 -0.6138  0.7701  1.4249
14580SOL     OW44317   7.480   5.724   0.952 -0.0137  0.3438  0.5041
14580SOL    HW144318   7.575   5.719   0.966  0.1953  1.6220 -0.2716
14580SOL    HW244319   7.454   5.634   0.933  0.2089 -1.0179  5.2993
14581SOL     OW44320   1.657   9.411   5.458  0.3040 -0.1948 -0.1061
14581SOL    HW144321   1.568   9.445   5.464  0.0998 -0.4463 -1.3329
14581SOL    HW244322   1.713   9.485   5.482 -0.2040  0.3298 -0.5213
14582SOL     OW44323   4.885   4.123   6.667 -0.0354  0.0218 -0.6961
14582SOL    HW144324   4.888   4.213   6.635  1.2597 -0.0984 -0.9604
14582SOL    HW244325   4.869   4.131   6.761  0.1346  0.5306 -0.7111
14583SOL     OW44326   3.826   6.737   2.601 -0.1801  0.1821 -0.0800
14583SOL    HW144327   3.882   6.688   2.661  1.5233  0.0003 -1.7323
14583SOL    HW244328   3.770   6.790   2.658  1.2488 -0.0896  1.6509
14584SOL     OW44329   2.538   8.699   3.855 -0.3657  0.5706  0.1915
14584SOL    HW144330   2.618   8.712   3.907  1.2626  0.5516 -2.1614
14584SOL    HW244331   2.494   8.625   3.897  0.8747  0.5190  1.4867
14585SOL     OW44332   2.031   7.173   9.274  0.3961 -0.6683 -0.2516
14585SOL    HW144333   2.083   7.150   9.197 -0.6822 -0.7906 -0.9635
14585SOL    HW244334   2.072   7.126   9.346  1.4268 -0.5442 -0.7463
14586SOL     OW44335   5.484   3.810   9.380  0.0647 -0.4913  0.6477
14586SOL    HW144336   5.425   3.885   9.392 -1.3315 -1.4375  0.0266
14586SOL    HW244337   5.488   3.768   9.466  0.1705 -0.1858  0.7936
14587SOL     OW44338   9.115   5.458   3.994  0.1623  0.0810 -0.3849
14587SOL    HW144339   9.103   5.364   3.999  0.1107  0.1451  1.0706
14587SOL    HW244340   9.204   5.470   3.962  0.7322 -0.4837  0.9386
14588SOL     OW44341   2.902   1.613   6.944  0.1241 -0.3633 -0.5919
14588SOL    HW144342   2.963   1.633   6.873  0.1834 -0.6040 -0.6087
14588SOL    HW244343   2.955   1.571   7.011  0.0389 -0.2735 -0.4666
14589SOL     OW44344   0.265   5.566   6.482 -0.2789  0.0164  0.1504
14589SOL    HW144345   0.269   5.639   6.420  1.6346  1.9077  2.3281
14589SOL    HW244346   0.206   5.596   6.551  1.3076 -0.0005  1.5686
14590SOL     OW44347   9.508   0.009   0.451  0.3897  0.1340 -0.1664
14590SOL    HW144348   9.603  -0.004   0.452  0.2264 -1.4668  1.8518
14590SOL    HW244349   9.492   0.062   0.373  2.8007 -0.5578 -1.2444
14591SOL     OW44350   2.258   5.094   6.102 -0.1575 -0.1461 -0.2432
14591SOL    HW144351   2.228   5.057   6.185  1.9301  1.1271  1.1592
14591SOL    HW244352   2.186   5.152   6.074 -0.3870  0.3944  1.3642
14592SOL     OW44353   9.244   9.323   8.404  0.3076 -0.7188 -0.2728
14592SOL    HW144354   9.313   9.288   8.348  0.6717  0.1394 -0.3786
14592SOL    HW244355   9.167   9.271   8.381  0.0722  0.5123 -2.6527
14593SOL     OW44356   9.556   4.328   9.910 -0.3018  0.1455 -0.2911
14593SOL    HW144357   9.488   4.379   9.866 -0.2179 -1.5131 -2.5241
14593SOL    HW244358   9.626   4.321   9.846  0.7989 -0.5429  0.9422
14594SOL     OW44359   0.364   7.160   0.366  0.2127 -0.9853  0.5948
14594SOL    HW144360   0.439   7.103   0.353 -0.0987 -1.2161 -0.2202
14594SOL    HW244361   0.400   7.239   0.406  0.9143 -1.0178  0.0330
14595SOL     OW44362   2.765   2.446   0.645 -0.1276  0.6965 -0.1320
14595SOL    HW144363   2.845   2.457   0.593  0.5753  0.6960  0.9260
14595SOL    HW244364   2.770   2.358   0.680 -1.5550 -0.0177 -1.5930
14596SOL     OW44365   8.558   7.569   4.352  0.2050  0.3976 -0.1473
14596SOL    HW144366   8.512   7.620   4.420 -0.8373 -0.1687 -0.4190
14596SOL    HW244367   8.605   7.635   4.302  0.1997  0.9295  0.5250
14597SOL     OW44368   2.574   2.780   7.462  1.0443  0.1833 -0.0546
14597SOL    HW144369   2.555   2.736   7.379 -2.1889 -1.1241  1.2551
14597SOL    HW244370   2.536   2.867   7.453 -0.3874 -0.3739  0.4410
14598SOL     OW44371   6.271   6.787   3.224 -0.0076 -0.4145 -0.5421
14598SOL    HW144372   6.221   6.705   3.230  0.6538 -0.9059 -1.4523
14598SOL    HW244373   6.360   6.759   3.205  0.3605  0.5035 -0.1871
14599SOL     OW44374   6.506   8.435   6.671 -0.5060  0.4709  0.6417
14599SOL    HW144375   6.419   8.468   6.648  0.1844  1.6003 -0.4785
14599SOL    HW244376   6.517   8.358   6.615  0.0845  1.6562 -0.9648
14600SOL     OW44377   4.590   9.167   4.676  0.5866  0.0120 -0.1607
14600SOL    HW144378   4.604   9.110   4.600  1.0674  1.5147 -1.2386
14600SOL    HW244379   4.676   9.204   4.695  0.6473 -0.9050  1.6495
14601SOL     OW44380   4.356   8.323   0.634 -0.1234  0.1374  0.2167
14601SOL    HW144381   4.395   8.349   0.718  0.1860  1.9748 -0.4430
14601SOL    HW244382   4.422   8.269   0.592  0.2903  0.3497  0.5844
14602SOL     OW44383   7.795   1.701   9.891  0.2139  0.1156 -0.0531
14602SOL    HW144384   7.765   1.789   9.866 -1.1150 -0.2103  0.3002
14602SOL    HW244385   7.725   1.643   9.860 -0.2912 -0.5345  2.1843
14603SOL     OW44386   1.557   5.092   5.532 -0.5088 -0.6245  0.3014
14603SOL    HW144387   1.542   5.185   5.514  0.5477 -0.6920 -1.1420
14603SOL    HW244388   1.567   5.053   5.445 -1.3468 -2.1700  0.8703
14604SOL     OW44389   1.018   7.309   7.468 -0.0563 -0.4026  0.8658
14604SOL    HW144390   1.023   7.324   7.374 -2.2607 -3.0332  0.2038
14604SOL    HW244391   1.074   7.233   7.483  2.5985  1.6810  2.2820
14605SOL     OW44392   9.799   0.523   4.265  0.0303 -0.3544  0.6776
14605SOL    HW144393   9.826   0.601   4.312 -0.6660 -0.9007  2.0293
14605SOL    HW244394   9.869   0.460   4.281  2.2572  0.8507 -3.0347
14606SOL     OW44395   3.570   4.928   5.243 -0.2469  0.2076 -0.0255
14606SOL    HW144396   3.555   4.840   5.278 -0.3926 -0.7481 -2.3510
14606SOL    HW244397   3.490   4.948   5.194  0.3534  1.0626 -0.6685
14607SOL     OW44398   7.041   0.690   5.362  0.3548  0.3913 -0.1218
14607SOL    HW144399   7.006   0.777   5.342  0.2917  0.2251 -0.7411
14607SOL    HW244400   7.120   0.683   5.308 -0.6464 -0.6549 -1.5186
14608SOL     OW44401   5.268   1.192   3.371  0.1065 -0.3027 -0.5146
14608SOL    HW144402   5.304   1.108   3.343 -4.2266 -2.1246 -1.4863
14608SOL    HW244403   5.271   1.246   3.292  0.6443 -0.3887 -0.5610
14609SOL     OW44404   8.569   7.556   6.437  0.6499  0.1105 -0.0222
14609SOL    HW144405   8.550   7.462   6.437  0.9299  0.0432  0.8126
14609SOL    HW244406   8.594   7.575   6.528  1.5713  0.7893 -0.3978
14610SOL     OW44407   1.624   4.685   5.553  0.1531  0.4676 -0.4243
14610SOL    HW144408   1.581   4.606   5.520  0.7254 -0.4675  0.9809
14610SOL    HW244409   1.692   4.703   5.488 -1.2625  1.0324 -1.8166
14611SOL     OW44410   7.586   5.242   8.429  0.3711  0.1310 -0.2631
14611SOL    HW144411   7.527   5.228   8.504  0.3172  1.6258  0.0053
14611SOL    HW244412   7.612   5.154   8.403 -1.7703 -0.5818 -0.2171
14612SOL     OW44413   3.067   9.117   7.659 -0.5765  0.2315 -0.6868
14612SOL    HW144414   3.016   9.090   7.736 -0.2169  1.2506 -0.0787
14612SOL    HW244415   3.137   9.171   7.694 -0.0538  0.2187 -1.6849
14613SOL     OW44416   9.833   9.106   7.328 -0.2139 -0.6606  0.5823
14613SOL    HW144417   9.898   9.153   7.380 -1.0991  2.2391 -0.7331
14613SOL    HW244418   9.759   9.167   7.321 -1.3879 -2.1870 -1.4007
14614SOL     OW44419   2.618   0.474   3.889  0.0597 -0.6580 -0.2620
14614SOL    HW144420   2.635   0.395   3.939 -0.8202 -0.3528  0.5346
14614SOL    HW244421   2.594   0.540   3.954  0.4169  0.1712 -0.9418
14615SOL     OW44422   1.884   3.166   0.370 -0.2364  0.2052 -0.0801
14615SOL    HW144423   1.807   3.223   0.365 -0.8620 -0.6448 -0.3252
14615SOL    HW244424   1.863   3.092   0.314 -0.3011 -1.2479  1.7649
14616SOL     OW44425   3.654   1.478   2.662  0.0777 -0.5539 -0.7709
14616SOL    HW144426   3.679   1.515   2.577  2.0394 -1.8516 -0.8316
14616SOL    HW244427   3.589   1.539   2.697  1.3617  1.5831 -1.9228
14617SOL     OW44428   0.797   7.005   0.806  0.0329  0.2338  0.7367
14617SOL    HW144429   0.813   7.049   0.889  0.3375  1.5721  0.0110
14617SOL    HW244430   0.883   6.976   0.777 -0.1105 -0.4845  1.0057
14618SOL     OW44431   1.512   1.343   5.242 -0.1519  0.1616  0.2787
14618SOL    HW144432   1.425   1.382   5.243 -0.5130 -0.5867  2.4602
14618SOL    HW244433   1.503   1.263   5.190 -0.9947 -0.3706  1.2263
14619SOL     OW44434   9.164   9.035   0.742  0.1740 -0.6145  1.2568
14619SOL    HW144435   9.212   8.982   0.806  1.6257 -0.4329  0.3489
14619SOL    HW244436   9.231   9.071   0.685 -0.9642  0.5506  0.6001
14620SOL     OW44437   3.024   5.810   3.871 -0.4603 -0.0134 -0.2954
14620SOL    HW144438   3.083   5.876   3.833 -0.6778  1.5676  1.9471
14620SOL    HW244439   3.080   5.755   3.925 -0.7842  0.6071  0.7011
14621SOL     OW44440   2.968   7.803   7.735  0.1472 -0.0831  0.3727
14621SOL    HW144441   3.059   7.790   7.709 -0.1065  1.0565 -1.2478
14621SOL    HW244442   2.920   7.805   7.652 -0.9449  2.3008  0.9847
14622SOL     OW44443   6.355   0.293   2.440  0.5206 -0.0448 -0.4994
14622SOL    HW144444   6.343   0.362   2.375  0.7742  1.0279  0.5432
14622SOL    HW244445   6.267   0.259   2.455  0.1163  1.2061  0.1536
14623SOL     OW44446   5.877   9.321   8.885 -0.1881  0.1224 -0.0546
14623SOL    HW144447   5.858   9.286   8.798 -0.8645 -2.5567  1.0767
14623SOL    HW244448   5.968   9.296   8.901  0.5334  2.1633 -0.6022
14624SOL     OW44449   4.147   2.261   4.829  0.0826 -0.2898 -0.2589
14624SOL    HW144450   4.241   2.248   4.817  0.8147  3.5902  0.0507
14624SOL    HW244451   4.111   2.255   4.741  1.2179  1.5135 -0.8978
14625SOL     OW44452   5.215   5.100   2.510  0.0942  0.2741  0.6286
14625SOL    HW144453   5.174   5.015   2.528 -0.6217  0.6464  0.7702
14625SOL    HW244454   5.233   5.137   2.597  0.3535  0.2980  0.5668
14626SOL     OW44455   4.402   4.510   5.520 -0.6647  0.0672 -0.6618
14626SOL    HW144456   4.361   4.433   5.479  0.4009 -0.3463 -0.9974
14626SOL    HW244457   4.496   4.500   5.500 -0.2049  0.2654  1.2262
14627SOL     OW44458   6.174   2.549   5.535  0.3448  0.0748 -0.9191
14627SOL    HW144459   6.175   2.643   5.516 -1.1688 -0.2590 -2.9872
14627SOL    HW244460   6.082   2.525   5.529  0.7625 -1.6380 -0.9057
14628SOL     OW44461   9.528   7.813   7.203  0.1532 -0.7785 -0.6229
14628SOL    HW144462   9.585   7.756   7.255  0.0523 -0.9914 -0.7415
14628SOL    HW244463   9.520   7.768   7.119 -0.2023 -0.7624 -0.6007
14629SOL     OW44464   0.444   3.663   8.369  0.0669 -0.2119 -0.5217
14629SOL    HW144465   0.356   3.684   8.336 -0.0017  0.2062 -0.0852
14629SOL    HW244466   0.503   3.686   8.297 -0.0857  0.6410 -0.3779
14630SOL     OW44467   9.250   0.450   6.605 -0.0972 -0.7424 -0.4819
14630SOL    HW144468   9.189   0.520   6.625 -0.5767 -1.1475 -0.5105
14630SOL    HW244469   9.336   0.491   6.610 -0.2628 -0.5353  1.1540
14631SOL     OW44470   8.539   2.746   5.927  0.5047  0.3636 -0.7246
14631SOL    HW144471   8.575   2.816   5.872  2.1466  0.6824  0.6749
14631SOL    HW244472   8.519   2.789   6.011  0.3652 -0.5952 -0.2475
14632SOL     OW44473   9.328   3.227   2.372 -0.0253 -0.1744 -0.1603
14632SOL    HW144474   9.245   3.252   2.330 -0.4279  0.7280  1.1219
14632SOL    HW244475   9.356   3.306   2.418  0.1021 -1.2774  1.7413
14633SOL     OW44476   7.038   1.284   6.871  0.6845 -0.1916 -0.7672
14633SOL    HW144477   7.115   1.271   6.925  0.0601  1.3617  0.5532
14633SOL    HW244478   6.968   1.308   6.932 -0.9853 -1.8704 -1.8690
14634SOL     OW44479   0.789   0.978   2.782  0.1094 -0.1354  0.2335
14634SOL    HW144480   0.831   0.926   2.714  1.6825 -1.0882  1.8455
14634SOL    HW244481   0.859   1.032   2.818 -0.2311 -0.9369  2.2449
14635SOL     OW44482   1.774   9.188   3.040 -0.4321  0.0540  0.2961
14635SOL    HW144483   1.810   9.276   3.023 -1.2005  0.3990  0.4171
14635SOL    HW244484   1.797   9.171   3.131  1.1927 -0.5962 -0.1953
14636SOL     OW44485   5.890   9.598   9.700 -0.0152 -0.0295 -0.3237
14636SOL    HW144486   5.813   9.603   9.756 -0.1258 -0.7676 -0.4023
14636SOL    HW244487   5.861   9.550   9.622  0.7524 -1.1828  0.0664
14637SOL     OW44488   4.565   2.026   4.507  0.0672 -0.2907 -0.3580
14637SOL    HW144489   4.477   1.994   4.526  0.3255 -0.3038  0.9459
14637SOL    HW244490   4.552   2.111   4.465 -0.5653 -0.4090 -0.4082
14638SOL     OW44491   3.479   5.765   6.529  0.0985 -0.0112 -0.4477
14638SOL    HW144492   3.546   5.832   6.545  0.6557 -0.5324 -0.5837
14638SOL    HW244493   3.507   5.722   6.449 -0.5055 -0.1083 -0.6059
14639SOL     OW44494   4.314   6.663   5.499  0.4098  0.6929  0.1190
14639SOL    HW144495   4.401   6.624   5.487 -0.2023 -0.5468 -0.5410
14639SOL    HW244496   4.257   6.609   5.444 -0.6957  1.7946  0.1634
14640SOL     OW44497   7.965   1.619   4.051  0.4146 -0.5057 -0.5299
14640SOL    HW144498   7.915   1.597   4.130  0.7377  0.8775  0.0926
14640SOL    HW244499   7.942   1.550   3.989 -0.8039 -0.9564  0.3596
14641SOL     OW44500   7.307   6.036   1.549  0.8480  0.8061  0.2897
14641SOL    HW144501   7.396   6.019   1.576  1.1043  0.2115 -0.8611
14641SOL    HW244502   7.253   6.009   1.623  1.4951 -0.9197  0.1718
14642SOL     OW44503   9.232   0.308   1.038  0.0196  0.1508 -0.1556
14642SOL    HW144504   9.259   0.239   1.099 -0.1883  1.4679  1.4840
14642SOL    HW244505   9.140   0.323   1.057  0.1525  1.1300 -0.2309
14643SOL     OW44506   3.911   0.579   1.256  0.4751  0.6625  0.1044
14643SOL    HW144507   3.930   0.490   1.224  0.6843  1.0223 -0.7997
14643SOL    HW244508   3.875   0.625   1.180  0.4574  1.3788  0.5378
14644SOL     OW44509   6.043   6.838   4.407  0.2607  0.5614 -0.2251
14644SOL    HW144510   6.015   6.916   4.454  0.9030 -0.3306  1.7524
14644SOL    HW244511   6.134   6.826   4.434  0.0110 -1.1601 -0.0567
14645SOL     OW44512   2.529   5.956   3.466 -0.3097 -0.0808  0.0889
14645SOL    HW144513   2.597   5.939   3.401 -0.7372  0.0798 -0.4121
14645SOL    HW244514   2.449   5.921   3.426 -0.1707 -2.4676  1.6487
14646SOL     OW44515   8.282   2.978   9.769 -0.0812 -0.4499 -0.2917
14646SOL    HW144516   8.322   2.945   9.850 -3.1040 -0.1610  1.4537
14646SOL    HW244517   8.252   2.900   9.724  0.7253 -0.5531 -0.6633
14647SOL     OW44518   6.175   1.174   1.739 -0.0404  0.3240 -0.4041
14647SOL    HW144519   6.099   1.151   1.685 -0.0697 -1.5373  0.3408
14647SOL    HW244520   6.240   1.107   1.717  0.5911  0.6100  0.5604
14648SOL     OW44521   2.588   9.888   8.930 -0.5163 -0.1873 -0.1978
14648SOL    HW144522   2.508   9.841   8.954 -0.2212 -0.7258 -0.2710
14648SOL    HW244523   2.658   9.844   8.977 -0.3383  0.7218  0.4259
14649SOL     OW44524   4.558   5.382   1.686  0.2225  0.1235 -0.6832
14649SOL    HW144525   4.466   5.364   1.702  0.0079  2.2015  0.9142
14649SOL    HW244526   4.605   5.315   1.734 -0.5079  1.1316  1.5969
14650SOL     OW44527   1.432   4.139   3.739  0.1380  0.4876  0.1860
14650SOL    HW144528   1.391   4.055   3.759 -3.0069  1.2207 -2.2831
14650SOL    HW244529   1.525   4.124   3.752 -0.2880 -3.3472 -0.0556
14651SOL     OW44530   1.066   7.184   1.518 -0.3122  0.2206  0.4369
14651SOL    HW144531   1.136   7.214   1.461 -0.5524  2.8552  1.4223
14651SOL    HW244532   1.024   7.264   1.550 -2.2525 -1.2255  1.7541
14652SOL     OW44533   3.191   6.593   0.520  0.7746 -0.3886 -0.5088
14652SOL    HW144534   3.260   6.632   0.468  0.3231 -1.4330 -1.9638
14652SOL    HW244535   3.214   6.500   0.524  0.8561 -0.3161  1.2826
14653SOL     OW44536   0.628   3.754   3.375 -0.0426  0.4721  0.4945
14653SOL    HW144537   0.686   3.689   3.336 -0.4338 -0.8709  2.0850
14653SOL    HW244538   0.541   3.734   3.339 -0.2341 -0.1545  1.2943
14654SOL     OW44539   2.017   4.733   4.659 -0.3243  0.1338  1.2400
14654SOL    HW144540   1.975   4.731   4.745 -0.7950  1.0968  1.0460
14654SOL    HW244541   1.992   4.817   4.622 -1.2792 -0.8091 -0.3951
14655SOL     OW44542   1.708   5.691   7.533  0.4903  0.4010  0.3360
14655SOL    HW144543   1.730   5.736   7.615 -0.5990 -1.6524  1.8332
14655SOL    HW244544   1.769   5.618   7.528 -1.5104 -1.4202  1.0935
14656SOL     OW44545   9.274   8.573   7.326  0.0206  0.2871  0.9320
14656SOL    HW144546   9.238   8.511   7.389 -0.3118  0.5814  1.0396
14656SOL    HW244547   9.210   8.573   7.254  1.4350 -1.6254 -0.4023
14657SOL     OW44548   4.424   6.005   5.091 -0.1867 -0.2763  0.1471
14657SOL    HW144549   4.339   6.007   5.136  0.2440 -0.4276  0.9951
14657SOL    HW244550   4.456   6.095   5.097  0.5547 -0.6011  1.5260
14658SOL     OW44551   4.980   8.908   0.280  0.0239 -0.1380  0.5017
14658SOL    HW144552   4.898   8.870   0.248  0.0889 -0.5626  0.8372
14658SOL    HW244553   5.032   8.834   0.309  0.6563  0.1052  0.0133
14659SOL     OW44554   5.858   2.644   6.709 -0.3039  0.4251 -0.3397
14659SOL    HW144555   5.784   2.615   6.655 -0.3606 -1.7873  0.7870
14659SOL    HW244556   5.936   2.621   6.657 -0.3814  0.3739 -0.4331
14660SOL     OW44557   0.917   6.142   0.321  0.6701 -0.4827  0.3514
14660SOL    HW144558   0.855   6.086   0.274  0.2523 -1.0400  1.5296
14660SOL    HW244559   0.968   6.184   0.252 -1.4329  0.4864 -0.7027
14661SOL     OW44560   9.294   5.694   7.219 -0.1567 -0.3379 -0.1885
14661SOL    HW144561   9.279   5.625   7.283 -0.4121 -1.9086 -1.8612
14661SOL    HW244562   9.274   5.775   7.266  0.1021 -1.3768  1.8244
14662SOL     OW44563   7.910   5.309   6.212  0.7314  0.4132 -0.3135
14662SOL    HW144564   7.822   5.337   6.185  0.4166 -0.1775  0.0879
14662SOL    HW244565   7.969   5.361   6.158  0.1232  0.1691 -1.2375
14663SOL     OW44566   6.712   7.998   8.330 -0.8660  0.4353  0.2254
14663SOL    HW144567   6.741   8.088   8.343 -1.0288  0.4607  0.4131
14663SOL    HW244568   6.619   8.005   8.310 -1.3876  0.1690  2.3692
14664SOL     OW44569   7.364   1.976   8.632  0.3174  0.1811 -0.4398
14664SOL    HW144570   7.395   1.886   8.629  0.4563  0.2288 -0.4449
14664SOL    HW244571   7.316   1.982   8.715 -0.8605 -0.2719 -1.0823
14665SOL     OW44572   4.395   5.136   0.547 -0.1073  0.2790  0.2906
14665SOL    HW144573   4.356   5.105   0.628  0.1809 -1.9916 -0.3606
14665SOL    HW244574   4.409   5.230   0.561  1.4779 -0.3006  3.4722
14666SOL     OW44575   5.739   1.851   8.087 -0.1268  0.0925  0.3009
14666SOL    HW144576   5.689   1.846   8.006  2.1221 -1.8074 -1.0777
14666SOL    HW244577   5.717   1.772   8.135 -0.8262  0.8120  1.2060
14667SOL     OW44578   8.247   7.349   7.416  0.2544 -0.2927 -0.1253
14667SOL    HW144579   8.341   7.360   7.422  0.3414 -1.3738  0.8181
14667SOL    HW244580   8.211   7.433   7.444  0.9292 -0.3634  1.0062
14668SOL     OW44581   3.958   3.704   2.236  0.1999 -0.9406 -0.0841
14668SOL    HW144582   3.916   3.709   2.150  0.0360 -0.2535  0.0324
14668SOL    HW244583   3.938   3.616   2.268  0.1625 -1.1601 -0.6970
14669SOL     OW44584   3.265   7.745   6.656 -0.0413  0.5757  0.4074
14669SOL    HW144585   3.272   7.828   6.609 -0.0534  0.3110 -0.0701
14669SOL    HW244586   3.251   7.679   6.587 -2.3915  0.4514  0.9448
14670SOL     OW44587   5.267   3.594   1.436 -0.0408  0.2794  0.3616
14670SOL    HW144588   5.215   3.551   1.369  0.2606  1.6200 -0.7661
14670SOL    HW244589   5.210   3.598   1.512 -0.8314 -0.1403 -0.2028
14671SOL     OW44590   6.648   7.251   0.039  0.0832  0.0700  0.0144
14671SOL    HW144591   6.728   7.204   0.063  0.7819 -0.0130 -2.2299
14671SOL    HW244592   6.578   7.186   0.048  0.4870 -0.3188  0.4470
14672SOL     OW44593   8.644   6.208   0.546 -0.0850 -0.6229 -0.6238
14672SOL    HW144594   8.724   6.260   0.543  0.0609 -0.6907  1.1737
14672SOL    HW244595   8.581   6.258   0.494  0.5265  0.4858 -0.3204
14673SOL     OW44596   4.264   6.703   3.138 -0.0784  0.4845 -0.5227
14673SOL    HW144597   4.218   6.659   3.209  1.1310  0.5582  0.3286
14673SOL    HW244598   4.272   6.794   3.168  0.4184  0.5206 -0.7512
14674SOL     OW44599   8.527   8.709   2.191 -0.6166  1.0769 -0.9225
14674SOL    HW144600   8.596   8.647   2.170 -0.9863  0.0333  0.7132
14674SOL    HW244601   8.447   8.657   2.195 -0.8881  1.5560  0.8134
14675SOL     OW44602   2.855   5.112   4.850 -0.1041  0.0300 -0.0835
14675SOL    HW144603   2.815   5.128   4.936  0.0033 -2.4362  0.5107
14675SOL    HW244604   2.785   5.074   4.798 -0.0723  1.1941 -1.0187
14676SOL     OW44605   0.450   6.332   9.102  0.0803 -0.2674  0.1486
14676SOL    HW144606   0.491   6.261   9.152  0.1789  1.2148  2.2848
14676SOL    HW244607   0.503   6.409   9.120 -2.8768  1.4927  2.1089
14677SOL     OW44608   9.394   4.104   9.964 -0.4402  0.1678  0.1080
14677SOL    HW144609   9.438   4.166   9.906  2.5003 -0.6568  1.2809
14677SOL    HW244610   9.432   4.019   9.941 -3.3268 -1.0712 -0.4862
14678SOL     OW44611   5.772   4.417   2.702  0.5246 -0.4926 -0.1602
14678SOL    HW144612   5.810   4.330   2.709  0.6505 -0.5847 -1.6829
14678SOL    HW244613   5.681   4.405   2.730  0.5857 -1.0685 -0.1871
14679SOL     OW44614   1.745   1.280   4.195 -0.0805  0.2536 -0.2216
14679SOL    HW144615   1.815   1.275   4.260  0.0986  1.3882 -0.3197
14679SOL    HW244616   1.694   1.356   4.221  0.0191  0.7488 -1.4433
14680SOL     OW44617   9.076   1.986   4.476 -0.2680 -0.0751  0.0551
14680SOL    HW144618   9.151   1.936   4.510 -0.2582 -0.0978 -0.0002
14680SOL    HW244619   9.082   1.977   4.381  0.3527  0.9257 -0.0102
14681SOL     OW44620   1.890   8.010   8.478  0.0196  0.3644 -0.4604
14681SOL    HW144621   1.962   8.067   8.452  0.1973  0.4912  0.3021
14681SOL    HW244622   1.824   8.070   8.513 -0.8225  0.3449 -1.9001
14682SOL     OW44623   9.072   0.322   3.574 -0.2362 -0.2549 -0.2499
14682SOL    HW144624   9.081   0.228   3.554  0.4425 -0.2074 -0.1925
14682SOL    HW244625   9.078   0.327   3.669  1.6128  0.0172 -0.3409
14683SOL     OW44626   1.380   0.392   9.157 -0.3924  0.0738 -0.0142
14683SOL    HW144627   1.431   0.327   9.206 -0.6321 -1.7191 -1.9762
14683SOL    HW244628   1.437   0.469   9.153  0.4226 -0.4157  1.3340
14684SOL     OW44629   1.998   9.623   2.594  0.1889 -0.4468  0.0152
14684SOL    HW144630   2.075   9.668   2.630  0.4200 -0.0471 -0.9581
14684SOL    HW244631   1.994   9.651   2.503 -0.3510 -1.5060 -0.2986
14685SOL     OW44632   6.201   6.605   8.299 -0.2812  0.3997 -0.4166
14685SOL    HW144633   6.173   6.604   8.391  0.6609 -2.8198 -0.0358
14685SOL    HW244634   6.255   6.684   8.291 -2.7425  2.3703  0.9201
14686SOL     OW44635   2.364   1.760   1.447 -0.8047 -0.1918  0.0397
14686SOL    HW144636   2.444   1.711   1.427 -1.3465 -1.1730  0.2044
14686SOL    HW244637   2.395   1.838   1.492  0.2245  0.6324 -1.9813
14687SOL     OW44638   1.597   9.700   8.737 -0.1577 -0.2692 -0.4602
14687SOL    HW144639   1.520   9.752   8.713  0.1123  0.4950  0.2657
14687SOL    HW244640   1.667   9.765   8.748  1.0185 -1.0764 -2.6178
14688SOL     OW44641   4.420   4.285   8.965 -0.3406 -0.8081  0.2158
14688SOL    HW144642   4.507   4.272   8.929 -0.0722  1.5877 -0.1537
14688SOL    HW244643   4.364   4.300   8.889 -0.7767 -0.8405  0.5262
14689SOL     OW44644   8.330   0.354   2.261 -0.2652 -0.3070  0.1593
14689SOL    HW144645   8.421   0.340   2.234 -0.6752 -2.6866 -0.2854
14689SOL    HW244646   8.297   0.422   2.202  1.2941  0.8504  0.5674
14690SOL     OW44647   7.039   4.085   4.006 -0.1356  0.6854  0.1836
14690SOL    HW144648   6.997   4.164   3.972 -0.1904 -0.6873 -3.3291
14690SOL    HW244649   6.970   4.018   4.003  0.2684  0.1515  1.8129
14691SOL     OW44650   5.851   1.323   1.355  0.3749 -0.1927  0.0218
14691SOL    HW144651   5.887   1.345   1.269  0.7982 -1.0341 -0.0282
14691SOL    HW244652   5.843   1.407   1.400 -1.9924  0.5802 -1.6252
14692SOL     OW44653   5.304   1.501   4.910  0.3161  0.4433  0.6350
14692SOL    HW144654   5.225   1.544   4.875  0.2145  0.1666  0.5214
14692SOL    HW244655   5.333   1.559   4.980  0.7522  1.2210 -0.1693
14693SOL     OW44656   3.356   7.367   6.566  0.0565 -0.2212 -0.9114
14693SOL    HW144657   3.305   7.367   6.647  0.0709 -2.3104 -0.8400
14693SOL    HW244658   3.316   7.435   6.511  0.9261  2.2544  1.3197
14694SOL     OW44659   7.487   5.826   9.367  0.1025  0.3321 -0.8535
14694SOL    HW144660   7.558   5.822   9.431 -0.4354 -2.3745 -0.3212
14694SOL    HW244661   7.419   5.878   9.409  1.3088  2.0716 -0.9547
14695SOL     OW44662   2.947   4.127   7.292  0.4333 -0.2260  0.2296
14695SOL    HW144663   2.854   4.132   7.315  0.1603 -0.8929 -0.6601
14695SOL    HW244664   2.992   4.166   7.366 -0.6470  1.5511  0.0053
14696SOL     OW44665   8.606   8.733   1.117 -0.2177  0.1007 -0.5124
14696SOL    HW144666   8.661   8.724   1.195 -1.9073  1.3469  0.8876
14696SOL    HW244667   8.595   8.643   1.086 -0.6556 -0.6058  1.5282
14697SOL     OW44668   8.332   2.618   2.395  0.4073 -0.3314 -0.3753
14697SOL    HW144669   8.352   2.616   2.301 -0.5424  1.1582 -0.6487
14697SOL    HW244670   8.241   2.649   2.400 -0.3177 -2.4478  0.9824
14698SOL     OW44671   0.080   5.803   4.110  0.0463  0.3144  0.0853
14698SOL    HW144672   0.128   5.844   4.038  0.9126 -1.1162 -0.1778
14698SOL    HW244673   0.108   5.853   4.187 -0.3637  1.4175 -0.4571
14699SOL     OW44674   0.591   9.869   2.586 -0.3318  0.1605 -0.2891
14699SOL    HW144675   0.553   9.915   2.511  0.5596  3.1356  0.9758
14699SOL    HW244676   0.665   9.821   2.549 -0.8968  0.1916 -1.5389
14700SOL     OW44677   0.382   7.550   5.230 -0.2054 -0.5842  0.1013
14700SOL    HW144678   0.455   7.604   5.199  0.9176 -1.9222  0.3227
14700SOL    HW244679   0.321   7.613   5.268  0.8084  0.5889 -0.1283
14701SOL     OW44680   0.448   0.338   5.420 -0.5508  0.0748  0.1950
14701SOL    HW144681   0.459   0.275   5.491 -2.3184  1.5586  1.9133
14701SOL    HW244682   0.528   0.391   5.423 -0.1270 -0.5635  0.3318
14702SOL     OW44683   1.700   8.126   0.946  0.2068 -0.1429 -0.6240
14702SOL    HW144684   1.727   8.049   0.895 -0.9129 -0.7391 -0.3460
14702SOL    HW244685   1.650   8.179   0.885 -0.1824 -0.3084 -0.4506
14703SOL     OW44686   2.073   3.397   3.544 -0.2554  0.0894 -0.7683
14703SOL    HW144687   2.088   3.488   3.517  0.9934  1.0980  2.7554
14703SOL    HW244688   1.990   3.399   3.590 -0.3192 -0.6192 -0.8380
14704SOL     OW44689   8.095   8.263   0.402 -0.2720 -0.0826  0.0228
14704SOL    HW144690   8.018   8.208   0.416  0.4411 -0.8959  0.8418
14704SOL    HW244691   8.148   8.250   0.481  0.9018  0.1519 -0.7140
14705SOL     OW44692   9.515   2.391   1.770 -0.3583 -0.1322 -0.4264
14705SOL    HW144693   9.585   2.342   1.813 -0.5255 -1.2536 -1.3760
14705SOL    HW244694   9.435   2.355   1.807 -0.4663  0.5039 -0.0212
14706SOL     OW44695   9.114   3.411   4.678 -0.0194 -0.0462 -0.3497
14706SOL    HW144696   9.111   3.471   4.604  1.3453 -0.2496 -0.6048
14706SOL    HW244697   9.034   3.360   4.672 -0.3342  0.5349 -1.1751
14707SOL     OW44698   9.029   8.404   8.153 -0.1633  0.2165 -0.3799
14707SOL    HW144699   8.995   8.368   8.071 -1.6722  0.0220  0.2873
14707SOL    HW244700   9.082   8.479   8.127 -0.8505  0.3318 -1.5219
14708SOL     OW44701   2.520   3.529   9.851 -0.1133  0.4676 -0.0378
14708SOL    HW144702   2.515   3.434   9.855 -0.6427  0.5042  0.1266
14708SOL    HW244703   2.459   3.560   9.918  0.4916  0.9170  0.3172
14709SOL     OW44704   2.686   9.373   1.491 -0.0076  0.5871 -0.2705
14709SOL    HW144705   2.750   9.351   1.559  0.6585  1.6454 -0.5483
14709SOL    HW244706   2.716   9.456   1.455 -1.1138  0.7144 -0.9392
14710SOL     OW44707   0.758   7.169   3.074  0.2624 -0.4894 -0.2390
14710SOL    HW144708   0.774   7.141   2.984 -1.3285 -2.8638  0.1308
14710SOL    HW244709   0.747   7.264   3.068  2.2954 -0.2989 -2.1751
14711SOL     OW44710   0.485   1.772   5.484  0.0390 -0.2335  0.1710
14711SOL    HW144711   0.559   1.827   5.508 -0.3302 -0.1541  1.1952
14711SOL    HW244712   0.408   1.824   5.508 -0.4451  0.4961 -2.6216
14712SOL     OW44713   7.248   7.214   4.635 -0.5796 -0.1500  0.4678
14712SOL    HW144714   7.160   7.194   4.665 -1.0348 -0.3255 -0.9074
14712SOL    HW244715   7.236   7.281   4.567  0.4576  0.7551  1.1443
14713SOL     OW44716   7.798   7.225   8.525  0.2742 -0.0304  0.0817
14713SOL    HW144717   7.729   7.166   8.494  0.5554  0.6757 -2.0498
14713SOL    HW244718   7.757   7.274   8.596 -1.2089 -0.1531 -0.6410
14714SOL     OW44719   9.929   4.641   0.447 -0.0672  0.0187 -0.4051
14714SOL    HW144720   9.872   4.570   0.416  0.1647 -1.0019  1.3797
14714SOL    HW244721   9.916   4.642   0.542  1.9942  0.5599 -0.0905
14715SOL     OW44722   2.289   1.765   4.106 -0.5317  0.0501  0.7405
14715SOL    HW144723   2.358   1.699   4.092 -0.7778  0.0043 -0.3565
14715SOL    HW244724   2.318   1.813   4.184  2.2698  1.8863 -1.2111
14716SOL     OW44725   4.661   4.615   9.422 -0.5946  0.0002  0.2944
14716SOL    HW144726   4.583   4.671   9.427  0.3363  1.2749  1.2049
14716SOL    HW244727   4.665   4.572   9.507 -0.8183 -0.8000 -0.0926
14717SOL     OW44728   5.336   7.298   8.098 -0.2105 -0.1047 -0.4037
14717SOL    HW144729   5.402   7.337   8.156 -1.5791  0.4183  0.8539
14717SOL    HW244730   5.363   7.206   8.091 -0.3732 -0.3804  1.6829
14718SOL     OW44731   5.668   7.403   2.915  0.3924 -0.4550 -0.2519
14718SOL    HW144732   5.716   7.344   2.858 -0.4214  0.1880 -1.6611
14718SOL    HW244733   5.699   7.491   2.890  0.2888 -0.1759  0.5583
14719SOL     OW44734   2.009   1.867   4.883 -0.4136 -0.0047 -0.0259
14719SOL    HW144735   2.097   1.874   4.919 -0.4497  0.8176 -0.0697
14719SOL    HW244736   1.985   1.957   4.859 -1.1360 -0.2593 -0.3186
14720SOL     OW44737   4.765   3.716   1.748  0.4250 -0.3749 -0.3813
14720SOL    HW144738   4.772   3.650   1.817 -0.2984  0.2062  0.2645
14720SOL    HW244739   4.713   3.672   1.680 -0.3840 -0.3643  0.2053
14721SOL     OW44740   9.513   9.351   6.228 -0.4580 -0.8159  0.3629
14721SOL    HW144741   9.546   9.357   6.139 -1.1401 -1.0907  0.0870
14721SOL    HW244742   9.591   9.362   6.283  0.0075 -0.9229 -0.2651
14722SOL     OW44743   5.090   3.929   3.261  0.1759 -0.1570 -0.2270
14722SOL    HW144744   5.071   3.849   3.212  0.3712  0.1331 -0.7942
14722SOL    HW244745   5.011   3.945   3.313 -0.6467  0.3157 -1.5623
14723SOL     OW44746   6.761   8.484   0.487 -0.3280  0.2390 -1.5102
14723SOL    HW144747   6.693   8.424   0.519 -0.2465 -0.3360 -2.3655
14723SOL    HW244748   6.728   8.571   0.507  0.0002 -0.0777  0.6908
14724SOL     OW44749   2.598   7.935   5.842 -0.7497 -0.1098 -0.5052
14724SOL    HW144750   2.670   7.998   5.841 -0.6453 -0.0689  2.3416
14724SOL    HW244751   2.529   7.976   5.789  0.3881  0.9790 -1.2053
14725SOL     OW44752   7.016   9.363   3.652 -0.0527 -0.4483  0.7946
14725SOL    HW144753   7.027   9.291   3.590 -0.3370 -0.0203  0.2501
14725SOL    HW244754   6.932   9.402   3.630  0.7044  0.9200  0.1726
14726SOL     OW44755   1.140   2.919   7.747  0.6959 -0.2114  0.5913
14726SOL    HW144756   1.067   2.924   7.685  1.1524  0.0433  0.0564
14726SOL    HW244757   1.187   3.002   7.735  1.2273 -0.4835  0.7271
14727SOL     OW44758   6.130   0.559   4.206  0.1371 -0.5490 -0.1579
14727SOL    HW144759   6.196   0.605   4.155 -0.5359  1.1780  0.4582
14727SOL    HW244760   6.066   0.530   4.141 -0.1067  0.5827 -0.4471
14728SOL     OW44761   2.387   7.819   0.780 -0.3096  0.5055  0.4863
14728SOL    HW144762   2.353   7.895   0.733 -2.0793 -1.6686 -2.1025
14728SOL    HW244763   2.475   7.807   0.745 -0.6234  0.4693 -0.3174
14729SOL     OW44764   2.129   5.081   2.143  0.2117  0.5943  0.0285
14729SOL    HW144765   2.134   5.113   2.232 -3.9532  0.6982  0.4391
14729SOL    HW244766   2.116   5.160   2.090 -1.2241  0.3160 -0.0846
14730SOL     OW44767   8.911   7.208   2.279 -0.6777 -0.6958 -0.0689
14730SOL    HW144768   8.881   7.270   2.347  0.0262 -0.7122  0.2602
14730SOL    HW244769   8.836   7.200   2.220 -0.8601  0.3058  0.0067
14731SOL     OW44770   0.338   5.941   1.430  0.0382 -0.3258 -0.0612
14731SOL    HW144771   0.278   5.875   1.464  0.6254 -0.9011 -0.1149
14731SOL    HW244772   0.413   5.940   1.489  1.1014 -1.3874 -1.3487
14732SOL     OW44773   5.522   9.039   6.053  0.1223 -0.5535 -0.1215
14732SOL    HW144774   5.555   9.123   6.021  0.8282 -0.3541  1.1061
14732SOL    HW244775   5.454   9.063   6.116  2.4109 -0.7400  2.6199
14733SOL     OW44776   5.202   4.674   6.677  0.4300 -0.1831  0.2353
14733SOL    HW144777   5.278   4.723   6.707 -0.2798  0.7867  0.5070
14733SOL    HW244778   5.133   4.740   6.669  0.3497 -0.5038 -2.7974
14734SOL     OW44779   1.970   4.002   2.890 -0.4081  0.0710 -0.0150
14734SOL    HW144780   2.027   4.038   2.957  0.7703  0.1505 -1.0218
14734SOL    HW244781   2.030   3.960   2.828 -1.3755  0.8703 -1.5377
14735SOL     OW44782   0.618   7.147   4.642  0.1457  0.2225 -0.0709
14735SOL    HW144783   0.550   7.164   4.707  0.5408  0.5336  0.2637
14735SOL    HW244784   0.629   7.230   4.595  1.0498  0.4880  0.5959
14736SOL     OW44785   6.163   7.865   4.124  0.3125  0.1726 -0.3321
14736SOL    HW144786   6.141   7.791   4.181  0.1521 -1.8123 -2.7678
14736SOL    HW244787   6.081   7.913   4.113  0.4051  0.7168  1.2360
14737SOL     OW44788   1.868   2.285   0.760  0.0429 -0.0031  0.7424
14737SOL    HW144789   1.963   2.299   0.758  0.1248 -0.3243  1.7377
14737SOL    HW244790   1.845   2.292   0.853 -0.5327 -2.3771  0.8274
14738SOL     OW44791   7.436   1.146   0.166 -0.5047  0.1571  0.1261
14738SOL    HW144792   7.389   1.121   0.086  0.5882 -2.8412  0.3085
14738SOL    HW244793   7.515   1.191   0.134  0.6467 -2.2719 -0.6559
14739SOL     OW44794   5.269   1.907   9.886  0.3558 -0.2324  0.3657
14739SOL    HW144795   5.280   1.867   9.973  0.1446 -0.5626  0.2406
14739SOL    HW244796   5.179   1.885   9.861  0.4364 -0.1901  0.0370
14740SOL     OW44797   3.008   1.105   3.962  0.0124 -0.5061 -0.0173
14740SOL    HW144798   2.945   1.174   3.942  0.1055 -0.3543  0.2118
14740SOL    HW244799   3.021   1.111   4.056  0.5405 -0.3956 -0.0959
14741SOL     OW44800   6.123   9.871   4.873  0.3362  0.3981  0.1125
14741SOL    HW144801   6.100   9.786   4.835  0.6117  0.0011  0.8164
14741SOL    HW244802   6.216   9.863   4.895  0.4770  1.0401 -0.2303
14742SOL     OW44803   7.356   4.268   3.933  0.5837 -0.3419 -0.3873
14742SOL    HW144804   7.397   4.187   3.903  0.9133 -0.0939 -0.6215
14742SOL    HW244805   7.267   4.264   3.899  0.8134 -0.2792 -1.0111
14743SOL     OW44806   0.240   9.059   3.264  0.0856 -0.6546  0.2342
14743SOL    HW144807   0.316   9.003   3.279  1.2672  1.0953  1.1383
14743SOL    HW244808   0.169   9.015   3.310  1.1266 -1.1372  1.4490
14744SOL     OW44809   7.472   9.740   5.920  0.3058 -0.7589 -0.0627
14744SOL    HW144810   7.508   9.753   6.007 -1.9711 -3.3380  1.4423
14744SOL    HW244811   7.532   9.679   5.877  0.8962 -0.2701  0.0607
14745SOL     OW44812   5.051   6.859   3.788 -0.5363  0.0400 -0.0477
14745SOL    HW144813   4.984   6.810   3.742 -0.3672  0.0065 -0.2594
14745SOL    HW244814   5.047   6.947   3.751  0.2329 -0.2296 -0.7997
14746SOL     OW44815   2.440   0.135   5.012 -0.7225 -0.3203  0.2370
14746SOL    HW144816   2.497   0.140   5.089 -2.2003  0.5461  1.3163
14746SOL    HW244817   2.420   0.227   4.992 -0.3685 -0.5339 -1.2046
14747SOL     OW44818   7.115   4.115   9.259  0.2263 -0.3038  0.0201
14747SOL    HW144819   7.152   4.091   9.174  0.5682 -1.0252  0.3620
14747SOL    HW244820   7.108   4.210   9.256 -1.7307 -0.4133 -1.6410
14748SOL     OW44821   2.433   4.306   9.524  0.2618  0.2370 -0.4808
14748SOL    HW144822   2.358   4.294   9.465  0.9251  0.1592 -1.3417
14748SOL    HW244823   2.467   4.218   9.537 -2.2882 -0.3884  3.4210
14749SOL     OW44824   3.893   5.603   0.353  0.3526 -0.2905  0.0144
14749SOL    HW144825   3.814   5.582   0.402 -0.2781  1.4917 -0.1780
14749SOL    HW244826   3.897   5.699   0.353  1.3081 -0.2889 -1.8864
14750SOL     OW44827   4.322   0.707   9.391 -0.3178  0.4111 -0.3142
14750SOL    HW144828   4.305   0.731   9.482  1.3464  0.1314  0.1143
14750SOL    HW244829   4.402   0.755   9.368 -0.1707 -0.2665 -1.2933
14751SOL     OW44830   0.822   0.192   5.061 -0.5459 -0.2449  0.0581
14751SOL    HW144831   0.913   0.210   5.086 -1.0384  1.7885  0.5510
14751SOL    HW244832   0.824   0.103   5.025  1.5655 -0.3663  0.3625
14752SOL     OW44833   8.234   9.147   2.219  0.6928  0.1111 -0.5223
14752SOL    HW144834   8.254   9.186   2.134 -1.4696 -0.2547 -1.2647
14752SOL    HW244835   8.305   9.084   2.234  0.0600 -1.3698 -3.1033
14753SOL     OW44836   5.911   7.919   4.046 -0.7749  0.5850 -0.5870
14753SOL    HW144837   5.833   7.912   4.101  0.8856  0.5137  1.9097
14753SOL    HW244838   5.904   8.006   4.005 -2.2136  0.5048 -0.5501
14754SOL     OW44839   1.347   1.951   9.000  0.1635  0.5630 -0.4064
14754SOL    HW144840   1.261   1.919   9.026  0.9616 -0.9097  0.5477
14754SOL    HW244841   1.382   1.994   9.078  1.4819 -1.5182  0.2339
14755SOL     OW44842   7.115   3.266   8.394 -0.3133 -0.2865 -0.3320
14755SOL    HW144843   7.157   3.192   8.350  0.0118 -0.9988  1.1119
14755SOL    HW244844   7.183   3.334   8.397 -0.3070 -0.2653 -0.7947
14756SOL     OW44845   6.674   1.312   4.670 -0.4934  0.2146  0.4234
14756SOL    HW144846   6.633   1.239   4.624 -2.0017  0.4299  1.3744
14756SOL    HW244847   6.684   1.380   4.604 -0.0398 -0.4662 -0.2226
14757SOL     OW44848   2.555   9.654   3.746 -0.4402 -0.5669  0.0224
14757SOL    HW144849   2.523   9.738   3.712  2.7383  0.1800 -1.4964
14757SOL    HW244850   2.606   9.617   3.675 -0.2236 -2.9662  1.3210
14758SOL     OW44851   0.624   7.595   9.615 -0.6345  1.0374 -0.2683
14758SOL    HW144852   0.660   7.649   9.686  0.3160  0.8994 -0.6276
14758SOL    HW244853   0.682   7.611   9.541 -1.9682  1.6277 -1.2038
14759SOL     OW44854   8.351   4.868   8.864  0.7131 -0.8849 -0.1928
14759SOL    HW144855   8.296   4.858   8.942  2.0647 -1.1317  0.7745
14759SOL    HW244856   8.367   4.962   8.858 -1.5582 -0.5037 -1.7974
14760SOL     OW44857   7.021   8.680   9.173  0.1740  0.6527 -0.4172
14760SOL    HW144858   7.080   8.635   9.233  1.2810  0.2278 -1.7539
14760SOL    HW244859   6.953   8.615   9.153 -0.2327  0.8192  0.4009
14761SOL     OW44860   4.329   6.185   4.483  0.1454  0.0658  0.1916
14761SOL    HW144861   4.355   6.271   4.515 -0.9571  0.6122 -0.3414
14761SOL    HW244862   4.374   6.176   4.398  1.3072 -0.4565  0.8396
14762SOL     OW44863   4.865   5.207   2.036 -0.2242  0.1266 -0.4551
14762SOL    HW144864   4.923   5.132   2.049 -0.4584  0.1619  0.9284
14762SOL    HW244865   4.835   5.230   2.124 -0.7928  1.3425 -0.9418
14763SOL     OW44866   6.490   4.068   3.243  0.1616  0.0786 -0.3167
14763SOL    HW144867   6.471   3.975   3.237 -0.9547  0.1853  1.1575
14763SOL    HW244868   6.585   4.072   3.255  0.0645 -0.9918  1.1668
14764SOL     OW44869   9.476   3.030   9.367  0.1276 -0.5273 -0.1458
14764SOL    HW144870   9.450   2.944   9.334 -1.4864 -0.9130  1.9239
14764SOL    HW244871   9.466   3.088   9.292 -3.0706 -1.4015 -0.5197
14765SOL     OW44872   1.915   5.851   1.006 -0.2417 -0.2957 -0.4531
14765SOL    HW144873   1.841   5.828   0.949  0.1648 -1.1868 -0.6383
14765SOL    HW244874   1.925   5.946   0.995  0.3285 -0.5490 -2.4937
14766SOL     OW44875   6.461   4.183   1.199  0.1770  0.0440  0.7244
14766SOL    HW144876   6.484   4.094   1.172  2.0547  0.6847 -0.0036
14766SOL    HW244877   6.544   4.220   1.229 -0.2064  2.0702 -0.5734
14767SOL     OW44878   0.070   7.099   4.739 -0.6235  0.3662 -0.2185
14767SOL    HW144879   0.092   7.057   4.822 -0.2757 -0.8280 -0.8882
14767SOL    HW244880   0.154   7.108   4.694 -0.7116  1.7099 -0.1405
14768SOL     OW44881   8.451   4.311   9.414 -0.0543  0.0056 -0.2264
14768SOL    HW144882   8.518   4.379   9.413  0.8061 -0.7704 -2.8290
14768SOL    HW244883   8.374   4.353   9.374 -0.3317  0.1278  0.4120
14769SOL     OW44884   3.379   6.634   9.112  0.7043  0.3578 -0.1869
14769SOL    HW144885   3.375   6.549   9.068 -0.8837  0.8918 -1.1526
14769SOL    HW244886   3.436   6.687   9.056 -0.1380  0.5971 -0.8301
14770SOL     OW44887   0.752   9.356   8.743  0.1446 -0.2708 -0.3698
14770SOL    HW144888   0.701   9.294   8.795 -0.1398 -0.5182 -0.9341
14770SOL    HW244889   0.687   9.417   8.708  0.2573 -0.4827 -0.9516
14771SOL     OW44890   1.066   6.114   4.718  0.2378  0.0661  0.6448
14771SOL    HW144891   1.036   6.134   4.630 -0.0461 -1.9905  0.2284
14771SOL    HW244892   0.993   6.067   4.758  0.5763  0.4822  1.8044
14772SOL     OW44893   8.363   2.172   9.775  1.0461  0.0014  0.7786
14772SOL    HW144894   8.407   2.257   9.777  0.2892  0.4362 -0.2750
14772SOL    HW244895   8.316   2.171   9.692  2.5119 -2.2115 -0.1192
14773SOL     OW44896   7.753   6.345   5.972  0.0036  0.1694  0.0352
14773SOL    HW144897   7.830   6.398   5.990  0.2575 -0.3574  0.5078
14773SOL    HW244898   7.783   6.279   5.909 -0.7438  1.6608 -2.0105
14774SOL     OW44899   7.063   3.877   0.873  0.3933 -0.5364  0.4981
14774SOL    HW144900   7.055   3.784   0.895  2.6839 -0.7842  0.5348
14774SOL    HW244901   7.152   3.900   0.900 -0.2316  1.7731  0.7759
14775SOL     OW44902   0.045   0.832   1.607 -0.3114 -0.8007 -0.4397
14775SOL    HW144903  -0.020   0.789   1.663  0.7421 -1.3766  0.3627
14775SOL    HW244904  -0.008   0.879   1.542 -1.5888  0.4551  1.4248
14776SOL     OW44905   9.937   8.565   5.614 -0.7413  0.3925  0.4898
14776SOL    HW144906  10.001   8.494   5.609 -0.5084  0.6685 -1.3759
14776SOL    HW244907   9.986   8.639   5.649 -0.3768  0.2458  0.2980
14777SOL     OW44908   3.560   1.182   1.121 -0.1905 -0.0423  0.0144
14777SOL    HW144909   3.572   1.188   1.026  0.6204  2.9807  0.1970
14777SOL    HW244910   3.474   1.219   1.137  0.1775  0.6092  0.5344
14778SOL     OW44911   2.027   1.506   4.464  0.1132 -0.1041  0.5695
14778SOL    HW144912   1.968   1.446   4.510  0.3013  1.2118  2.6596
14778SOL    HW244913   2.027   1.475   4.374 -2.9324 -0.8050  0.7033
14779SOL     OW44914   2.021   1.335   4.253 -0.0289  0.0409  0.6368
14779SOL    HW144915   2.029   1.341   4.157  0.4558  0.9142  0.7231
14779SOL    HW244916   2.062   1.251   4.274  0.3429  0.0859  0.1244
14780SOL     OW44917   4.888   4.166   0.354 -0.2387 -0.0425 -0.3002
14780SOL    HW144918   4.946   4.152   0.428 -1.2456 -0.0515  0.5194
14780SOL    HW244919   4.800   4.164   0.392 -0.7797 -0.0398 -1.4970
14781SOL     OW44920   5.415   0.261   5.433 -0.5123  0.3841 -0.5764
14781SOL    HW144921   5.462   0.291   5.355 -1.8132 -0.1014 -1.5967
14781SOL    HW244922   5.350   0.200   5.399 -0.5857 -0.4795  0.9978
14782SOL     OW44923   9.201   7.440   5.813 -0.0846 -0.0335 -0.0609
14782SOL    HW144924   9.272   7.422   5.751 -1.1748 -0.8535 -1.1228
14782SOL    HW244925   9.233   7.513   5.866  1.8524 -0.8797  0.0132
14783SOL     OW44926   2.002   4.219   0.158  0.1727 -1.0565  0.3003
14783SOL    HW144927   1.925   4.194   0.209  0.4150  1.4446  2.0596
14783SOL    HW244928   1.969   4.224   0.068 -1.2432 -1.8440  0.7393
14784SOL     OW44929   6.095   3.495   8.067  0.1616  0.1088  0.6763
14784SOL    HW144930   6.133   3.473   8.152 -1.9430 -0.8798  1.4086
14784SOL    HW244931   6.001   3.483   8.078 -0.3461  1.6790 -1.3007
14785SOL     OW44932   5.240   0.911   3.278  0.2703 -0.2708 -0.3554
14785SOL    HW144933   5.241   0.845   3.208  0.0630 -1.0630  0.3709
14785SOL    HW244934   5.149   0.940   3.282  0.1177 -0.7939  0.0952
14786SOL     OW44935   1.449   2.886   9.978 -0.3942  0.4319  0.0314
14786SOL    HW144936   1.491   2.821  10.035  1.9869  2.3878  0.7068
14786SOL    HW244937   1.514   2.902   9.909 -1.3174  1.4050 -0.6379
14787SOL     OW44938   8.639   6.236   9.495 -0.6855 -0.2843  0.3728
14787SOL    HW144939   8.605   6.146   9.496  0.9093 -0.9316  0.3765
14787SOL    HW244940   8.632   6.263   9.404 -1.5281 -0.2590  0.4395
14788SOL     OW44941   6.780   5.726   1.612 -0.7786  0.3155 -0.0627
14788SOL    HW144942   6.853   5.759   1.560 -0.2658 -1.9062 -0.8779
14788SOL    HW244943   6.819   5.658   1.667 -1.8540  0.6313  1.1377
14789SOL     OW44944   2.764   0.516   4.347 -0.0433  0.5440 -0.5332
14789SOL    HW144945   2.704   0.499   4.420 -0.0209 -0.1404 -0.6604
14789SOL    HW244946   2.753   0.609   4.328 -0.2927  0.6591  0.1256
14790SOL     OW44947   4.114   2.588   6.170 -0.3335 -0.3479 -0.6129
14790SOL    HW144948   4.062   2.640   6.231  0.2363  0.4500 -0.7846
14790SOL    HW244949   4.148   2.652   6.108  1.9804 -0.6050  0.2894
14791SOL     OW44950   0.399   5.805   4.949 -0.2965  0.6815 -0.1185
14791SOL    HW144951   0.478   5.828   4.901  0.5542 -0.7318  0.5738
14791SOL    HW244952   0.428   5.794   5.040 -1.6389  1.9922  0.5204
14792SOL     OW44953   7.503   1.771   7.188  0.0866 -0.5855  0.3136
14792SOL    HW144954   7.514   1.772   7.283  0.2844 -0.1715  0.2904
14792SOL    HW244955   7.592   1.775   7.153 -0.0082 -0.1354  0.1148
14793SOL     OW44956   2.678   1.119   9.488  0.5686  0.3184 -0.4740
14793SOL    HW144957   2.588   1.085   9.485  0.7240 -0.1035 -0.4194
14793SOL    HW244958   2.708   1.101   9.577  1.2994 -1.1162 -0.9738
14794SOL     OW44959   7.397   9.003   4.637  1.1921 -0.6103 -0.1179
14794SOL    HW144960   7.446   8.989   4.555  2.3498 -0.1842  0.4750
14794SOL    HW244961   7.442   9.076   4.679  1.7120 -1.9063  1.7172
14795SOL     OW44962   4.896   9.681   3.966 -0.6049  0.1171  0.0782
14795SOL    HW144963   4.849   9.640   4.039 -1.0976  0.2964 -0.1324
14795SOL    HW244964   4.951   9.611   3.931  0.4680  0.3055  1.2900
14796SOL     OW44965   9.958   0.746   6.057  0.0529 -0.0880 -0.6484
14796SOL    HW144966   9.919   0.795   6.129 -1.4158 -1.3418 -0.5165
14796SOL    HW244967   9.923   0.788   5.978  0.9849  0.7508 -0.6357
14797SOL     OW44968   7.961   6.249   9.579  0.6302 -0.4141 -0.7385
14797SOL    HW144969   8.007   6.187   9.636 -0.1866 -0.4267 -0.0683
14797SOL    HW244970   8.027   6.279   9.518  1.7244  0.1450  0.6617
14798SOL     OW44971   5.980   7.250   8.049 -0.4066 -0.0161  0.1721
14798SOL    HW144972   6.017   7.320   7.995 -0.3833 -0.5683 -0.5471
14798SOL    HW244973   5.989   7.281   8.139  0.1203  0.6515 -0.1065
14799SOL     OW44974   7.371   5.443   4.721  0.2634  0.1126 -0.1067
14799SOL    HW144975   7.301   5.455   4.785  1.1241 -0.7536  1.0290
14799SOL    HW244976   7.451   5.461   4.769  1.0327 -2.0139 -0.4958
14800SOL     OW44977   7.027   9.154   5.543 -0.6657  0.0628 -0.2824
14800SOL    HW144978   6.946   9.181   5.587 -1.0958  0.2755 -1.1696
14800SOL    HW244979   7.024   9.199   5.458 -0.3532 -1.0860 -0.9281
14801SOL     OW44980   1.415   3.771   2.715  0.0460  0.0782  0.4575
14801SOL    HW144981   1.366   3.805   2.789 -1.7598 -1.9576  0.3060
14801SOL    HW244982   1.424   3.677   2.734 -0.0182 -0.3952 -1.6262
14802SOL     OW44983   3.042   8.594   7.876  0.4632  0.0271 -0.6157
14802SOL    HW144984   3.014   8.506   7.851 -0.0144 -0.0127  0.0172
14802SOL    HW244985   3.136   8.596   7.857  0.3142 -0.3354 -1.4154
14803SOL     OW44986   8.846   3.852   7.735  0.2632  0.4065 -0.4305
14803SOL    HW144987   8.880   3.860   7.646  0.7027  4.3371 -0.1061
14803SOL    HW244988   8.761   3.808   7.725  1.3988 -1.5043 -2.3965
14804SOL     OW44989   8.479   4.563   5.492 -0.3157 -0.4109  0.5369
14804SOL    HW144990   8.566   4.576   5.531  1.1714 -2.5853 -1.7925
14804SOL    HW244991   8.419   4.566   5.567  1.5178  2.4312  2.1046
14805SOL     OW44992   0.740   4.476   4.892 -0.0344 -0.9359 -0.3102
14805SOL    HW144993   0.750   4.539   4.820  2.2734 -1.6607 -0.7155
14805SOL    HW244994   0.647   4.453   4.892 -0.6152  1.1597 -1.2391
14806SOL     OW44995   6.630   6.038   0.922 -0.5037  0.1009 -0.1610
14806SOL    HW144996   6.653   6.092   0.997 -0.8167 -0.2829  0.2142
14806SOL    HW244997   6.692   5.965   0.925 -0.9508 -0.2728  0.1250
14807SOL     OW44998   7.158   7.925   2.746  0.3292  0.1196  0.7001
14807SOL    HW144999   7.163   8.020   2.756 -0.3087  0.2841 -0.3122
14807SOL    HW245000   7.133   7.913   2.654  1.2293 -1.0569  0.5979
14808SOL     OW45001   4.811   2.080   5.756 -0.2346  0.1075  0.0016
14808SOL    HW145002   4.835   2.168   5.786  1.5537 -0.4450  0.3129
14808SOL    HW245003   4.723   2.067   5.789 -0.2994  1.5484  0.4876
14809SOL     OW45004   9.287   2.882   2.526 -0.1230  0.1624 -0.0750
14809SOL    HW145005   9.263   2.794   2.498 -3.5340  0.9618 -0.0954
14809SOL    HW245006   9.339   2.917   2.454 -1.0757 -0.9297 -1.3385
14810SOL     OW45007   5.585   6.769   0.688 -0.3143  0.5749  1.1132
14810SOL    HW145008   5.661   6.755   0.744 -0.0152  1.7669  1.0460
14810SOL    HW245009   5.514   6.792   0.748 -0.0944  1.4577  1.0526
14811SOL     OW45010   4.772   1.846   4.617  0.6097 -0.3547 -0.0427
14811SOL    HW145011   4.826   1.891   4.681  1.1044  0.1713 -0.8023
14811SOL    HW245012   4.687   1.890   4.622  1.0151  0.5256 -0.6052
14812SOL     OW45013   8.799   7.634   1.730 -0.0188  0.4038 -0.2090
14812SOL    HW145014   8.727   7.617   1.670  0.3569 -1.3983 -0.1858
14812SOL    HW245015   8.758   7.632   1.817  0.0419 -0.5439 -0.1999
14813SOL     OW45016   1.771   7.641   0.827  0.0061  0.1785 -0.4639
14813SOL    HW145017   1.768   7.736   0.816  1.1802  0.3167  0.2075
14813SOL    HW245018   1.861   7.617   0.806 -0.0893 -0.6931  0.0626
14814SOL     OW45019   3.132   3.273   7.105  0.0591 -0.4393 -0.5322
14814SOL    HW145020   3.045   3.241   7.130 -0.5179  2.0256  0.9470
14814SOL    HW245021   3.191   3.232   7.168 -0.5225  0.5267  0.6801
14815SOL     OW45022   2.024   9.471   8.423  0.4546  0.2985  0.5494
14815SOL    HW145023   1.960   9.427   8.367 -0.7164  0.7676  1.4826
14815SOL    HW245024   1.976   9.493   8.503  1.6456  1.1161  1.0793
14816SOL     OW45025   8.114   7.595   7.480 -0.5581 -0.0306 -0.0634
14816SOL    HW145026   8.075   7.558   7.559 -1.3338  2.1835  0.6674
14816SOL    HW245027   8.187   7.649   7.512  1.1032 -1.5014 -1.1595
14817SOL     OW45028   2.200   0.197   0.255  0.0126 -0.2603 -0.3227
14817SOL    HW145029   2.245   0.258   0.197 -0.5302  0.9527  0.5063
14817SOL    HW245030   2.270   0.142   0.290  0.8358  1.3383  0.6469
14818SOL     OW45031   4.370   5.110   4.045 -0.1896 -0.0792  0.5131
14818SOL    HW145032   4.428   5.157   3.986 -0.5921 -0.9950 -0.6454
14818SOL    HW245033   4.284   5.147   4.030 -0.4937 -1.0679 -0.3385
14819SOL     OW45034   2.099   1.344   4.856 -0.9673  0.3703 -0.5019
14819SOL    HW145035   2.124   1.436   4.850 -0.4572  0.2852  0.2086
14819SOL    HW245036   2.036   1.331   4.785 -0.1710  0.9798 -1.3292
14820SOL     OW45037   0.805   0.990   5.594 -0.1959  0.1884 -0.5315
14820SOL    HW145038   0.851   0.915   5.555 -0.0565  0.0585 -0.1187
14820SOL    HW245039   0.844   1.066   5.551  1.4557  0.1780  0.8317
14821SOL     OW45040   1.399   4.475  -0.007  0.4268  0.2391 -0.2398
14821SOL    HW145041   1.448   4.470   0.075 -0.3488 -0.2632  0.2120
14821SOL    HW245042   1.407   4.387  -0.044 -1.7298 -0.4636  0.8171
14822SOL     OW45043   6.301   2.831   5.449 -0.5211 -0.5208  0.6728
14822SOL    HW145044   6.392   2.801   5.452  0.1962  1.3013 -0.8123
14822SOL    HW245045   6.279   2.831   5.356 -0.9299  1.9750  0.6888
14823SOL     OW45046   6.032   5.267   3.578  0.3368 -0.0553 -0.5876
14823SOL    HW145047   5.992   5.320   3.647  0.2207 -0.7233 -0.1310
14823SOL    HW245048   6.119   5.246   3.612  1.0121  1.2008 -1.4767
14824SOL     OW45049   9.825   8.658   4.899  0.2909 -0.0698  0.3132
14824SOL    HW145050   9.912   8.656   4.860  1.2134  0.0577  2.2596
14824SOL    HW245051   9.810   8.568   4.929  0.8052  0.4018  2.1025
14825SOL     OW45052   1.142   8.138   9.923 -0.7152  0.0180 -0.4934
14825SOL    HW145053   1.127   8.214   9.980  2.0410 -0.3308  0.8847
14825SOL    HW245054   1.219   8.161   9.871  0.1786 -1.7290 -0.0647
14826SOL     OW45055   6.808   7.057   7.779 -0.0383 -0.2657  0.4413
14826SOL    HW145056   6.872   7.116   7.738 -2.4821  1.7904 -0.7349
14826SOL    HW245057   6.784   6.996   7.709 -0.7738  0.2469  0.2314
14827SOL     OW45058   1.868   9.744   4.371 -0.0105  0.3455  0.3085
14827SOL    HW145059   1.783   9.755   4.412 -1.3050 -0.4643 -1.9512
14827SOL    HW245060   1.899   9.659   4.402 -0.8754 -0.1717 -0.1998
14828SOL     OW45061   4.105   9.204   6.847  0.2309 -0.2648 -0.3785
14828SOL    HW145062   4.110   9.294   6.880 -0.4851  0.6587 -2.5596
14828SOL    HW245063   4.017   9.175   6.871  0.5550 -0.4841  0.5545
14829SOL     OW45064   4.219   1.558   9.562 -0.0569 -0.6139 -0.6620
14829SOL    HW145065   4.227   1.653   9.561  0.3647 -0.6490 -0.8814
14829SOL    HW245066   4.180   1.536   9.477 -0.0585 -0.6439 -0.6530
14830SOL     OW45067   0.215   9.361   1.259 -0.3228 -0.1047  0.3458
14830SOL    HW145068   0.147   9.372   1.324 -0.3029  1.1260  0.1890
14830SOL    HW245069   0.173   9.381   1.175 -0.1629 -0.9287  0.0533
14831SOL     OW45070   6.953   6.582   9.098  0.4334 -0.5085 -0.1250
14831SOL    HW145071   6.919   6.636   9.027  0.2116 -0.2142  0.2016
14831SOL    HW245072   6.875   6.550   9.143  0.5756  0.0836  0.5635
14832SOL     OW45073   6.840   3.847   8.924 -0.1677 -0.3289  0.4302
14832SOL    HW145074   6.788   3.789   8.867  0.6845 -1.5895  0.8869
14832SOL    HW245075   6.800   3.933   8.912 -1.1099 -0.8800 -0.7383
14833SOL     OW45076   8.634   2.937   8.759  0.2946 -0.0345  0.0431
14833SOL    HW145077   8.705   2.986   8.800  0.3692 -0.4792  0.4569
14833SOL    HW245078   8.556   2.989   8.777  0.4819  0.3353 -0.2093
14834SOL     OW45079   6.852   7.615   4.581  0.1756 -0.2333 -0.0075
14834SOL    HW145080   6.943   7.632   4.558  0.3989 -0.7032  0.5079
14834SOL    HW245081   6.802   7.646   4.505  0.8732 -1.5619 -1.0771
14835SOL     OW45082   6.411   2.394   4.199 -0.0544  0.3410 -0.4374
14835SOL    HW145083   6.327   2.351   4.215 -1.0777  3.0228  2.2658
14835SOL    HW245084   6.391   2.462   4.135  0.3342  0.3156 -0.5920
14836SOL     OW45085   8.815   3.554   4.388  0.0193  0.5919 -0.1744
14836SOL    HW145086   8.740   3.505   4.421 -0.2663 -0.6306 -2.4740
14836SOL    HW245087   8.789   3.581   4.300  1.8969  1.0325 -0.6363
14837SOL     OW45088   0.013   5.190   1.070  0.0811 -0.2441 -0.2393
14837SOL    HW145089   0.071   5.243   1.015 -0.3971 -0.1874 -0.6916
14837SOL    HW245090  -0.061   5.247   1.090 -0.5231 -0.7889 -0.8755
14838SOL     OW45091   5.546   6.167   1.340 -0.0072  1.0366 -0.7221
14838SOL    HW145092   5.578   6.184   1.428 -1.9151  2.3515 -0.1917
14838SOL    HW245093   5.618   6.193   1.283  1.3130  0.0245  0.4320
14839SOL     OW45094   9.850   1.068   2.576  0.7116  0.1369 -0.8094
14839SOL    HW145095   9.782   1.117   2.622  0.6005 -0.3467 -0.4487
14839SOL    HW245096   9.816   1.060   2.486  0.1473 -0.3476 -0.5649
14840SOL     OW45097   1.418   9.057   4.211  0.3884 -0.0599 -0.8236
14840SOL    HW145098   1.408   9.147   4.242 -0.0193 -0.7982  1.3744
14840SOL    HW245099   1.482   9.018   4.270 -2.0993 -2.1953  0.6738
14841SOL     OW45100   0.735   9.530   5.353 -0.3483  0.1880  0.5436
14841SOL    HW145101   0.779   9.537   5.438 -1.2970  0.8318  1.0126
14841SOL    HW245102   0.780   9.593   5.297  1.4032 -1.4621  0.0273
14842SOL     OW45103   4.173   5.267   0.765 -0.0958 -0.2524 -0.5973
14842SOL    HW145104   4.266   5.288   0.774  0.0094 -0.7062 -0.5873
14842SOL    HW245105   4.137   5.277   0.854  0.0723 -0.6574 -0.4799
14843SOL     OW45106   1.782   7.739   4.210 -0.0141 -0.0652  0.1564
14843SOL    HW145107   1.835   7.767   4.136 -1.0970 -1.1431 -1.0840
14843SOL    HW245108   1.846   7.708   4.275  0.9177 -0.2357 -0.8114
14844SOL     OW45109   1.217   6.583   7.434  0.3199 -0.1929 -0.2939
14844SOL    HW145110   1.246   6.619   7.518  2.0473 -0.6282 -0.6544
14844SOL    HW245111   1.244   6.648   7.370 -1.7314  0.5289 -0.4875
14845SOL     OW45112   0.566   4.960   6.904 -0.0421 -0.5098  0.3566
14845SOL    HW145113   0.593   5.015   6.831  2.5150 -2.3176 -0.1513
14845SOL    HW245114   0.614   4.995   6.979  2.3856 -2.5278 -0.1612
14846SOL     OW45115   7.687   1.692   9.566 -0.1027 -0.0304 -0.6155
14846SOL    HW145116   7.707   1.701   9.473 -0.1027  1.3359 -0.4954
14846SOL    HW245117   7.761   1.733   9.610 -0.8416  0.7185 -0.0570
14847SOL     OW45118   6.744   3.661   7.368  0.3819 -0.7971 -0.4268
14847SOL    HW145119   6.712   3.683   7.455 -1.8860 -2.2479 -0.7984
14847SOL    HW245120   6.812   3.595   7.383  0.6239 -0.3958  0.2602
14848SOL     OW45121   7.103   2.142   0.863  0.3788  0.3988  0.1718
14848SOL    HW145122   7.168   2.186   0.808  1.4995 -0.4497  0.7750
14848SOL    HW245123   7.027   2.200   0.862  0.5568  0.6402 -1.8461
14849SOL     OW45124   0.272   1.326   1.138 -0.0937 -0.1289 -0.1432
14849SOL    HW145125   0.191   1.276   1.144 -0.6172  0.6242 -0.6720
14849SOL    HW245126   0.244   1.417   1.136  0.8989  0.2805  2.0307
14850SOL     OW45127   7.394   8.547   3.466 -0.5877 -0.2528  0.9452
14850SOL    HW145128   7.408   8.480   3.400 -2.5278 -0.2370  0.4612
14850SOL    HW245129   7.314   8.520   3.511  0.4881 -0.0706  3.0736
14851SOL     OW45130   0.622   8.895   3.079  0.0990  0.0297 -0.3690
14851SOL    HW145131   0.595   8.901   2.988  0.3982 -0.3849 -0.4869
14851SOL    HW245132   0.704   8.845   3.077 -0.1686 -0.4520  0.1702
14852SOL     OW45133   3.736   4.205   3.977 -0.1896  0.0700  0.3722
14852SOL    HW145134   3.696   4.187   3.892 -0.0357  1.4989 -0.0260
14852SOL    HW245135   3.758   4.119   4.012 -0.3282 -0.5460 -0.9959
14853SOL     OW45136   2.393   4.583   2.068 -0.7017 -0.4237  0.5299
14853SOL    HW145137   2.319   4.643   2.078 -1.0631 -0.3194 -2.0845
14853SOL    HW245138   2.386   4.552   1.978  1.6083 -1.5776  0.6851
14854SOL     OW45139   9.000   0.009   1.064  0.0242 -0.4143  0.4224
14854SOL    HW145140   8.910   0.033   1.085  0.9478  2.2654  1.8313
14854SOL    HW245141   9.010   0.031   0.972 -0.4192  0.6053  0.6019
14855SOL     OW45142   5.407   3.116  -0.011  0.3243 -0.2286 -0.1525
14855SOL    HW145143   5.349   3.045  -0.040  0.8521 -0.2031 -1.3434
14855SOL    HW245144   5.462   3.076   0.056 -1.3812 -0.1178  1.3801
14856SOL     OW45145   9.490   0.951   5.820  0.2456  0.1202 -0.3860
14856SOL    HW145146   9.421   0.886   5.814 -0.1505  0.3444  1.2375
14856SOL    HW245147   9.446   1.035   5.810  0.4447  0.2159 -0.4698
14857SOL     OW45148   2.397   7.384   4.387 -0.3334  0.2250 -0.4775
14857SOL    HW145149   2.409   7.290   4.398 -0.0301  0.2174 -0.8380
14857SOL    HW245150   2.478   7.423   4.421 -0.5990  0.3780 -0.0166
14858SOL     OW45151   6.601  -0.015   5.572  0.3547  0.6810 -0.3882
14858SOL    HW145152   6.673  -0.013   5.635  1.0009 -0.6961 -1.0534
14858SOL    HW245153   6.538   0.048   5.607  2.4018  2.9277 -0.4635
14859SOL     OW45154   0.764   0.846   6.573 -0.2181  0.0054 -0.1336
14859SOL    HW145155   0.798   0.782   6.511 -0.4119 -0.4582  0.2329
14859SOL    HW245156   0.733   0.794   6.647  1.4113  0.6146  1.0463
14860SOL     OW45157   2.166   6.136   6.862  0.1319 -0.6222  0.3365
14860SOL    HW145158   2.181   6.141   6.767 -1.2245 -0.5694  0.1044
14860SOL    HW245159   2.160   6.042   6.880 -0.8462 -0.6084  0.1415
14861SOL     OW45160   0.671   6.450   1.000 -0.7611  0.4314 -1.0403
14861SOL    HW145161   0.652   6.542   1.018 -0.2201  0.2504  0.6917
14861SOL    HW245162   0.609   6.402   1.055  1.7016 -0.1736  1.4464
14862SOL     OW45163   2.614   3.768   0.451  0.0602  0.0090  0.7763
14862SOL    HW145164   2.521   3.773   0.470  0.2840  1.1890  1.6791
14862SOL    HW245165   2.649   3.710   0.519 -0.2462 -1.9129 -0.6248
14863SOL     OW45166   9.245   5.320   3.475 -0.0556  0.4099  0.1048
14863SOL    HW145167   9.197   5.355   3.400 -1.6960  1.4948  1.5940
14863SOL    HW245168   9.226   5.226   3.474 -2.7318  0.8619  0.9357
14864SOL     OW45169   3.927   7.765   5.940  0.3991 -0.3180  0.2235
14864SOL    HW145170   3.899   7.781   6.031  0.2424  0.1825  0.0874
14864SOL    HW245171   4.021   7.783   5.940  0.6082 -1.3283  0.5209
14865SOL     OW45172   6.948   0.571   6.862  0.1876 -0.4896  0.2203
14865SOL    HW145173   6.926   0.655   6.823 -3.3210 -1.9136 -1.3332
14865SOL    HW245174   6.943   0.586   6.957 -1.4537  0.8323 -0.0371
14866SOL     OW45175   2.218   3.204   4.106 -0.7992  0.2334  0.1631
14866SOL    HW145176   2.139   3.236   4.149  0.0034  1.8067  0.5108
14866SOL    HW245177   2.236   3.268   4.038  0.8892  0.6106  0.9264
14867SOL     OW45178   4.748   6.510   9.936  0.4559  0.0838  0.0347
14867SOL    HW145179   4.663   6.502   9.979 -1.0452  0.2163 -2.6674
14867SOL    HW245180   4.764   6.604   9.933  1.0638  0.0337  1.1068
14868SOL     OW45181   3.159   5.391   0.897  0.1851  0.0852 -0.3943
14868SOL    HW145182   3.083   5.424   0.944  0.9727 -0.5683  1.4269
14868SOL    HW245183   3.217   5.467   0.889  2.2949 -0.6565  4.3784
14869SOL     OW45184   2.805   2.432   7.349 -0.5768  1.0586 -0.0091
14869SOL    HW145185   2.862   2.483   7.407  0.8283  0.5299 -0.8613
14869SOL    HW245186   2.848   2.347   7.344 -2.5406 -0.0461  0.8854
14870SOL     OW45187   4.842   4.197   6.925 -0.4333 -0.4402 -0.4686
14870SOL    HW145188   4.817   4.115   6.968 -0.1535 -0.3149 -0.0627
14870SOL    HW245189   4.772   4.258   6.948 -0.1932 -0.3234 -0.0329
14871SOL     OW45190   2.856   4.633   6.430 -0.0153  0.2535  0.1167
14871SOL    HW145191   2.839   4.727   6.424 -1.1723  0.0329 -0.3508
14871SOL    HW245192   2.770   4.595   6.448  0.5386 -0.6693  0.8669
14872SOL     OW45193   2.688   6.100   8.742 -0.2087 -0.2561  0.3474
14872SOL    HW145194   2.593   6.094   8.754 -0.6701  0.5106 -2.2138
14872SOL    HW245195   2.714   6.014   8.708 -0.3098  0.0787 -0.6009
14873SOL     OW45196   0.853   5.932   4.659  0.2395 -0.0409 -0.6042
14873SOL    HW145197   0.887   5.843   4.672  1.2451  0.1752 -1.6597
14873SOL    HW245198   0.814   5.929   4.572  0.1106  0.5132 -0.5651
14874SOL     OW45199   9.646   5.656   0.841  0.1471  0.2147  0.5298
14874SOL    HW145200   9.611   5.670   0.753  1.2571 -0.0928  0.0216
14874SOL    HW245201   9.568   5.641   0.896 -0.6769  2.0918 -0.0427
14875SOL     OW45202   5.215   3.804   9.619 -0.3046 -0.3084 -0.4862
14875SOL    HW145203   5.158   3.865   9.667 -1.4850 -0.5224 -1.5594
14875SOL    HW245204   5.227   3.845   9.533 -2.3633 -2.1660 -1.8032
14876SOL     OW45205   7.275   7.893   0.366 -0.7349  0.2491  0.2022
14876SOL    HW145206   7.300   7.803   0.389 -1.7922 -0.2173 -0.3981
14876SOL    HW245207   7.195   7.883   0.314 -0.4903  1.4983 -0.4536
14877SOL     OW45208   6.476   5.651   5.693 -0.1757 -0.4430  0.1367
14877SOL    HW145209   6.492   5.640   5.599 -0.2092  0.3226  0.0322
14877SOL    HW245210   6.483   5.563   5.729 -0.1031 -0.7373 -0.5762
14878SOL     OW45211   9.629   9.781   2.000  0.6471 -0.4860 -0.0820
14878SOL    HW145212   9.657   9.735   2.079 -0.1246 -0.2841  0.3216
14878SOL    HW245213   9.623   9.712   1.934  0.5879 -0.7880  0.2323
14879SOL     OW45214   4.066   8.248   6.925 -0.1605  0.1874  0.2825
14879SOL    HW145215   3.981   8.227   6.886  0.4198 -0.7194 -0.5366
14879SOL    HW245216   4.109   8.304   6.861  0.3710 -0.4339  0.0799
14880SOL     OW45217   0.241   4.212   4.660  0.0159  0.5902  0.3855
14880SOL    HW145218   0.336   4.218   4.667 -0.0217 -0.4307  2.2921
14880SOL    HW245219   0.208   4.270   4.729 -0.7836  1.1387 -0.4227
14881SOL     OW45220   7.809   0.468   7.560 -0.5336  0.3283  0.3125
14881SOL    HW145221   7.820   0.562   7.544  1.6037  0.5724  2.4339
14881SOL    HW245222   7.763   0.435   7.483  1.2579  2.6077 -1.9237
14882SOL     OW45223   1.474   1.291   6.335  0.2335 -0.3604 -0.1019
14882SOL    HW145224   1.548   1.347   6.354  0.9696 -1.1599 -0.5364
14882SOL    HW245225   1.402   1.327   6.387  0.6730  0.9906 -0.4062
14883SOL     OW45226   5.672   7.373   4.252 -0.7250 -0.3960  0.0817
14883SOL    HW145227   5.670   7.287   4.209 -0.2930 -0.4590  0.1891
14883SOL    HW245228   5.582   7.385   4.284 -0.4573 -1.4364  1.3067
14884SOL     OW45229   0.633   8.580   3.219  0.5963 -0.9047 -0.0216
14884SOL    HW145230   0.716   8.628   3.219 -0.7302  1.6711  1.7357
14884SOL    HW245231   0.642   8.516   3.149  4.1035 -0.8692  0.2159
14885SOL     OW45232   6.665   8.611   4.260 -0.1128  0.4417 -0.1775
14885SOL    HW145233   6.733   8.543   4.263 -0.1294  0.2695 -2.1726
14885SOL    HW245234   6.595   8.573   4.207 -2.1783  0.3556  2.3871
14886SOL     OW45235   5.477   6.275   3.639  0.0148 -0.1342  0.1260
14886SOL    HW145236   5.498   6.335   3.711 -0.4527 -1.1324  1.1111
14886SOL    HW245237   5.562   6.256   3.598  0.5431 -0.9939  1.5682
14887SOL     OW45238   3.749   3.758   8.714  0.1550 -0.2329 -0.1174
14887SOL    HW145239   3.734   3.848   8.744 -0.0979 -0.6401  1.0346
14887SOL    HW245240   3.672   3.737   8.662 -0.1372 -0.0279  0.2232
14888SOL     OW45241   4.485   9.296   4.951 -0.5494 -0.1394  0.2066
14888SOL    HW145242   4.464   9.216   5.000  1.2986 -0.3886  0.6795
14888SOL    HW245243   4.523   9.264   4.869 -1.5787  0.2771 -0.4493
14889SOL     OW45244   5.543   6.670   1.815 -0.4985 -0.7469  0.2011
14889SOL    HW145245   5.496   6.602   1.767  0.8064 -1.0841 -0.6515
14889SOL    HW245246   5.635   6.652   1.798 -0.0934  0.6801  0.7305
14890SOL     OW45247   8.235   7.120   7.202 -0.3005 -0.3411 -0.0949
14890SOL    HW145248   8.313   7.065   7.216 -0.0149 -0.1310 -0.7865
14890SOL    HW245249   8.252   7.199   7.252 -1.1073 -1.2100  1.6307
14891SOL     OW45250   1.244   6.784   2.538  0.3447  0.0889 -0.1766
14891SOL    HW145251   1.254   6.705   2.485 -1.1195 -0.2494  0.0063
14891SOL    HW245252   1.234   6.854   2.474 -0.4566 -0.1862 -0.3706
14892SOL     OW45253   6.777   4.151   4.272 -0.1138  0.4964 -0.0190
14892SOL    HW145254   6.832   4.075   4.292  0.5127  0.5742 -1.3573
14892SOL    HW245255   6.761   4.192   4.357  0.2494 -0.6484  0.6193
14893SOL     OW45256   0.444   6.762   9.813  0.3564 -0.1825  0.2981
14893SOL    HW145257   0.378   6.831   9.808  1.4821  0.8449 -1.3236
14893SOL    HW245258   0.454   6.744   9.907 -1.2765  0.5273  0.6346
14894SOL     OW45259   1.507   8.299   1.905 -0.5262  0.6438 -0.0546
14894SOL    HW145260   1.515   8.324   1.813 -1.0055  0.8114 -0.0540
14894SOL    HW245261   1.597   8.283   1.933 -0.4003  0.2531 -0.6463
14895SOL     OW45262   7.120   6.352   0.565 -0.6833 -0.4031 -0.7171
14895SOL    HW145263   7.058   6.318   0.629  0.7607 -0.4185  0.7450
14895SOL    HW245264   7.079   6.431   0.530 -2.0478 -1.1063 -0.7417
14896SOL     OW45265   9.899   6.253   1.511 -0.6188 -0.4116 -0.3116
14896SOL    HW145266   9.994   6.249   1.498 -0.5656 -1.9414  0.3436
14896SOL    HW245267   9.869   6.320   1.449  0.9296  0.4399 -0.1907
14897SOL     OW45268   2.013   8.207   6.923 -0.1388  0.3401 -0.1061
14897SOL    HW145269   2.002   8.125   6.875  1.0542  0.3706 -0.4747
14897SOL    HW245270   1.944   8.264   6.889 -0.4969 -0.2632 -0.4023
14898SOL     OW45271   1.633   6.082   9.200 -0.1215  0.1453 -0.0379
14898SOL    HW145272   1.688   6.159   9.185  0.8341 -0.4143  0.4977
14898SOL    HW245273   1.574   6.080   9.124 -0.0598  1.3116 -0.1326
14899SOL     OW45274   3.056   4.375   6.601 -0.3630  0.1399  0.4927
14899SOL    HW145275   3.000   4.297   6.592  2.4935 -1.9791 -0.3183
14899SOL    HW245276   3.059   4.391   6.695 -1.0721 -0.6437  0.6700
14900SOL     OW45277   2.339   2.512   6.089  0.7931  1.0240 -0.1961
14900SOL    HW145278   2.315   2.420   6.103  3.0953  0.7724  3.7595
14900SOL    HW245279   2.268   2.562   6.129  0.6221  0.8755 -0.3128
14901SOL     OW45280   1.516   6.706   4.509  0.3364  0.2080 -0.2061
14901SOL    HW145281   1.519   6.698   4.414 -0.1548 -1.0156 -0.1402
14901SOL    HW245282   1.434   6.751   4.527 -0.6589 -1.4779 -0.2982
14902SOL     OW45283   2.640   0.436   7.049  0.1031  0.1441 -0.2784
14902SOL    HW145284   2.610   0.461   6.962 -1.1719  1.3149  0.4627
14902SOL    HW245285   2.717   0.491   7.065  0.6837 -0.4816 -0.8742
14903SOL     OW45286   9.381   2.860   1.339 -0.0705  0.5106 -0.1579
14903SOL    HW145287   9.324   2.824   1.408 -1.6724 -0.8315 -2.0683
14903SOL    HW245288   9.327   2.923   1.293  1.1007  1.6632 -0.0060
14904SOL     OW45289   6.946   1.635   3.802  0.2603 -0.2207  0.2699
14904SOL    HW145290   6.921   1.678   3.720  0.0437  1.9347  1.3801
14904SOL    HW245291   7.017   1.689   3.836  0.3930 -1.1160  1.4611
14905SOL     OW45292   4.494   3.779   2.433 -0.1334 -0.2950  0.0341
14905SOL    HW145293   4.408   3.772   2.475 -0.7433 -1.9629 -1.3927
14905SOL    HW245294   4.498   3.869   2.401 -1.4169 -0.2546 -0.0436
14906SOL     OW45295   3.516   4.228   4.402 -0.1173  0.2103  0.0666
14906SOL    HW145296   3.553   4.311   4.373 -0.0826 -0.1895 -1.0959
14906SOL    HW245297   3.534   4.167   4.330  0.4925 -0.9907  1.1893
14907SOL     OW45298   7.596   7.547   0.804 -0.3506  0.5990  0.1664
14907SOL    HW145299   7.569   7.517   0.891  2.5972 -1.8342  0.4196
14907SOL    HW245300   7.669   7.606   0.821  1.1253 -0.9275 -0.6013
14908SOL     OW45301   9.401   2.127   0.670  0.1755 -0.0151 -0.4229
14908SOL    HW145302   9.367   2.134   0.759 -2.6608  0.5735 -1.4375
14908SOL    HW245303   9.475   2.066   0.677 -0.2726 -0.3829  2.2240
14909SOL     OW45304   7.031   4.060   0.521 -0.1177 -1.2588 -0.3258
14909SOL    HW145305   6.964   4.119   0.556  0.5802  0.0574 -1.1464
14909SOL    HW245306   6.982   3.996   0.470 -0.7705 -0.3643 -0.8477
14910SOL     OW45307   1.211   3.449   1.889  0.1071  0.1337 -0.5558
14910SOL    HW145308   1.223   3.434   1.796 -0.9875  1.4681 -0.9420
14910SOL    HW245309   1.180   3.539   1.896 -0.9612 -0.3017  0.9929
14911SOL     OW45310   8.801   6.720   6.784 -0.2940  0.5167  0.4055
14911SOL    HW145311   8.867   6.652   6.770 -0.9106 -0.6804  2.6925
14911SOL    HW245312   8.836   6.772   6.856 -0.2622  2.1159 -0.7213
14912SOL     OW45313   3.394   6.302   6.820 -0.3440 -0.0855  0.0970
14912SOL    HW145314   3.330   6.373   6.816  0.2807  0.4863 -0.0092
14912SOL    HW245315   3.395   6.266   6.732  1.0066  1.3103 -0.5125
14913SOL     OW45316   5.102   1.290   5.269 -0.1972  0.3131  0.2392
14913SOL    HW145317   5.059   1.305   5.353  0.0343  0.3774  0.3486
14913SOL    HW245318   5.106   1.376   5.228 -1.1929  0.1190 -0.2713
14914SOL     OW45319   3.773   8.819   2.765 -0.4914  0.7110  0.2262
14914SOL    HW145320   3.779   8.750   2.699  1.8159  2.2227 -1.2941
14914SOL    HW245321   3.679   8.826   2.784 -0.7748 -3.1006  0.8274
14915SOL     OW45322   7.364   7.269   3.392 -0.2887 -0.3313 -0.0005
14915SOL    HW145323   7.335   7.267   3.483  0.8281 -1.2579  0.3598
14915SOL    HW245324   7.459   7.263   3.397 -0.0671  1.4305 -1.1836
14916SOL     OW45325   5.685   8.702   2.173 -0.4418  0.0114 -0.6666
14916SOL    HW145326   5.593   8.680   2.156 -0.6710  0.6218 -0.2450
14916SOL    HW245327   5.683   8.753   2.254  0.5332 -2.0807  0.7734
14917SOL     OW45328   2.594   0.431   5.155  0.1732 -0.2035  0.0598
14917SOL    HW145329   2.663   0.405   5.094  0.9979 -0.9115  1.2281
14917SOL    HW245330   2.619   0.518   5.185  0.7905 -0.5945  0.7378
14918SOL     OW45331   4.403   9.272   5.262 -0.5542 -0.2187 -0.1080
14918SOL    HW145332   4.332   9.242   5.205 -1.1022  0.3811  0.2376
14918SOL    HW245333   4.397   9.216   5.340 -0.5718 -0.2491 -0.1315
14919SOL     OW45334   1.032   3.485   6.926  0.1821 -0.4129 -0.2504
14919SOL    HW145335   0.976   3.528   6.861 -1.2597 -0.6365  0.7871
14919SOL    HW245336   1.026   3.542   7.003  3.2273  0.7767 -0.7589
14920SOL     OW45337   7.061   4.096   8.965 -0.5583 -0.1519  0.0308
14920SOL    HW145338   7.088   4.051   8.886 -2.3352  0.3479 -0.9198
14920SOL    HW245339   6.972   4.063   8.982 -1.0894  1.4068  0.4860
14921SOL     OW45340   3.607   5.676   7.948 -0.1580  0.3014  0.0679
14921SOL    HW145341   3.669   5.625   7.896 -0.0551 -0.4388  0.8905
14921SOL    HW245342   3.592   5.623   8.026 -0.7653  1.1161  0.5217
14922SOL     OW45343   6.455   1.561   5.202 -0.6779 -0.4112  0.6770
14922SOL    HW145344   6.405   1.635   5.169 -0.8076 -0.8274 -0.0781
14922SOL    HW245345   6.389   1.504   5.242 -0.8511 -1.0204 -0.4296
14923SOL     OW45346   5.154   2.718   2.084  0.2816  0.7203 -0.2168
14923SOL    HW145347   5.133   2.675   2.001  1.6800 -0.9604  0.2493
14923SOL    HW245348   5.138   2.811   2.067  2.1040  0.6390 -2.9330
14924SOL     OW45349   2.307   3.915   1.297  0.0752  0.4388 -0.4859
14924SOL    HW145350   2.223   3.889   1.333  0.7517  0.3218  1.0544
14924SOL    HW245351   2.292   3.918   1.202 -1.6498  0.4326 -0.2473
14925SOL     OW45352   0.113   8.001   7.707 -0.2668 -0.3197 -0.4267
14925SOL    HW145353   0.159   8.062   7.764 -0.3020 -0.7049  0.0273
14925SOL    HW245354   0.181   7.964   7.651 -0.2309  0.0577 -0.6349
14926SOL     OW45355   8.742   9.856   3.163 -0.6504 -0.2920  0.6197
14926SOL    HW145356   8.721   9.774   3.207 -1.8403  0.2836  1.1608
14926SOL    HW245357   8.697   9.923   3.214 -0.2021  0.6363 -0.1706
14927SOL     OW45358   3.888   7.401   3.222 -0.1451 -0.2078 -0.3528
14927SOL    HW145359   3.933   7.482   3.199  0.5314 -0.3987  0.2488
14927SOL    HW245360   3.920   7.337   3.159  1.7387 -0.7407  1.0394
14928SOL     OW45361   1.768   1.809   9.496 -0.4301 -0.1381  0.4397
14928SOL    HW145362   1.714   1.881   9.529 -1.9690  0.4501 -2.9193
14928SOL    HW245363   1.739   1.732   9.545 -1.0981  0.9494  1.8093
14929SOL     OW45364   3.688   3.539   0.750 -0.0397 -0.2779 -0.4764
14929SOL    HW145365   3.597   3.524   0.725 -0.4467  1.3717 -0.0703
14929SOL    HW245366   3.709   3.626   0.715  0.8460  0.0843  0.8842
14930SOL     OW45367   4.630   3.586   1.526  0.2818  0.5903 -0.1784
14930SOL    HW145368   4.640   3.614   1.435  0.9302  0.3713 -0.1795
14930SOL    HW245369   4.570   3.650   1.565 -0.6544  0.2088 -0.9679
14931SOL     OW45370   2.720   1.473   0.098  0.6462  0.1905 -0.3218
14931SOL    HW145371   2.718   1.387   0.055  0.7373  0.2795 -0.5053
14931SOL    HW245372   2.629   1.489   0.124  0.2008  1.0078 -2.2313
14932SOL     OW45373   7.509   9.511   6.307 -0.2142  1.0087  0.0762
14932SOL    HW145374   7.457   9.449   6.256  0.6330 -0.3173  0.7678
14932SOL    HW245375   7.489   9.491   6.398  0.0149  1.8087  0.3106
14933SOL     OW45376   5.536   0.627   1.902  0.0278  0.3419 -0.7002
14933SOL    HW145377   5.519   0.721   1.908 -0.4417  0.2760 -0.9236
14933SOL    HW245378   5.572   0.603   1.988  0.6840  0.8276 -0.8397
14934SOL     OW45379   8.415   7.187   3.623 -0.2563 -0.2096  0.2559
14934SOL    HW145380   8.333   7.164   3.580  0.1828  1.0863 -1.4353
14934SOL    HW245381   8.416   7.283   3.622  1.3608 -0.1905 -0.0229
14935SOL     OW45382   2.338   3.662   0.744  0.1836 -0.3159 -0.2138
14935SOL    HW145383   2.253   3.682   0.783 -0.5645 -2.3291 -0.6831
14935SOL    HW245384   2.370   3.587   0.795  1.5639  0.2221 -0.2382
14936SOL     OW45385   0.998   7.449   7.948  0.2317  0.7734 -0.1869
14936SOL    HW145386   1.024   7.359   7.931 -1.5552  0.2114 -0.0802
14936SOL    HW245387   1.077   7.490   7.986  1.2804 -0.5190 -0.8947
14937SOL     OW45388   3.994   1.736   0.174  0.0259 -0.2080  0.0218
14937SOL    HW145389   4.022   1.646   0.160 -0.7596 -0.4717  0.1281
14937SOL    HW245390   4.024   1.783   0.096 -1.1750 -0.9357 -0.9069
14938SOL     OW45391   4.010   2.306   2.210 -0.0132 -0.1490 -0.2244
14938SOL    HW145392   3.928   2.314   2.160 -0.0293  0.2030 -0.1462
14938SOL    HW245393   4.029   2.395   2.238 -0.4798 -0.4701  1.1717
14939SOL     OW45394   2.797   1.787   0.447  0.2797  0.0230  0.1196
14939SOL    HW145395   2.775   1.778   0.355 -2.8449  0.7594  0.6745
14939SOL    HW245396   2.787   1.700   0.484  1.1122 -0.1864 -0.1297
14940SOL     OW45397   1.668   8.738   4.786 -0.0721  0.6975  0.1219
14940SOL    HW145398   1.644   8.782   4.705  0.6959  3.4615  1.2918
14940SOL    HW245399   1.755   8.770   4.807  0.1393 -0.6601  1.5842
14941SOL     OW45400   4.711   9.559   5.893  0.3596 -0.3140  0.1329
14941SOL    HW145401   4.756   9.475   5.886 -1.2795 -1.1707 -0.6654
14941SOL    HW245402   4.748   9.600   5.972  0.7271 -2.0650  0.9130
14942SOL     OW45403   0.461   2.717   8.106  0.2907 -0.0301 -0.1225
14942SOL    HW145404   0.431   2.732   8.016  0.5153 -0.1911 -0.2246
14942SOL    HW245405   0.553   2.692   8.097  0.3803  0.1840  0.1708
14943SOL     OW45406   0.936   2.451   1.581  0.5219  0.0093 -0.2005
14943SOL    HW145407   0.851   2.420   1.550 -0.1518  0.1264  1.4170
14943SOL    HW245408   0.997   2.429   1.511 -0.4715 -2.0515 -0.4868
14944SOL     OW45409   1.373   3.350   2.407 -0.0013  0.2225 -0.3215
14944SOL    HW145410   1.379   3.255   2.395  2.0409  0.3914 -0.9796
14944SOL    HW245411   1.308   3.378   2.342 -0.8516 -0.7368  0.0889
14945SOL     OW45412   6.928   2.562   3.708  0.2866  0.1562 -0.5065
14945SOL    HW145413   7.014   2.541   3.742 -0.2223 -0.8499  0.2180
14945SOL    HW245414   6.941   2.570   3.613  0.8266 -2.0485 -0.6817
14946SOL     OW45415   0.382   6.633   1.999 -0.0217  0.2517 -0.0247
14946SOL    HW145416   0.329   6.712   1.987 -0.2212  0.0441 -0.5522
14946SOL    HW245417   0.317   6.562   2.005  0.1869  0.0204 -0.4745
14947SOL     OW45418   1.946   4.594   5.548  0.3140 -0.3163 -0.2035
14947SOL    HW145419   1.918   4.531   5.614  0.4529 -0.8982 -0.6822
14947SOL    HW245420   2.020   4.551   5.504 -1.6223 -1.2979 -2.7357
14948SOL     OW45421   3.436   8.144   6.963 -0.4759  0.1225  0.3526
14948SOL    HW145422   3.382   8.089   6.906  0.7123  0.1182 -0.8224
14948SOL    HW245423   3.512   8.090   6.985 -0.5840  0.3717  1.3882
14949SOL     OW45424   6.591   2.090   2.855  0.3046 -0.7671 -0.3156
14949SOL    HW145425   6.619   2.063   2.942 -0.1263 -0.5910 -0.1224
14949SOL    HW245426   6.521   2.153   2.870  1.0077  0.1452 -0.7712
14950SOL     OW45427   0.147   5.547   4.229  0.3209 -0.2025 -0.0638
14950SOL    HW145428   0.145   5.620   4.166 -2.9123  0.1114  0.1962
14950SOL    HW245429   0.206   5.576   4.298 -0.6560  2.1331 -0.1026
14951SOL     OW45430   5.600   6.426   9.643  0.7395  0.3469 -0.1077
14951SOL    HW145431   5.549   6.394   9.718  0.3187 -0.2017 -0.6158
14951SOL    HW245432   5.552   6.394   9.566  0.2134  2.3140 -0.6593
14952SOL     OW45433   8.375   5.795   3.723  0.2959 -0.6580  0.6767
14952SOL    HW145434   8.448   5.774   3.782 -1.1996 -2.7101  1.9244
14952SOL    HW245435   8.302   5.743   3.756 -1.7447  1.2238 -0.6012
14953SOL     OW45436   9.937   4.306   2.528 -0.0811  0.4268  0.0097
14953SOL    HW145437   9.985   4.343   2.603 -0.8581  0.8371  0.3103
14953SOL    HW245438   9.915   4.382   2.474 -1.8059  0.4571  0.6937
14954SOL     OW45439   3.194   4.378   4.226  0.4461 -0.2933 -0.3791
14954SOL    HW145440   3.198   4.468   4.257 -0.3564 -0.3579 -0.0504
14954SOL    HW245441   3.124   4.338   4.278  1.3778 -1.3466  0.1005
14955SOL     OW45442   2.962   5.388   9.676  0.3678  0.6320 -0.2245
14955SOL    HW145443   3.033   5.423   9.729  0.7280 -0.7902  0.2796
14955SOL    HW245444   2.960   5.443   9.598  1.4546  1.2151  0.1469
14956SOL     OW45445   7.301   7.639   7.091  0.1888 -0.5712  0.1447
14956SOL    HW145446   7.303   7.720   7.040  1.4719 -0.4355  0.3768
14956SOL    HW245447   7.312   7.669   7.182  0.2447 -0.9822  0.2736
14957SOL     OW45448   1.052   9.656   8.038 -0.8660  0.1891  0.2685
14957SOL    HW145449   1.093   9.726   7.986  0.8403 -0.9300  0.0353
14957SOL    HW245450   1.049   9.692   8.127 -0.0283  0.5816  0.1497
14958SOL     OW45451   1.319   6.142   2.494 -0.0119 -0.3285 -0.1847
14958SOL    HW145452   1.243   6.087   2.473  0.0916 -1.2946  1.7053
14958SOL    HW245453   1.377   6.083   2.542  1.9484  0.4089 -1.5314
14959SOL     OW45454   1.613   9.751   2.897 -0.1665 -0.5388 -0.4439
14959SOL    HW145455   1.680   9.687   2.921 -0.0316  0.0229  0.7542
14959SOL    HW245456   1.633   9.828   2.951  0.5766  1.0920 -2.9001
14960SOL     OW45457   8.199   5.745   5.198  0.0046 -0.2909 -0.2096
14960SOL    HW145458   8.259   5.733   5.272  0.4146  0.7183 -0.3649
14960SOL    HW245459   8.112   5.739   5.237  0.2146 -0.4813  0.2361
14961SOL     OW45460   3.976   2.780   2.516 -0.6291 -0.3870  0.0675
14961SOL    HW145461   3.940   2.759   2.602 -3.0933 -0.2401 -0.8599
14961SOL    HW245462   3.944   2.868   2.497 -0.3068 -0.5050 -1.1008
14962SOL     OW45463   2.200   9.149   5.318 -0.2050  0.4287  0.3949
14962SOL    HW145464   2.144   9.110   5.250  0.8041  0.2720 -0.3812
14962SOL    HW245465   2.243   9.074   5.359  0.6429  0.6200 -0.1156
14963SOL     OW45466   2.336   3.555   6.717 -0.5228 -0.0855  0.1983
14963SOL    HW145467   2.373   3.628   6.767  1.8619 -1.0552 -0.0184
14963SOL    HW245468   2.316   3.488   6.783 -0.5204 -0.1061  0.1783
14964SOL     OW45469   5.012   4.632   0.845  0.5477  0.5686 -0.2819
14964SOL    HW145470   5.044   4.567   0.907 -1.1459  0.3033  0.3690
14964SOL    HW245471   4.916   4.623   0.848  0.2362  3.1975 -0.0276
14965SOL     OW45472   2.878   9.360   2.574  0.4546 -0.3219  0.5060
14965SOL    HW145473   2.890   9.265   2.569  2.0514 -0.1052 -0.4527
14965SOL    HW245474   2.793   9.376   2.532  1.2640 -1.1500 -1.6085
14966SOL     OW45475   4.698   8.817   0.550  0.1585 -0.2767  0.3726
14966SOL    HW145476   4.650   8.780   0.476 -1.0882  1.5178  0.2238
14966SOL    HW245477   4.778   8.764   0.555 -0.2362 -1.1524 -1.5563
14967SOL     OW45478   5.442   3.246   0.805  0.8199  0.0173 -0.5499
14967SOL    HW145479   5.465   3.332   0.770 -1.0733  0.3325 -1.1216
14967SOL    HW245480   5.437   3.189   0.729 -2.1186  0.4301 -0.7709
14968SOL     OW45481   9.075   0.613   1.904 -0.3112  0.1959 -0.1082
14968SOL    HW145482   9.092   0.689   1.960  2.7447  0.6602 -1.4586
14968SOL    HW245483   9.019   0.556   1.957  0.2265  1.7912  2.3400
14969SOL     OW45484   5.567   2.451   3.398 -0.4198  0.0381  0.3474
14969SOL    HW145485   5.534   2.385   3.459  1.0840  0.2387  1.4380
14969SOL    HW245486   5.572   2.532   3.449  0.0951  0.4037 -0.2565
14970SOL     OW45487   8.510   2.817   2.447 -0.0710 -0.2631  0.1212
14970SOL    HW145488   8.445   2.747   2.440 -0.1444 -0.3682  1.4601
14970SOL    HW245489   8.592   2.772   2.464  0.0506 -0.0589  0.0788
14971SOL     OW45490   2.089   9.277   3.759  0.1901 -0.5025  0.3362
14971SOL    HW145491   2.015   9.263   3.700 -0.4836 -0.5603  1.1580
14971SOL    HW245492   2.166   9.274   3.703 -0.4762  0.2889 -0.6581
14972SOL     OW45493   3.769   1.068   8.959 -0.0187 -0.4393 -0.2053
14972SOL    HW145494   3.718   1.102   8.886  0.2720 -1.4165 -0.8891
14972SOL    HW245495   3.855   1.048   8.921  0.7573  0.7703  0.8236
14973SOL     OW45496   4.918   6.516   2.082  0.1245 -0.2101  0.2695
14973SOL    HW145497   4.969   6.445   2.122  0.7864  0.0438 -0.1093
14973SOL    HW245498   4.961   6.531   1.998  0.0850  0.7519  0.4171
14974SOL     OW45499   1.168   3.497   5.616 -0.2422 -0.2003  0.3720
14974SOL    HW145500   1.168   3.415   5.665 -0.2561 -0.7414 -0.5103
14974SOL    HW245501   1.223   3.480   5.540  1.9496  1.4475  1.4977
14975SOL     OW45502   5.221   4.413   6.616 -0.3480  0.4136 -0.7315
14975SOL    HW145503   5.265   4.371   6.689 -2.7380  1.2987  1.3715
14975SOL    HW245504   5.243   4.506   6.624 -1.2852  0.6403 -0.5749
14976SOL     OW45505   2.850   1.665   0.777  0.0345 -0.2226 -0.8929
14976SOL    HW145506   2.928   1.713   0.749  1.3094 -0.0918  2.4452
14976SOL    HW245507   2.783   1.732   0.788 -0.0429 -0.0919 -2.0356
14977SOL     OW45508   2.239   3.249   8.822 -0.4226  0.3489 -0.3284
14977SOL    HW145509   2.229   3.330   8.871 -0.0622  0.2279 -0.0439
14977SOL    HW245510   2.217   3.180   8.885 -0.8732  0.2303 -0.6109
14978SOL     OW45511   2.395   5.274   2.579 -0.5409 -0.3037 -0.4355
14978SOL    HW145512   2.377   5.354   2.628  0.4205  0.0673 -0.6717
14978SOL    HW245513   2.430   5.213   2.644 -2.4210 -0.9759 -0.0048
14979SOL     OW45514   1.539   6.674   5.237  0.9195  0.2397 -0.3648
14979SOL    HW145515   1.483   6.640   5.307  2.4299  0.3611  0.9673
14979SOL    HW245516   1.488   6.663   5.157 -2.0698  2.6912  1.0168
14980SOL     OW45517   4.745   3.823   6.679  0.6027 -0.3884  0.4303
14980SOL    HW145518   4.676   3.885   6.654  0.3232 -1.8556 -3.1024
14980SOL    HW245519   4.816   3.878   6.712 -0.6149  1.5611 -0.0471
14981SOL     OW45520   2.018   1.637   8.430  0.6711 -0.3894 -0.3272
14981SOL    HW145521   2.101   1.592   8.448  2.0401  1.2988 -1.9712
14981SOL    HW245522   1.973   1.581   8.366  1.6370 -0.2526 -1.1577
14982SOL     OW45523   8.348   2.500   8.414 -0.4412  0.1682  0.2133
14982SOL    HW145524   8.279   2.526   8.475 -0.6173  1.9876 -0.6778
14982SOL    HW245525   8.354   2.405   8.423 -2.8967 -0.0253  0.5136
14983SOL     OW45526   8.623   5.462   2.900  0.5312 -0.6945  0.1224
14983SOL    HW145527   8.623   5.383   2.954  0.2722  0.3690  1.7296
14983SOL    HW245528   8.691   5.518   2.938  0.4822  0.0191 -0.7866
14984SOL     OW45529   7.867   4.726   6.637 -0.3484 -0.2998  0.5171
14984SOL    HW145530   7.858   4.792   6.705  0.7081  1.4643 -0.9604
14984SOL    HW245531   7.821   4.763   6.561 -0.9431 -1.9191  0.0393
14985SOL     OW45532   3.214   6.859   6.899 -0.3976 -0.3546  0.3309
14985SOL    HW145533   3.190   6.830   6.811  1.1935  0.7562 -0.5182
14985SOL    HW245534   3.296   6.812   6.918 -1.9420 -2.4667  2.2787
14986SOL     OW45535   8.213   0.584   2.153  0.0503  0.3592 -0.3127
14986SOL    HW145536   8.256   0.596   2.069  0.3217  0.1202 -0.2085
14986SOL    HW245537   8.168   0.667   2.170  1.8400  1.2348  0.3680
14987SOL     OW45538   5.677   2.768   4.707 -0.5256 -0.4355  0.3126
14987SOL    HW145539   5.690   2.787   4.801  0.1970  0.7874 -0.0034
14987SOL    HW245540   5.754   2.716   4.683  0.6127  1.3543 -0.1209
14988SOL     OW45541   6.542   7.255   3.350  0.5884  0.6078 -0.1762
14988SOL    HW145542   6.577   7.273   3.437  1.7746 -3.5606  0.4283
14988SOL    HW245543   6.618   7.229   3.298 -0.5000 -0.0400 -1.5101
14989SOL     OW45544   8.341   2.966   5.247 -0.1071  0.1557 -0.1280
14989SOL    HW145545   8.417   2.992   5.196  1.0155  2.2594  2.3462
14989SOL    HW245546   8.302   3.049   5.275 -3.7895 -0.8031 -1.7989
14990SOL     OW45547   7.922   6.169   4.707  0.3765 -0.1456  0.1164
14990SOL    HW145548   7.872   6.242   4.742 -0.3070 -1.1808  1.3999
14990SOL    HW245549   7.888   6.156   4.619 -0.4290  0.2582  0.3610
14991SOL     OW45550   5.494   3.511   6.757  0.2478  0.4873  0.1758
14991SOL    HW145551   5.561   3.454   6.720  0.1554  0.1377  0.5454
14991SOL    HW245552   5.470   3.470   6.840 -0.1005  0.8515  0.2589
14992SOL     OW45553   8.857   5.267   8.290 -0.1611  0.4589  0.4188
14992SOL    HW145554   8.793   5.236   8.227  0.3175 -1.3576  0.7853
14992SOL    HW245555   8.912   5.191   8.309  0.3098  1.2074  2.2811
14993SOL     OW45556   5.629   3.988   2.205  0.3288  0.6287 -0.3586
14993SOL    HW145557   5.594   4.062   2.253 -0.0842  0.4979 -0.4529
14993SOL    HW245558   5.605   4.005   2.114 -0.7890 -0.1758 -0.2382
14994SOL     OW45559   3.019   8.151   7.645  0.0691  0.0608  0.1673
14994SOL    HW145560   2.956   8.180   7.579 -0.1247 -1.5711 -0.4122
14994SOL    HW245561   2.965   8.118   7.716  0.2813  1.6852  1.1290
14995SOL     OW45562   4.910   5.189   6.734  0.3335 -0.6384  0.0050
14995SOL    HW145563   4.982   5.226   6.785 -1.0231  2.0056  0.1707
14995SOL    HW245564   4.863   5.133   6.796  1.8884 -2.0123  0.0197
14996SOL     OW45565   1.920   4.451   4.270  0.2132  0.4627  0.0604
14996SOL    HW145566   1.900   4.465   4.363  0.0108 -0.2714  0.1388
14996SOL    HW245567   1.979   4.523   4.247  2.1049 -0.5698  1.3703
14997SOL     OW45568   3.491   8.813   2.863  0.0247 -0.2325  0.4386
14997SOL    HW145569   3.480   8.719   2.881 -1.8899  0.3916  3.1132
14997SOL    HW245570   3.413   8.837   2.813 -0.1664  0.1958  0.9435
14998SOL     OW45571   6.462   5.464   6.336 -0.2494  0.0648 -0.2043
14998SOL    HW145572   6.399   5.461   6.407 -0.8736 -0.0638 -0.7548
14998SOL    HW245573   6.545   5.436   6.376 -0.5081  0.3543  0.5473
14999SOL     OW45574   3.654   0.714   4.723  0.0400  0.7425 -0.0356
14999SOL    HW145575   3.686   0.804   4.711  2.9017 -0.2594 -0.7469
14999SOL    HW245576   3.654   0.676   4.635 -1.5065  0.1094  0.2053
15000SOL     OW45577   8.213   2.876   8.564  0.8632 -0.1049  0.2977
15000SOL    HW145578   8.119   2.863   8.549  0.9027 -1.3468  0.9696
15000SOL    HW245579   8.231   2.964   8.530 -0.1613 -0.5489 -1.5002
15001SOL     OW45580   1.627   6.979   4.401 -0.5113  0.4870 -0.1743
15001SOL    HW145581   1.705   6.924   4.402 -0.9571 -0.1728  0.9158
15001SOL    HW245582   1.658   7.066   4.424 -0.0373  0.3190 -0.1751
15002SOL     OW45583   5.710   1.602   2.532  0.2640  0.1852 -1.1346
15002SOL    HW145584   5.754   1.633   2.611  0.3325 -1.8934 -0.3183
15002SOL    HW245585   5.782   1.577   2.474  0.1856 -0.1627 -1.0790
15003SOL     OW45586   8.691   3.291   2.271 -0.2529  0.5317 -0.1268
15003SOL    HW145587   8.650   3.236   2.205 -0.1877 -0.5065  0.6739
15003SOL    HW245588   8.689   3.239   2.351  2.9362  0.2528 -0.0920
15004SOL     OW45589   1.367   0.951   0.189  0.0071 -0.2478  0.4519
15004SOL    HW145590   1.326   0.865   0.200  0.3359 -0.4404  0.1947
15004SOL    HW245591   1.355   0.972   0.097  1.3640 -0.7725  0.1230
15005SOL     OW45592   2.913   7.940   0.707  0.4801 -0.5874  0.1275
15005SOL    HW145593   2.904   7.855   0.663  0.0662 -0.8994  0.7897
15005SOL    HW245594   2.874   8.003   0.647 -0.0909 -1.0052  0.0497
15006SOL     OW45595   1.421   0.997   9.897  0.1863 -0.4328 -0.5338
15006SOL    HW145596   1.370   1.063   9.849  0.7102 -0.1886 -0.7648
15006SOL    HW245597   1.500   0.985   9.845  0.0969 -1.2592 -0.4965
15007SOL     OW45598   1.837   7.712   3.736 -0.5363  0.3559 -0.0260
15007SOL    HW145599   1.893   7.737   3.662  0.1427 -2.5037 -0.5949
15007SOL    HW245600   1.757   7.763   3.723  1.1922  3.2967 -0.1535
15008SOL     OW45601   8.115   1.864   3.586  0.2842 -0.7818 -0.7170
15008SOL    HW145602   8.028   1.862   3.547 -1.7613  1.3138  3.1077
15008SOL    HW245603   8.132   1.957   3.601  3.6435 -1.0419 -2.0040
15009SOL     OW45604   5.556   2.465   0.737 -0.6100 -0.2453  0.0111
15009SOL    HW145605   5.548   2.560   0.726  1.0287 -0.1684 -0.7997
15009SOL    HW245606   5.649   2.448   0.731 -0.7160 -1.7495  1.8112
15010SOL     OW45607   4.728   6.299   5.773  0.3276 -0.0306 -0.1816
15010SOL    HW145608   4.686   6.271   5.692  1.2501  0.2778 -0.7929
15010SOL    HW245609   4.807   6.345   5.744 -0.0313  1.2917  0.8565
15011SOL     OW45610   0.158   2.157   8.614 -0.1553 -0.1162  0.1461
15011SOL    HW145611   0.224   2.107   8.662 -1.0782 -0.1765  1.4151
15011SOL    HW245612   0.173   2.135   8.522  1.1462 -0.6400  0.4654
15012SOL     OW45613   1.460   6.066   9.431  0.0864  0.1229 -0.2579
15012SOL    HW145614   1.541   6.037   9.474  0.5443 -0.1353 -1.2762
15012SOL    HW245615   1.485   6.078   9.340 -0.5776  1.8516 -0.2338
15013SOL     OW45616   8.369   2.900   4.467 -0.1972 -0.7070 -0.0883
15013SOL    HW145617   8.455   2.941   4.454  0.1397 -0.9233  1.3162
15013SOL    HW245618   8.349   2.915   4.559 -0.9249 -2.0587 -0.0036
15014SOL     OW45619   7.785   0.612   8.385 -0.5436 -0.2800  0.6325
15014SOL    HW145620   7.770   0.521   8.360 -0.7394  0.3583 -1.8503
15014SOL    HW245621   7.700   0.655   8.372  0.1778  0.7674 -0.9121
15015SOL     OW45622   9.675   5.442   3.370  0.0897  0.0099 -0.1432
15015SOL    HW145623   9.643   5.352   3.372 -1.3024  0.4662 -0.7444
15015SOL    HW245624   9.740   5.442   3.300  1.2503 -0.8583  0.8846
15016SOL     OW45625   0.104   8.999   7.952  0.1034  0.3760  0.2180
15016SOL    HW145626   0.111   9.060   8.025 -1.0795  0.4963  0.2572
15016SOL    HW245627   0.127   9.051   7.874  2.0802  0.0637  0.5392
15017SOL     OW45628   7.354   4.050   0.814 -0.1095 -0.4840  0.2942
15017SOL    HW145629   7.325   4.086   0.731  2.4951  1.1584 -0.0225
15017SOL    HW245630   7.433   4.000   0.792 -0.5201 -1.7126  1.5203
15018SOL     OW45631   9.779   8.274   9.747  0.0359  0.4628  0.2128
15018SOL    HW145632   9.834   8.280   9.825 -1.9568  0.5532  1.6853
15018SOL    HW245633   9.706   8.217   9.773 -0.8179  0.7191 -1.4844
15019SOL     OW45634   8.377   6.424   1.927 -0.5840 -0.4555 -0.5289
15019SOL    HW145635   8.343   6.338   1.904 -0.5385 -0.6377  0.0716
15019SOL    HW245636   8.341   6.483   1.861 -2.8053 -0.4731  0.5961
15020SOL     OW45637   6.570   4.006   3.945 -0.0963  0.3077  0.1447
15020SOL    HW145638   6.481   4.039   3.957 -0.6290 -1.5478  1.9611
15020SOL    HW245639   6.558   3.917   3.913  1.1404  0.3127 -0.3654
15021SOL     OW45640   4.088   3.237   0.393 -0.2019 -0.1114 -0.3186
15021SOL    HW145641   4.117   3.240   0.302 -1.1448  1.3076 -0.5982
15021SOL    HW245642   4.154   3.183   0.437  0.8941  0.1169 -1.6076
15022SOL     OW45643   6.545   7.942   6.059  0.3846 -0.4362  0.0153
15022SOL    HW145644   6.567   7.936   5.966 -2.2625 -0.0878 -0.7245
15022SOL    HW245645   6.452   7.966   6.059  0.1679 -1.0565  2.7612
15023SOL     OW45646   8.998   4.434   8.310  0.6577  0.5482 -1.0243
15023SOL    HW145647   8.902   4.437   8.309  0.5931  3.6553  0.9764
15023SOL    HW245648   9.021   4.382   8.233 -2.6094 -0.2461 -1.6131
15024SOL     OW45649   6.144   0.057   8.858  0.3813 -0.7442 -0.0857
15024SOL    HW145650   6.053   0.031   8.849  0.1964 -0.4935  0.9790
15024SOL    HW245651   6.165   0.101   8.776 -0.9132  0.5786  0.2586
15025SOL     OW45652   6.648   4.044   2.232  0.2486  0.0655  0.5246
15025SOL    HW145653   6.569   4.093   2.254  0.5845  0.4817  0.8325
15025SOL    HW245654   6.618   3.955   2.218 -0.5547  0.5868 -1.2408
15026SOL     OW45655   9.701   6.618   8.582  0.0078 -0.3056  0.1151
15026SOL    HW145656   9.679   6.585   8.669 -0.8416 -1.7461 -0.6117
15026SOL    HW245657   9.771   6.682   8.598 -0.9198  0.3458  1.9620
15027SOL     OW45658   3.154   2.350   2.912  0.2008  0.0988  0.5435
15027SOL    HW145659   3.128   2.258   2.923  0.7839 -0.1282  0.0793
15027SOL    HW245660   3.093   2.385   2.847 -0.9198  0.4384  1.7416
15028SOL     OW45661   2.001   8.510   4.596 -0.1142 -0.1856  0.5861
15028SOL    HW145662   2.005   8.511   4.692 -1.1625  1.6312  0.6627
15028SOL    HW245663   1.962   8.594   4.573 -2.4984 -1.6927 -1.3476
15029SOL     OW45664   3.891   2.331   8.080  0.1467  0.2576 -0.2619
15029SOL    HW145665   3.907   2.376   7.997 -1.3653 -1.0155 -1.2938
15029SOL    HW245666   3.921   2.242   8.065 -2.0015 -0.5262 -0.1603
15030SOL     OW45667   4.934   1.911   7.004 -0.5269 -0.4240 -0.6133
15030SOL    HW145668   4.961   1.928   7.094  0.3459 -2.5143 -0.4412
15030SOL    HW245669   4.876   1.835   7.010 -2.2248  0.7224 -1.6089
15031SOL     OW45670   0.350   8.678   8.002 -0.4076 -0.3247 -0.4304
15031SOL    HW145671   0.386   8.595   8.033  0.5213  0.2380  0.0348
15031SOL    HW245672   0.344   8.667   7.907  2.1484 -0.0421 -0.6981
15032SOL     OW45673   1.756   9.593   5.027  0.4386  0.0479  0.5933
15032SOL    HW145674   1.826   9.656   5.006  0.0741  0.8104  1.6246
15032SOL    HW245675   1.690   9.644   5.073 -0.7580 -0.6990 -0.2361
15033SOL     OW45676   4.200   9.901   1.436  0.0900  0.1683  0.7767
15033SOL    HW145677   4.145   9.882   1.360  1.3145 -0.1865 -0.0521
15033SOL    HW245678   4.211   9.996   1.434  0.9947  0.0724 -0.1661
15034SOL     OW45679   8.531   6.114   6.491 -0.0873  0.4114 -0.7506
15034SOL    HW145680   8.613   6.089   6.448 -2.0252 -1.8212 -3.5217
15034SOL    HW245681   8.555   6.127   6.582  3.0966 -1.5521 -1.1578
15035SOL     OW45682   5.271   9.955   0.412  0.0796 -0.0734  0.3164
15035SOL    HW145683   5.330  10.013   0.364 -0.3432 -1.0297 -1.4375
15035SOL    HW245684   5.320   9.873   0.421 -0.1876 -0.1908  0.7430
15036SOL     OW45685   4.770   4.902   3.910 -0.0389  0.3802 -0.7459
15036SOL    HW145686   4.820   4.821   3.902 -0.8238 -0.1198 -0.7798
15036SOL    HW245687   4.679   4.875   3.896 -0.4587  1.0399  0.5014
15037SOL     OW45688   8.508   9.575   6.418  0.5642  0.2765  0.4440
15037SOL    HW145689   8.540   9.665   6.407 -0.6730  0.8750  1.4840
15037SOL    HW245690   8.582   9.520   6.393  2.2515  1.5810  2.2825
15038SOL     OW45691   3.384   1.876   9.746  0.1215  0.0805 -0.3159
15038SOL    HW145692   3.365   1.958   9.792  0.1000 -0.2233  0.2305
15038SOL    HW245693   3.479   1.869   9.748  0.0866 -0.2905  0.3325
15039SOL     OW45694   6.519   0.668   4.842  0.1867  0.3995 -0.2079
15039SOL    HW145695   6.441   0.724   4.835  0.1745  0.5689  1.1212
15039SOL    HW245696   6.485   0.579   4.838  0.0101  0.4741 -0.4099
15040SOL     OW45697   0.357   0.412   7.766 -0.9311 -0.1630  0.1445
15040SOL    HW145698   0.302   0.367   7.830 -1.4899 -1.5602 -1.2525
15040SOL    HW245699   0.296   0.458   7.709 -0.5258  0.0111 -0.1604
15041SOL     OW45700   0.784   7.979   3.974 -1.1036  0.2048  0.3442
15041SOL    HW145701   0.855   7.938   4.021 -0.2432  1.9517  0.6466
15041SOL    HW245702   0.731   7.906   3.941  0.5904 -1.1189  0.4430
15042SOL     OW45703   5.876   9.167   1.857  0.1171  0.2128  0.2965
15042SOL    HW145704   5.944   9.190   1.921  0.6824  1.2341 -0.6427
15042SOL    HW245705   5.821   9.104   1.904  1.8132 -0.8279  1.0168
15043SOL     OW45706   9.616   8.921   3.038  0.0501  0.4510 -0.2443
15043SOL    HW145707   9.672   8.859   2.991 -1.3843 -0.7977 -0.3852
15043SOL    HW245708   9.654   8.925   3.126  0.8351  0.2817 -0.5649
15044SOL     OW45709   2.129   3.632   8.672 -0.4494 -0.1983 -0.3658
15044SOL    HW145710   2.225   3.636   8.666 -0.3734 -1.6768 -0.4643
15044SOL    HW245711   2.107   3.541   8.653 -1.7906 -0.1705  0.8756
15045SOL     OW45712   0.698   3.777   8.929 -0.1617  0.3965  0.0876
15045SOL    HW145713   0.687   3.712   8.859 -2.1793 -0.6404  1.2776
15045SOL    HW245714   0.760   3.840   8.893  0.9783 -1.5466 -1.5826
15046SOL     OW45715   4.339   5.805   3.358 -0.0188  0.1953 -0.2233
15046SOL    HW145716   4.391   5.753   3.418  2.5108  0.8640 -1.6710
15046SOL    HW245717   4.379   5.789   3.272 -1.5015  1.6471 -1.2475
15047SOL     OW45718   4.822   9.071   3.545  0.0098  0.2108 -0.0093
15047SOL    HW145719   4.829   8.994   3.488 -0.2666  0.6480 -0.6464
15047SOL    HW245720   4.728   9.084   3.556  0.0485  0.7313 -0.2823
15048SOL     OW45721   3.771   4.183   6.669 -0.6886 -0.2957 -0.3333
15048SOL    HW145722   3.753   4.108   6.726 -0.0090  0.2803  0.6675
15048SOL    HW245723   3.851   4.159   6.623 -1.2722 -0.7882 -1.1264
15049SOL     OW45724   9.904   6.773   6.414 -0.0723  0.1908  0.1265
15049SOL    HW145725   9.839   6.732   6.357  0.3438  0.3077 -0.4410
15049SOL    HW245726   9.890   6.867   6.402 -1.7504  0.2894  2.2440
15050SOL     OW45727   7.210   4.045   3.296  0.0776 -0.8621  0.2751
15050SOL    HW145728   7.291   4.070   3.253  0.2954 -1.0776  0.5568
15050SOL    HW245729   7.223   4.068   3.388  0.2516 -1.9094  0.5226
15051SOL     OW45730   5.608   3.369   8.563  0.2785  0.2376  0.7933
15051SOL    HW145731   5.695   3.404   8.580 -0.8595  3.1030  1.4149
15051SOL    HW245732   5.602   3.366   8.468  0.7331  1.0871  0.7222
15052SOL     OW45733   6.761   2.400   3.045 -0.2927  0.4111  0.1418
15052SOL    HW145734   6.708   2.433   2.972 -1.1619 -1.1479  0.0206
15052SOL    HW245735   6.846   2.381   3.007 -0.8611 -0.7786 -0.5970
15053SOL     OW45736   8.302   3.512   1.136 -0.2556  0.0100 -0.3719
15053SOL    HW145737   8.338   3.508   1.047 -0.6828 -0.3298 -0.5370
15053SOL    HW245738   8.284   3.421   1.159  2.7275 -0.2742  1.2983
15054SOL     OW45739   8.407   1.313   0.523  0.4580  0.1975  0.1956
15054SOL    HW145740   8.484   1.347   0.569  0.9175 -0.2560 -0.2193
15054SOL    HW245741   8.401   1.221   0.550 -0.1388  0.3138  0.4798
15055SOL     OW45742   8.017   2.996   5.601  0.0651  0.7807  0.6027
15055SOL    HW145743   8.080   3.029   5.537  0.1673  0.1218  0.3608
15055SOL    HW245744   8.046   3.035   5.684 -0.7318  2.5508  0.1019
15056SOL     OW45745   5.226   4.856   1.500  0.1470 -0.8226 -0.5221
15056SOL    HW145746   5.214   4.938   1.453  0.2932 -0.1698  0.5492
15056SOL    HW245747   5.143   4.809   1.487 -0.9794  0.6295  1.0122
15057SOL     OW45748   3.844   5.787   7.673 -0.4878 -0.5225 -0.3058
15057SOL    HW145749   3.753   5.815   7.678 -0.5380  0.0032 -2.7289
15057SOL    HW245750   3.839   5.694   7.655 -0.5569 -0.4759 -0.5330
15058SOL     OW45751   6.327   3.952   1.390 -0.1377  0.1331  0.2234
15058SOL    HW145752   6.400   3.965   1.450 -1.0649  0.7504  1.2481
15058SOL    HW245753   6.264   3.900   1.440 -0.1299 -0.9934 -0.8848
15059SOL     OW45754   1.234   8.629   4.513 -0.1146  0.1147 -0.5096
15059SOL    HW145755   1.280   8.673   4.584 -0.3411 -1.0397  0.3901
15059SOL    HW245756   1.154   8.595   4.553 -0.0042 -1.0033 -1.1744
15060SOL     OW45757   3.978   9.670   0.623 -0.5223  0.3196 -0.3549
15060SOL    HW145758   4.021   9.610   0.563 -1.3736 -2.1517  1.3722
15060SOL    HW245759   3.890   9.682   0.586  0.0228  1.5437 -1.3336
15061SOL     OW45760   3.015   9.812   8.641  0.6669 -0.4151 -0.1258
15061SOL    HW145761   2.979   9.746   8.581 -0.0332 -1.0513  0.9514
15061SOL    HW245762   3.056   9.760   8.710 -0.4255  0.2446  1.0610
15062SOL     OW45763   1.348   8.378   1.549 -0.2983 -0.3043 -0.1969
15062SOL    HW145764   1.416   8.322   1.587 -1.1157 -0.9257  0.3733
15062SOL    HW245765   1.375   8.467   1.572  0.0629 -0.5775  0.4701
15063SOL     OW45766   5.538   6.946   4.038 -0.2520 -0.1238  0.0378
15063SOL    HW145767   5.614   6.970   3.983 -0.6212 -0.4765 -0.6437
15063SOL    HW245768   5.509   7.029   4.076 -0.1139  0.1649 -0.4713
15064SOL     OW45769   5.285   5.000   6.676 -0.0966 -0.1659  0.2335
15064SOL    HW145770   5.342   5.075   6.662  1.4580 -1.6006 -1.7148
15064SOL    HW245771   5.327   4.951   6.747  1.0334 -1.0774 -1.0144
15065SOL     OW45772   8.185   5.654   3.892  0.4007 -0.4634  0.2389
15065SOL    HW145773   8.251   5.632   3.957  1.3736  1.1889 -0.1164
15065SOL    HW245774   8.113   5.692   3.941 -0.4650 -2.5200  0.6571
15066SOL     OW45775   8.026   8.813   9.537  0.3423  0.1306 -0.1698
15066SOL    HW145776   7.966   8.875   9.496  2.8527  3.2811  0.5465
15066SOL    HW245777   8.070   8.770   9.464 -2.1810 -1.8160 -0.6890
15067SOL     OW45778   0.083   3.105   4.332  0.7877  0.0931  0.2379
15067SOL    HW145779   0.043   3.191   4.316  0.7146 -0.0638 -0.4700
15067SOL    HW245780   0.009   3.044   4.329  0.6920  0.1006  1.7486
15068SOL     OW45781   5.681   3.230   7.204  0.1243  0.2395  0.4305
15068SOL    HW145782   5.719   3.242   7.291 -0.7140  1.8921  0.6091
15068SOL    HW245783   5.756   3.230   7.145  0.5581  1.8454  0.9260
15069SOL     OW45784   8.942   8.097   8.549  0.3522 -0.5439 -0.9851
15069SOL    HW145785   8.987   8.019   8.582  0.0824 -0.0011  0.7441
15069SOL    HW245786   8.857   8.064   8.518 -1.6226 -0.5180  3.6670
15070SOL     OW45787   8.486   2.999   2.876  0.1190 -0.2166 -0.2627
15070SOL    HW145788   8.568   3.050   2.880 -1.3079  2.1737  2.0382
15070SOL    HW245789   8.459   3.004   2.784  0.9510  1.7722 -0.4563
15071SOL     OW45790   9.007   6.676   1.461 -0.1234  0.2906  0.3058
15071SOL    HW145791   9.100   6.658   1.448  0.3006  1.7417  1.0339
15071SOL    HW245792   8.963   6.598   1.428  1.2318  0.3699 -1.9741
15072SOL     OW45793   4.523   0.819   5.322  0.6302  0.1752  0.0420
15072SOL    HW145794   4.478   0.875   5.384  0.0668  1.9460 -1.8405
15072SOL    HW245795   4.467   0.743   5.313  0.9835 -0.3735  2.0213
15073SOL     OW45796   2.128   2.899   9.605 -0.1111 -0.0602 -0.3634
15073SOL    HW145797   2.159   2.809   9.596 -1.8367 -0.6381 -0.9147
15073SOL    HW245798   2.141   2.938   9.519 -0.4214 -0.1449 -0.4502
15074SOL     OW45799   8.756   5.338   0.343  0.1568 -0.0598  0.0043
15074SOL    HW145800   8.719   5.250   0.338 -2.1867  0.8674 -0.0764
15074SOL    HW245801   8.681   5.395   0.355  1.7181  1.8415  1.4234
15075SOL     OW45802   4.631   5.102   0.871  0.0121 -0.6002  0.0248
15075SOL    HW145803   4.710   5.116   0.923 -0.4766  3.7364 -0.0643
15075SOL    HW245804   4.650   5.143   0.787 -2.2702  0.6478  0.0374
15076SOL     OW45805   0.706   7.526   3.810 -0.4261  0.2869  0.0353
15076SOL    HW145806   0.774   7.590   3.788 -1.1287  1.2945  0.7309
15076SOL    HW245807   0.702   7.469   3.733 -0.0414  1.3053 -0.7677
15077SOL     OW45808   7.347   2.424   6.150 -0.2587 -0.3771  0.2537
15077SOL    HW145809   7.434   2.384   6.150 -0.3739 -0.6495  0.9363
15077SOL    HW245810   7.357   2.502   6.204 -0.0962  0.3836 -0.8653
15078SOL     OW45811   0.809   0.482   0.787  0.6028  0.1591 -0.0779
15078SOL    HW145812   0.772   0.469   0.699  4.1487 -3.1974 -1.3707
15078SOL    HW245813   0.761   0.421   0.843  1.3865 -1.1990 -0.8329
15079SOL     OW45814   6.923   4.749   1.776  0.5784 -0.0017  0.0642
15079SOL    HW145815   6.985   4.793   1.718 -0.8836  0.8608 -0.9233
15079SOL    HW245816   6.973   4.728   1.854  2.4249 -0.4679 -1.1664
15080SOL     OW45817   5.560   4.240   2.326 -0.1093  0.0323  0.3739
15080SOL    HW145818   5.494   4.298   2.290 -0.1694 -0.7538 -0.8463
15080SOL    HW245819   5.543   4.240   2.421  0.2342  2.3616  0.4714
15081SOL     OW45820   5.885   5.563   6.404  0.4516 -0.4202  0.5400
15081SOL    HW145821   5.897   5.489   6.345 -1.8313 -0.7625  0.3943
15081SOL    HW245822   5.816   5.615   6.362 -0.5231 -0.1428  2.3942
15082SOL     OW45823   0.478   2.150   8.520 -0.0820 -0.2069 -0.0240
15082SOL    HW145824   0.435   2.233   8.498  0.1053 -0.5529 -1.8299
15082SOL    HW245825   0.570   2.173   8.531 -0.2232  0.0181  0.7615
15083SOL     OW45826   6.112   0.507   5.382 -0.3606  0.0826  0.0643
15083SOL    HW145827   6.153   0.450   5.447 -1.0119  2.1259  2.4357
15083SOL    HW245828   6.181   0.524   5.318  0.7103 -1.0892  0.8579
15084SOL     OW45829   7.796   9.540   8.898  0.1959 -0.1753  0.3131
15084SOL    HW145830   7.716   9.529   8.948  0.5725 -0.6156  0.8300
15084SOL    HW245831   7.821   9.632   8.914  1.2719 -0.7522  2.4439
15085SOL     OW45832   4.457   8.628   5.613  0.1412  0.2019 -0.0771
15085SOL    HW145833   4.437   8.535   5.620 -1.5102  0.6513  1.9016
15085SOL    HW245834   4.506   8.648   5.692  1.4367  0.8436 -1.0002
15086SOL     OW45835   1.324   7.159   8.125  0.0564 -0.5664  0.2950
15086SOL    HW145836   1.301   7.236   8.072  0.6432  0.3486  1.3138
15086SOL    HW245837   1.413   7.178   8.156 -0.5382 -0.6981  2.2072
15087SOL     OW45838   8.934   0.156   6.832 -0.6015  0.0529  0.0827
15087SOL    HW145839   9.025   0.128   6.819 -0.4104  1.0539 -0.8490
15087SOL    HW245840   8.930   0.244   6.794 -1.8592  0.1884  0.4914
15088SOL     OW45841   0.386   6.236   2.359  0.0679  0.1106  0.0621
15088SOL    HW145842   0.456   6.179   2.391 -0.2709 -0.7541 -0.7025
15088SOL    HW245843   0.308   6.180   2.360 -0.8601  1.3343  1.8655
15089SOL     OW45844   6.434   3.256   3.932  0.2318  0.4963 -0.2665
15089SOL    HW145845   6.386   3.180   3.964  1.2155 -0.3811 -0.8564
15089SOL    HW245846   6.444   3.312   4.009  1.1405 -0.8372  0.6226
15090SOL     OW45847   8.126   2.153   3.771  0.9365 -0.0956  0.1219
15090SOL    HW145848   8.096   2.157   3.680  0.8492 -0.6262  0.1197
15090SOL    HW245849   8.219   2.132   3.765  0.4681 -2.4597  0.1568
15091SOL     OW45850   8.345   8.065   8.850 -0.8111 -0.7116  0.3502
15091SOL    HW145851   8.271   8.040   8.795 -0.2549 -0.5251 -0.4914
15091SOL    HW245852   8.381   8.143   8.808  1.5136 -2.3115 -0.8281
15092SOL     OW45853   9.760   8.776   5.898  0.1006  0.1991 -0.1942
15092SOL    HW145854   9.775   8.688   5.934  1.5171  0.7102  0.5312
15092SOL    HW245855   9.749   8.762   5.804 -0.4280 -0.8238  0.0021
15093SOL     OW45856   8.280   3.235   9.663 -0.4135 -0.3881  0.3387
15093SOL    HW145857   8.275   3.158   9.721  1.7713 -1.4239 -0.7424
15093SOL    HW245858   8.310   3.200   9.579 -2.6393  1.2064 -1.2286
15094SOL     OW45859   5.399   8.603   4.472 -0.2876  0.6531  0.6091
15094SOL    HW145860   5.352   8.548   4.535  0.5464  0.7762  1.3512
15094SOL    HW245861   5.366   8.691   4.487 -1.4360  0.4242 -0.4051
15095SOL     OW45862   6.552   3.489   2.532  0.6208 -0.0232 -0.3548
15095SOL    HW145863   6.566   3.584   2.536 -0.0469  0.0576  0.1620
15095SOL    HW245864   6.493   3.470   2.604  2.0088 -1.0803  0.5661
15096SOL     OW45865   8.571   0.027   3.345 -0.3261 -0.2894  0.5908
15096SOL    HW145866   8.480   0.057   3.345 -1.2256 -2.6917 -1.2723
15096SOL    HW245867   8.567  -0.065   3.372  1.7502 -0.1069  1.7679
15097SOL     OW45868   4.532   5.608   5.802  0.5012 -0.4381  0.3618
15097SOL    HW145869   4.557   5.571   5.717 -0.1941 -2.9376  1.1503
15097SOL    HW245870   4.590   5.684   5.813 -0.2126  0.7232 -2.8387
15098SOL     OW45871   9.426   8.324   1.682  0.2235  0.0292  0.3622
15098SOL    HW145872   9.352   8.351   1.627 -0.4172 -0.7720  0.8121
15098SOL    HW245873   9.427   8.387   1.754 -1.1315 -0.9736  1.2974
15099SOL     OW45874   2.057   4.722   2.654 -0.0728 -0.5801  0.1549
15099SOL    HW145875   1.993   4.672   2.704  0.4287  0.0205  1.4332
15099SOL    HW245876   2.009   4.751   2.576 -2.2917  2.1640  2.2932
15100SOL     OW45877   4.282   3.854   9.636  0.2876  0.0092  0.1035
15100SOL    HW145878   4.235   3.862   9.719 -0.5400 -1.7557 -0.1654
15100SOL    HW245879   4.342   3.781   9.649  0.4100 -0.0494 -0.7490
15101SOL     OW45880   3.007   5.691   2.998 -0.3079  0.4672  0.7317
15101SOL    HW145881   2.987   5.646   3.080 -1.5630 -2.5222 -1.0640
15101SOL    HW245882   2.930   5.744   2.980 -0.8791 -0.4349  0.5072
15102SOL     OW45883   3.653   5.235   4.733  0.5155 -0.1272  0.6358
15102SOL    HW145884   3.661   5.140   4.730  0.9848 -0.0889  0.5330
15102SOL    HW245885   3.560   5.252   4.723  0.3055 -0.6163  1.6135
15103SOL     OW45886   0.063   1.823   0.534  0.3301  0.2069  0.5645
15103SOL    HW145887   0.022   1.739   0.552  0.3930  0.0752  0.1024
15103SOL    HW245888   0.041   1.842   0.443  0.5891  0.5347  0.5666
15104SOL     OW45889   1.398   6.801   6.459  0.3632  0.2803  0.5006
15104SOL    HW145890   1.427   6.885   6.423 -2.3314  1.0280 -0.1157
15104SOL    HW245891   1.413   6.738   6.389 -0.4582  0.8448 -0.1962
15105SOL     OW45892   3.636   7.499   2.017  0.7086  0.0484  0.3842
15105SOL    HW145893   3.689   7.437   2.068 -0.8479 -0.8035  1.0436
15105SOL    HW245894   3.630   7.577   2.073  2.3032  0.6741 -0.2577
15106SOL     OW45895   2.401   1.567   3.509 -0.4908  0.4960  0.0555
15106SOL    HW145896   2.336   1.611   3.564 -1.8551 -0.3442 -0.8200
15106SOL    HW245897   2.426   1.490   3.560 -1.6178 -0.1850 -0.3728
15107SOL     OW45898   4.811   9.486   8.950  0.3763 -0.1643  0.4344
15107SOL    HW145899   4.878   9.533   8.899 -0.3008  0.0027 -0.3296
15107SOL    HW245900   4.737   9.546   8.952  0.5652  0.0570  2.1173
15108SOL     OW45901   9.393   2.798   9.244 -0.5733  0.3170  0.1455
15108SOL    HW145902   9.410   2.741   9.318 -2.1196  0.2591  0.4793
15108SOL    HW245903   9.412   2.744   9.167  0.9175  0.3400  0.4546
15109SOL     OW45904   5.388   7.598   5.356  0.5275 -0.1510 -0.3971
15109SOL    HW145905   5.361   7.555   5.438  3.1505 -0.8429  0.2314
15109SOL    HW245906   5.349   7.685   5.360 -0.0681 -0.4557  1.2056
15110SOL     OW45907   7.111   9.627   4.466  0.2755  0.3538 -0.1179
15110SOL    HW145908   7.035   9.650   4.520 -0.5996 -1.4235 -0.5002
15110SOL    HW245909   7.171   9.583   4.526 -0.5213 -1.2561 -0.4143
15111SOL     OW45910   2.980   3.324   3.447 -0.0499 -0.1439 -0.1777
15111SOL    HW145911   2.946   3.238   3.422  0.2874  0.1222 -1.6625
15111SOL    HW245912   2.927   3.386   3.396  1.7243  0.3458 -1.5235
15112SOL     OW45913   3.206   9.751   1.717  0.2358 -0.1624  0.1683
15112SOL    HW145914   3.273   9.725   1.654  0.1121  0.3022 -0.1613
15112SOL    HW245915   3.167   9.669   1.746  0.9458 -0.4376  0.3656
15113SOL     OW45916   3.127   3.329   5.960 -0.5703  0.2140  0.5395
15113SOL    HW145917   3.093   3.351   5.873  1.6976  2.0364  0.0201
15113SOL    HW245918   3.221   3.348   5.955 -0.3173  0.1259  3.3258
15114SOL     OW45919   7.073   6.276   2.399  0.9186  0.1125 -0.3287
15114SOL    HW145920   7.138   6.256   2.466  1.2072  0.0489 -0.6226
15114SOL    HW245921   6.988   6.265   2.442  1.0334 -2.0684 -0.5653
15115SOL     OW45922   0.580   0.414   8.276 -0.5631  0.3875  0.2567
15115SOL    HW145923   0.533   0.457   8.205 -2.6764 -0.9632  0.7656
15115SOL    HW245924   0.649   0.476   8.300 -1.0394  1.7231 -1.6325
15116SOL     OW45925   8.928   6.638   2.934  0.2690  0.1491  0.3949
15116SOL    HW145926   8.927   6.701   2.862 -2.8624  1.1056  1.1156
15116SOL    HW245927   8.943   6.554   2.891 -0.1747  0.8348 -1.2071
15117SOL     OW45928   4.657   2.274   2.606  0.6489  0.1377  0.2634
15117SOL    HW145929   4.726   2.284   2.672  2.2254  1.3135 -1.4206
15117SOL    HW245930   4.606   2.355   2.612 -0.5460 -0.6717  1.4137
15118SOL     OW45931   5.808   7.777   8.753  0.4170  0.0133  0.6090
15118SOL    HW145932   5.729   7.778   8.698  1.9653 -1.7969 -1.8386
15118SOL    HW245933   5.783   7.726   8.830 -0.5613 -1.4312 -0.6041
15119SOL     OW45934   5.847   9.086   2.889 -0.0207 -0.4821  0.1544
15119SOL    HW145935   5.804   9.171   2.887  0.6296 -0.1555 -1.9096
15119SOL    HW245936   5.859   9.067   2.982  0.2313  1.8884  0.6588
15120SOL     OW45937   8.737   6.815   5.445 -0.2244 -0.0855 -0.2084
15120SOL    HW145938   8.741   6.795   5.352 -2.4119 -0.1227 -0.3418
15120SOL    HW245939   8.677   6.889   5.452 -0.2591 -0.2116  1.1872
15121SOL     OW45940   0.366   4.929   5.235  0.3980 -0.1311 -0.0236
15121SOL    HW145941   0.338   4.992   5.168  0.6464  0.1188  0.1050
15121SOL    HW245942   0.365   4.980   5.317  2.0953  0.1438 -0.1387
15122SOL     OW45943   5.050   3.140   4.870  0.3133  0.4988  0.1918
15122SOL    HW145944   5.063   3.178   4.783 -1.8669  0.7373 -0.0925
15122SOL    HW245945   5.039   3.046   4.853 -0.6867  0.6147  0.0931
15123SOL     OW45946   2.359   0.812   6.790  0.0183  0.1440  0.3953
15123SOL    HW145947   2.304   0.874   6.838 -1.1657 -1.0642  0.6652
15123SOL    HW245948   2.443   0.856   6.782 -0.7934  1.7899  0.5367
15124SOL     OW45949   3.156   8.862   7.009  0.0686 -0.2678 -0.2974
15124SOL    HW145950   3.231   8.815   6.974  0.6721  1.1149 -0.9509
15124SOL    HW245951   3.165   8.856   7.104 -0.4769 -2.3448 -0.3175
15125SOL     OW45952   9.024   6.360   5.113 -0.3147 -0.3958  0.5154
15125SOL    HW145953   9.091   6.412   5.157  1.0757 -1.3902 -0.3393
15125SOL    HW245954   8.987   6.420   5.048  1.6002 -0.5575 -0.7874
15126SOL     OW45955   8.121   4.413   2.391 -0.3893  0.2837  0.5713
15126SOL    HW145956   8.068   4.486   2.423 -1.3985 -0.7763  1.3975
15126SOL    HW245957   8.118   4.348   2.461 -0.6017 -1.1019 -0.6732
15127SOL     OW45958   1.652   5.624   2.298  0.8838  0.2975 -0.4316
15127SOL    HW145959   1.580   5.685   2.282  1.1899  0.7206 -0.2464
15127SOL    HW245960   1.719   5.678   2.341  1.8239  0.2351 -1.7530
15128SOL     OW45961   7.849   4.440   9.059 -0.3936 -0.4461  0.1140
15128SOL    HW145962   7.782   4.506   9.076 -0.5017 -0.7569  0.9481
15128SOL    HW245963   7.824   4.366   9.113  0.2918 -0.7928 -0.0282
15129SOL     OW45964   2.571   2.478   8.478  0.1778  0.1683 -0.0420
15129SOL    HW145965   2.577   2.428   8.396 -0.2961  1.2418 -0.7524
15129SOL    HW245966   2.540   2.414   8.543  0.3548 -0.6493 -0.7423
15130SOL     OW45967   6.723   0.975   9.197  0.3370  0.8101  0.1632
15130SOL    HW145968   6.662   1.047   9.213  0.1050  0.3677  1.4407
15130SOL    HW245969   6.688   0.929   9.121 -0.0841  1.4414 -0.0296
15131SOL     OW45970   6.762   8.292   0.259 -0.4112 -0.2324  0.7376
15131SOL    HW145971   6.747   8.357   0.328 -0.1370  2.8653 -1.8582
15131SOL    HW245972   6.856   8.300   0.240 -0.5008 -0.9599 -0.0494
15132SOL     OW45973   3.355   2.895   3.761  0.6181 -0.3024 -0.4098
15132SOL    HW145974   3.294   2.823   3.779  0.3974  0.1662  0.8201
15132SOL    HW245975   3.435   2.852   3.732  0.0544 -0.9752 -1.0231
15133SOL     OW45976   6.133   2.590   9.103 -0.2379 -0.3054 -0.0587
15133SOL    HW145977   6.072   2.518   9.084 -0.7366  0.1481 -0.1819
15133SOL    HW245978   6.077   2.667   9.113  0.4216  0.4024 -1.5840
15134SOL     OW45979   6.544   6.760   1.883  0.1965  0.3085  0.3120
15134SOL    HW145980   6.597   6.838   1.900  1.3161 -0.5144  0.7192
15134SOL    HW245981   6.600   6.703   1.830 -0.9996  0.2112 -0.9299
15135SOL     OW45982   0.696   1.728   2.878 -0.0951 -0.2033 -0.1517
15135SOL    HW145983   0.720   1.781   2.802  0.3999 -1.0587 -0.6091
15135SOL    HW245984   0.776   1.726   2.932 -0.1662 -0.3340 -0.0503
15136SOL     OW45985   4.773   6.622   8.631  0.2325  0.1736  0.5153
15136SOL    HW145986   4.725   6.664   8.702  0.1625  0.4451  0.3109
15136SOL    HW245987   4.714   6.628   8.556  0.0301 -0.7033  0.5913
15137SOL     OW45988   6.506   0.922   0.878 -0.6624 -0.2517  0.1460
15137SOL    HW145989   6.441   0.905   0.810 -0.1111 -2.9001  0.1742
15137SOL    HW245990   6.560   0.844   0.879  0.8798  0.7636  1.9737
15138SOL     OW45991   2.474   6.873   7.307  0.0578 -0.0650 -0.3613
15138SOL    HW145992   2.472   6.868   7.212 -1.8733  1.5655 -0.4594
15138SOL    HW245993   2.539   6.940   7.327  0.5754 -0.5163 -0.4934
15139SOL     OW45994   1.711   9.474   7.708  0.7430  0.1058  0.7022
15139SOL    HW145995   1.743   9.384   7.701  0.7369  0.1927 -0.5411
15139SOL    HW245996   1.787   9.529   7.687 -0.3035  0.3085 -3.2912
15140SOL     OW45997   2.631   5.432   0.761  0.4753  0.5908 -0.1411
15140SOL    HW145998   2.649   5.518   0.723  2.0000 -0.0135 -0.8344
15140SOL    HW245999   2.536   5.421   0.751  0.3357  1.9786 -0.4939
15141SOL     OW46000   3.724   5.903   5.549  0.4203 -0.0710  0.4213
15141SOL    HW146001   3.708   5.856   5.467  2.2892  1.0055 -0.6107
15141SOL    HW246002   3.746   5.992   5.522  0.1486  0.5656  2.1651
15142SOL     OW46003   1.924   0.243   7.756  0.3430 -0.1607 -0.7651
15142SOL    HW146004   1.848   0.273   7.807  0.1199 -0.8960 -0.6519
15142SOL    HW246005   2.000   0.270   7.808  0.2390  1.9510 -1.6149
15143SOL     OW46006   0.551   2.959   6.302 -0.0957 -0.7794 -0.0761
15143SOL    HW146007   0.573   3.042   6.259 -3.2234  0.7109  0.8688
15143SOL    HW246008   0.612   2.952   6.375  1.4543 -0.3473 -1.2705
15144SOL     OW46009   3.444   3.230   3.717  0.3233 -0.4377 -0.0863
15144SOL    HW146010   3.401   3.271   3.642  0.1073 -0.1791  0.1802
15144SOL    HW246011   3.398   3.147   3.729  1.3356 -1.2052 -1.1909
15145SOL     OW46012   8.560   9.849   6.264 -0.6619  0.2055 -0.1364
15145SOL    HW146013   8.493   9.897   6.313  0.4031  1.3009  0.2854
15145SOL    HW246014   8.526   9.846   6.174 -1.9931 -0.6420  0.3513
15146SOL     OW46015   8.883   3.660   7.942 -0.1257 -0.6060 -0.4048
15146SOL    HW146016   8.832   3.710   8.005  0.2607 -0.6032 -0.0876
15146SOL    HW246017   8.874   3.708   7.860  3.2376  2.2117  0.6274
15147SOL     OW46018   0.976   1.217   5.974  0.4243 -0.0486 -0.0748
15147SOL    HW146019   0.986   1.188   6.065 -1.7713  1.4439  0.7235
15147SOL    HW246020   0.985   1.137   5.922 -0.5994 -1.3530  1.6495
15148SOL     OW46021   4.006   7.027   4.170 -0.3101 -0.4055 -0.2965
15148SOL    HW146022   3.979   7.119   4.168  0.1853 -0.2693 -1.2751
15148SOL    HW246023   4.067   7.022   4.243 -1.8748 -0.4280  1.0874
15149SOL     OW46024   5.788   0.388   0.598  0.3993  0.1943 -0.9200
15149SOL    HW146025   5.723   0.335   0.645  0.4753  2.4662  2.0078
15149SOL    HW246026   5.737   0.439   0.536 -0.5760  1.1027  0.5455
15150SOL     OW46027   9.359   9.142   4.309 -0.1457 -0.0933  0.0274
15150SOL    HW146028   9.301   9.215   4.291 -1.3830 -0.8016  0.9678
15150SOL    HW246029   9.379   9.104   4.224  1.6956  2.1374 -0.6529
15151SOL     OW46030   3.230   2.581   0.878  0.3654 -0.4836 -0.7171
15151SOL    HW146031   3.288   2.534   0.817  0.3848  0.8351 -1.7680
15151SOL    HW246032   3.166   2.623   0.822 -0.8051 -0.7990  0.3476
15152SOL     OW46033   3.217   7.669   8.079  0.1477 -0.2348 -0.0561
15152SOL    HW146034   3.241   7.686   8.170  1.2041  1.1525 -0.5510
15152SOL    HW246035   3.136   7.720   8.065 -0.9266 -1.7178  0.5091
15153SOL     OW46036   8.349   9.248   2.003  0.1950  1.0040  0.1674
15153SOL    HW146037   8.425   9.200   1.971 -0.8548 -0.8983  0.3767
15153SOL    HW246038   8.333   9.315   1.936  0.7233 -0.0058 -1.0115
15154SOL     OW46039   7.175   9.101   1.865  0.3728  0.2434  0.0284
15154SOL    HW146040   7.152   9.082   1.774  1.6656 -0.1035 -0.2559
15154SOL    HW246041   7.206   9.191   1.863  1.7405 -0.2046 -0.1777
15155SOL     OW46042   9.473   4.511   4.566  0.3232 -0.0492  0.4353
15155SOL    HW146043   9.390   4.465   4.572 -0.7372  1.7498  0.4546
15155SOL    HW246044   9.537   4.452   4.604 -0.2990 -2.8862 -2.4872
15156SOL     OW46045   8.625   8.245   4.517 -0.7349 -0.9371 -0.4174
15156SOL    HW146046   8.683   8.220   4.446  0.3604  1.8686 -0.6460
15156SOL    HW246047   8.682   8.249   4.594 -0.6964  1.2379 -0.5146
15157SOL     OW46048   3.753   1.024   7.765 -0.5427 -0.5089  0.6435
15157SOL    HW146049   3.736   1.019   7.859  0.4565 -0.1259  0.8581
15157SOL    HW246050   3.699   1.097   7.734 -0.3469 -0.1959  1.0445
15158SOL     OW46051   3.417   7.331   9.355  0.2438 -0.5126 -0.2328
15158SOL    HW146052   3.419   7.427   9.350  1.9646 -0.4751  0.6056
15158SOL    HW246053   3.487   7.303   9.297 -1.5154 -1.4145 -2.0643
15159SOL     OW46054   3.797   0.582   4.458  0.3886 -0.1527  0.0737
15159SOL    HW146055   3.801   0.666   4.412  0.2579  0.9426  1.9433
15159SOL    HW246056   3.721   0.538   4.420  1.3443 -0.1263 -1.9973
15160SOL     OW46057   2.691   3.192   0.978 -0.2633  0.0903 -0.4020
15160SOL    HW146058   2.731   3.276   1.001 -0.3812 -0.2413  1.1378
15160SOL    HW246059   2.597   3.206   0.987 -0.4048  0.2860 -1.9633
15161SOL     OW46060   2.201   0.533   7.391 -0.1081  0.1556 -0.5066
15161SOL    HW146061   2.175   0.524   7.482  0.6697 -2.2909 -0.4586
15161SOL    HW246062   2.118   0.542   7.343 -0.5281  1.2805  0.3837
15162SOL     OW46063   0.271   8.032   9.132 -0.4140  0.2993 -0.0245
15162SOL    HW146064   0.245   7.942   9.112 -1.4467  0.7311 -0.7287
15162SOL    HW246065   0.193   8.070   9.172  0.2498  0.6906  0.9274
15163SOL     OW46066   8.011   1.433   5.965 -0.3182  0.3285  0.0340
15163SOL    HW146067   7.966   1.355   5.934 -1.1639  1.2023 -1.0452
15163SOL    HW246068   8.104   1.412   5.957 -0.5327 -0.4766 -0.4863
15164SOL     OW46069   9.670   0.237   6.827  0.4249 -0.0116  0.0834
15164SOL    HW146070   9.685   0.328   6.799  2.7557 -0.9205 -1.9622
15164SOL    HW246071   9.598   0.207   6.772  0.4149  0.2442 -0.0475
15165SOL     OW46072   1.979   8.459   4.880 -0.4384  0.0628 -0.5604
15165SOL    HW146073   1.917   8.503   4.938 -0.0989  1.2674 -1.0764
15165SOL    HW246074   2.065   8.483   4.914 -0.2393 -0.7034 -0.5018
15166SOL     OW46075   5.718   8.756   2.712  0.0806  0.0494  0.2187
15166SOL    HW146076   5.629   8.792   2.719 -0.0051  0.1339 -1.0149
15166SOL    HW246077   5.769   8.828   2.675  0.4587 -0.2984  0.0616
15167SOL     OW46078   8.728   1.347   6.019 -0.3918 -0.1444  0.4291
15167SOL    HW146079   8.792   1.402   6.064  1.1802 -1.9836  0.5623
15167SOL    HW246080   8.704   1.280   6.083 -2.4637  0.4634  0.3634
15168SOL     OW46081   7.980   1.460   9.776  0.0730 -0.7969  0.3862
15168SOL    HW146082   7.979   1.416   9.862 -1.8755  0.1420  0.8895
15168SOL    HW246083   7.958   1.551   9.796  1.1850 -0.1900 -0.9736
15169SOL     OW46084   0.263   4.676   0.572 -0.4969  0.0157 -0.2591
15169SOL    HW146085   0.304   4.762   0.566 -0.3482 -0.0729 -0.5230
15169SOL    HW246086   0.173   4.689   0.544 -0.9116  0.3873  1.1492
15170SOL     OW46087   7.493   8.118   4.711 -0.3947  0.0460  0.0664
15170SOL    HW146088   7.463   8.167   4.787 -0.3878  0.3181 -0.1043
15170SOL    HW246089   7.550   8.179   4.664  0.8553 -0.6289  0.6558
15171SOL     OW46090   9.408   5.079   4.019  0.1158  0.2965  0.1740
15171SOL    HW146091   9.467   5.009   4.045 -1.7349 -1.4579 -0.0920
15171SOL    HW246092   9.448   5.117   3.941  1.2802 -0.2496  0.4777
15172SOL     OW46093   6.931   2.121   5.349  0.0334 -0.0796 -0.1398
15172SOL    HW146094   6.949   2.153   5.261  0.8714 -0.3627 -0.0743
15172SOL    HW246095   7.003   2.154   5.403 -0.1879 -0.3535  0.3344
15173SOL     OW46096   0.071   9.185   8.143  0.1053  0.2280 -0.4112
15173SOL    HW146097   0.093   9.175   8.236  1.7386 -0.5094 -0.8435
15173SOL    HW246098   0.096   9.275   8.123 -0.1009  0.3398 -0.1745
15174SOL     OW46099   3.043   0.331   3.841 -0.6861 -0.4215 -0.1112
15174SOL    HW146100   2.995   0.334   3.924 -0.4497 -0.3794  0.0255
15174SOL    HW246101   3.131   0.362   3.863 -0.0787 -2.1201 -0.0014
15175SOL     OW46102   9.124   6.184   3.770  0.7065  0.0964 -0.7642
15175SOL    HW146103   9.061   6.243   3.729 -0.5005 -0.7527 -0.1809
15175SOL    HW246104   9.106   6.098   3.731  1.0358 -0.2947 -0.0745
15176SOL     OW46105   8.498   2.385   1.407 -0.1731 -0.4927 -0.4710
15176SOL    HW146106   8.577   2.438   1.412 -0.8325  0.3798  2.4046
15176SOL    HW246107   8.426   2.448   1.411 -1.0066 -1.4400 -0.1654
15177SOL     OW46108   5.058   2.873   4.814  0.6782 -0.2619 -0.1519
15177SOL    HW146109   4.990   2.847   4.876  2.0449  0.3603  1.6617
15177SOL    HW246110   5.095   2.790   4.783  0.5583 -0.5759  0.5282
15178SOL     OW46111   1.656   0.230   5.079  0.5108  0.8757  0.0548
15178SOL    HW146112   1.729   0.281   5.044  0.1399  1.0463 -0.4823
15178SOL    HW246113   1.602   0.210   5.003 -0.8491  2.1076  0.6400
15179SOL     OW46114   3.353   4.268   5.541 -0.0408 -0.1826  0.0400
15179SOL    HW146115   3.447   4.284   5.546  0.0589 -0.6078 -0.4433
15179SOL    HW246116   3.336   4.255   5.447 -0.4247 -1.0160  0.2169
15180SOL     OW46117   0.048   8.887   0.909 -0.4762 -0.5695 -0.3383
15180SOL    HW146118  -0.046   8.900   0.893 -0.6396 -1.5438 -0.2079
15180SOL    HW246119   0.088   8.970   0.884 -1.1612 -0.7365 -2.1346
15181SOL     OW46120   8.630   9.407   5.311 -0.0485  0.2098  0.4515
15181SOL    HW146121   8.627   9.484   5.255 -0.9070  1.9482  2.7151
15181SOL    HW246122   8.722   9.399   5.336 -0.0747  1.0132  0.8365
15182SOL     OW46123   5.867   0.834   7.983  0.0669 -0.1728 -0.1624
15182SOL    HW146124   5.789   0.778   7.983 -1.3078  1.5978  1.4551
15182SOL    HW246125   5.901   0.828   8.073 -1.0412  2.6374  0.5600
15183SOL     OW46126   1.242   4.554   6.728 -0.0628 -0.4283  0.2294
15183SOL    HW146127   1.177   4.619   6.702 -0.9025 -0.9504  0.9883
15183SOL    HW246128   1.315   4.568   6.667 -1.7892 -1.4054 -2.2042
15184SOL     OW46129   6.986   8.068   6.157  0.2701  0.3521 -0.3311
15184SOL    HW146130   7.062   8.125   6.170  1.8738 -1.7885  0.3417
15184SOL    HW246131   7.023   7.987   6.123 -2.0010 -0.0650 -2.0713
15185SOL     OW46132   4.770   4.176   3.710  0.2660  0.2363  0.4700
15185SOL    HW146133   4.716   4.253   3.726  0.8667  0.9327 -0.7039
15185SOL    HW246134   4.824   4.200   3.635 -1.0547 -2.1077 -1.3335
15186SOL     OW46135   7.671   7.369   7.743 -0.5851 -0.3162 -0.3572
15186SOL    HW146136   7.707   7.427   7.675 -1.3632  1.0963  0.3876
15186SOL    HW246137   7.747   7.340   7.793 -0.0882 -0.7307 -1.3248
15187SOL     OW46138   3.763   4.177   0.594  0.1946 -0.3296 -0.4989
15187SOL    HW146139   3.780   4.105   0.533 -1.2370 -0.2000 -1.0770
15187SOL    HW246140   3.808   4.252   0.555 -0.7633 -0.2322 -1.4500
15188SOL     OW46141   3.010   6.806   5.412  0.2383  0.3005  0.4697
15188SOL    HW146142   3.065   6.863   5.465  0.8797  1.0552 -0.9315
15188SOL    HW246143   2.986   6.860   5.336 -0.9616 -0.6008  0.1823
15189SOL     OW46144   7.535   0.480   7.887  0.5323 -0.1591 -0.0212
15189SOL    HW146145   7.596   0.424   7.839  1.4872  0.4592  0.4293
15189SOL    HW246146   7.525   0.437   7.972  0.5578 -0.1210  0.0013
15190SOL     OW46147   5.130   9.224   4.733 -0.0882  0.0398  0.1191
15190SOL    HW146148   5.179   9.304   4.754 -0.9054  0.6619 -0.2840
15190SOL    HW246149   5.196   9.155   4.734  0.0337 -0.0171  4.4920
15191SOL     OW46150   0.096   8.435   2.337 -0.4356  0.3465 -0.5425
15191SOL    HW146151   0.071   8.502   2.401  2.6498  1.6929 -0.5951
15191SOL    HW246152   0.174   8.395   2.374 -0.5292 -1.2018 -1.9355
15192SOL     OW46153   8.586   0.412   7.249  0.0345 -0.2218 -0.3569
15192SOL    HW146154   8.624   0.370   7.326  1.2798 -1.4174 -1.5533
15192SOL    HW246155   8.591   0.345   7.181 -1.3033  0.7014 -1.4200
15193SOL     OW46156   4.281   9.300   0.956  0.1943 -0.0352 -0.3939
15193SOL    HW146157   4.190   9.321   0.978  0.0332 -0.8696 -0.1970
15193SOL    HW246158   4.304   9.229   1.016  1.0624  0.3432 -0.2755
15194SOL     OW46159   5.422   7.401   8.609  0.0701 -0.0212 -0.5387
15194SOL    HW146160   5.329   7.394   8.586 -1.8468  3.5833  4.2344
15194SOL    HW246161   5.459   7.459   8.542 -2.5304  2.3113 -0.1583
15195SOL     OW46162   3.634   4.479   8.128  0.1033  0.7365 -0.0024
15195SOL    HW146163   3.545   4.496   8.097 -0.1921 -1.4485 -0.5032
15195SOL    HW246164   3.652   4.551   8.189 -1.3817  2.0960 -1.0851
15196SOL     OW46165   1.360   3.991   4.516  0.3203  0.7982 -0.3137
15196SOL    HW146166   1.375   4.007   4.609  0.4423  1.2822 -0.4136
15196SOL    HW246167   1.359   4.078   4.476  0.9436  0.5593 -0.8700
15197SOL     OW46168   8.738   8.149   1.760 -0.1743 -0.3530  0.2066
15197SOL    HW146169   8.737   8.202   1.680  1.9895 -1.8020 -0.8691
15197SOL    HW246170   8.735   8.059   1.729  0.5632 -0.9555  1.7908
15198SOL     OW46171   0.423   6.814   9.416 -0.0586  0.3201 -0.2077
15198SOL    HW146172   0.460   6.772   9.493  0.4653 -0.1158 -0.6927
15198SOL    HW246173   0.373   6.745   9.372 -0.3954  0.5786 -0.2369
15199SOL     OW46174   8.440   5.174   6.540  0.1547 -0.1028 -0.1717
15199SOL    HW146175   8.453   5.100   6.480 -0.3150 -0.6907  0.4399
15199SOL    HW246176   8.445   5.136   6.627 -0.7365  0.4780  0.1471
15200SOL     OW46177   0.056   8.525   4.723  0.6207 -0.0727 -0.2641
15200SOL    HW146178   0.008   8.449   4.691 -0.1225  0.3426 -0.1637
15200SOL    HW246179   0.065   8.582   4.647  2.2906 -0.8096 -0.6411
15201SOL     OW46180   9.932   4.049   1.051 -0.0458 -0.6853 -0.0249
15201SOL    HW146181   9.985   4.048   0.971  0.2166 -0.9749  0.1479
15201SOL    HW246182   9.996   4.040   1.122 -0.2001  0.3776  0.2682
15202SOL     OW46183   2.743   4.877   2.113  0.9815 -0.2385  0.5209
15202SOL    HW146184   2.808   4.943   2.091  1.4916 -0.0909  2.3222
15202SOL    HW246185   2.673   4.889   2.048  1.4386  1.5063  0.3218
15203SOL     OW46186   6.529   8.649   0.791  0.1193  0.5804 -0.3768
15203SOL    HW146187   6.518   8.736   0.829 -0.6243  0.3477 -0.0445
15203SOL    HW246188   6.507   8.662   0.698  0.5409  0.8547 -0.4415
15204SOL     OW46189   5.527   3.095   3.501  0.0488  0.1978  0.2505
15204SOL    HW146190   5.452   3.097   3.443 -0.3712  0.6881  0.8060
15204SOL    HW246191   5.531   3.182   3.540  1.0020  0.2363  0.1122
15205SOL     OW46192   5.013   8.071   0.204  0.5397  0.3806 -0.4958
15205SOL    HW146193   5.109   8.075   0.196  0.5342  0.5847 -0.4685
15205SOL    HW246194   4.996   8.099   0.294  0.4184  0.9382 -0.6848
15206SOL     OW46195   3.119   1.228   3.186  0.3059 -0.2622 -0.5532
15206SOL    HW146196   3.076   1.309   3.212 -0.4273 -1.0829  0.9033
15206SOL    HW246197   3.047   1.168   3.166  0.8343 -0.6855 -1.2371
15207SOL     OW46198   4.539   2.281   8.995  0.2522  0.1005  0.5993
15207SOL    HW146199   4.486   2.281   9.074  0.1691 -0.1656  0.5464
15207SOL    HW246200   4.629   2.295   9.025  0.2826 -0.4535  0.7877
15208SOL     OW46201   0.892   5.300   6.318  0.0299 -0.6362  0.0514
15208SOL    HW146202   0.959   5.311   6.385  0.5797  1.1684 -0.7400
15208SOL    HW246203   0.809   5.305   6.366  0.4044  0.9597  0.5703
15209SOL     OW46204   8.303   7.496   9.405 -0.5526 -0.1333  0.4431
15209SOL    HW146205   8.336   7.579   9.372 -1.0286 -0.3151 -0.5319
15209SOL    HW246206   8.343   7.487   9.491  1.8712 -0.2892 -0.6073
15210SOL     OW46207   4.873   3.304   1.617 -0.3156  0.1639  0.4674
15210SOL    HW146208   4.837   3.284   1.704 -0.8838 -0.1062  0.1780
15210SOL    HW246209   4.819   3.253   1.557  0.9170 -0.6612  0.0488
15211SOL     OW46210   3.266   6.726   5.052 -0.1855  0.2010 -0.2690
15211SOL    HW146211   3.176   6.756   5.065 -0.1691  0.7154 -1.2665
15211SOL    HW246212   3.318   6.782   5.109 -0.5365 -0.4835  0.7608
15212SOL     OW46213   5.908   8.138   3.892  0.3987  0.0897  0.3506
15212SOL    HW146214   5.834   8.161   3.949 -0.5296 -0.3854 -0.6185
15212SOL    HW246215   5.926   8.219   3.844  0.2466  0.1018  0.3115
15213SOL     OW46216   0.768   4.489   4.451  0.6932 -0.5010 -0.2623
15213SOL    HW146217   0.796   4.410   4.406  0.8553 -1.8865  2.1118
15213SOL    HW246218   0.847   4.543   4.457  1.1688 -1.2314  0.1694
15214SOL     OW46219   9.057   5.925   6.271 -0.0729  0.0123 -0.0513
15214SOL    HW146220   8.974   5.934   6.318  0.0628 -0.7587  0.3646
15214SOL    HW246221   9.039   5.859   6.204 -0.0805  0.6195 -0.6571
15215SOL     OW46222   1.577   3.893   4.032  1.1163 -0.2174 -0.1617
15215SOL    HW146223   1.572   3.874   4.126  2.0747 -1.1277 -0.2765
15215SOL    HW246224   1.650   3.954   4.024 -0.6915  2.1154 -0.0362
15216SOL     OW46225   5.024   4.388   3.820 -0.3729 -0.1363  0.3122
15216SOL    HW146226   5.084   4.313   3.826 -0.4486 -0.1137  1.6706
15216SOL    HW246227   5.007   4.398   3.727 -0.1316 -1.6398  0.0818
15217SOL     OW46228   3.457   8.281   3.405 -0.1962  0.6554 -0.0081
15217SOL    HW146229   3.543   8.323   3.399  0.1024  0.0777  0.1529
15217SOL    HW246230   3.395   8.354   3.409  0.3969  1.1169  1.5526
15218SOL     OW46231   7.584   6.606   5.198 -0.3121 -0.6572 -0.2133
15218SOL    HW146232   7.663   6.638   5.241 -1.2186 -0.4733  1.4347
15218SOL    HW246233   7.574   6.516   5.228 -0.9486 -0.5369 -0.0394
15219SOL     OW46234   6.063   3.797   1.425  0.1815 -0.5019 -0.3082
15219SOL    HW146235   5.980   3.833   1.456  0.4511  0.0204 -0.1789
15219SOL    HW246236   6.050   3.784   1.331 -0.6487 -2.1147 -0.0054
15220SOL     OW46237   2.736   1.167   1.230 -0.1970 -0.2699  0.2904
15220SOL    HW146238   2.753   1.074   1.243 -1.6106 -0.4717  0.8496
15220SOL    HW246239   2.754   1.207   1.315 -1.2994 -0.3215  0.5684
15221SOL     OW46240   5.636   5.220   2.719 -0.3262  0.1795 -0.6603
15221SOL    HW146241   5.620   5.302   2.673  0.8184  1.2582  0.7756
15221SOL    HW246242   5.607   5.152   2.658  2.1200  1.4544 -3.4320
15222SOL     OW46243   6.762   1.271   2.329 -0.0720 -0.3518 -0.1680
15222SOL    HW146244   6.710   1.192   2.341 -2.4181  0.9648 -1.0574
15222SOL    HW246245   6.851   1.239   2.316 -0.8374 -2.7997  0.1200
15223SOL     OW46246   3.558   1.192   9.122 -0.0010  0.1106  0.0899
15223SOL    HW146247   3.606   1.128   9.069  0.4136 -0.5350  1.2038
15223SOL    HW246248   3.589   1.277   9.092  1.7894 -0.2845  0.6970
15224SOL     OW46249   1.342   1.172   4.048 -0.3410  0.0108 -0.5521
15224SOL    HW146250   1.266   1.184   3.991 -1.6153 -0.8393  0.8868
15224SOL    HW246251   1.372   1.261   4.067 -1.1735  0.3825 -0.9231
15225SOL     OW46252   4.776   5.980   6.968 -0.3620  1.1838  0.5837
15225SOL    HW146253   4.754   6.011   6.880 -1.3275 -0.5098  0.1962
15225SOL    HW246254   4.708   6.017   7.024 -1.0831  0.3756  0.2441
15226SOL     OW46255   8.956   2.678   6.074  0.5471  0.7062  0.1590
15226SOL    HW146256   8.898   2.654   6.002 -0.1449 -0.2147  0.9889
15226SOL    HW246257   8.972   2.595   6.120  0.2528  1.3960  1.5724
15227SOL     OW46258   7.100   1.690   4.722  0.0260 -0.1878  0.3440
15227SOL    HW146259   7.160   1.738   4.665  0.2427  3.3732  3.2126
15227SOL    HW246260   7.151   1.616   4.754  0.6754 -0.8702 -2.0428
15228SOL     OW46261   1.218   9.266   3.954  0.4458  0.4312  0.1572
15228SOL    HW146262   1.276   9.336   3.925 -0.4503  1.6878  1.2915
15228SOL    HW246263   1.174   9.301   4.032 -0.0049 -1.4053  0.7924
15229SOL     OW46264   9.119   9.924   8.849 -0.1464 -0.1870  0.9018
15229SOL    HW146265   9.118   9.846   8.794  0.3050  0.7706 -0.4900
15229SOL    HW246266   9.064   9.900   8.924  0.3965 -2.0073  0.7643
15230SOL     OW46267   7.780   9.563   3.119 -0.4827 -0.3392 -0.6271
15230SOL    HW146268   7.733   9.523   3.192 -0.3381 -1.9274 -1.3590
15230SOL    HW246269   7.866   9.585   3.155 -1.0453  0.6534  0.1600
15231SOL     OW46270   7.516   0.613   3.872  0.1903 -0.2192  0.5894
15231SOL    HW146271   7.482   0.668   3.801 -3.3746 -1.5171  1.1134
15231SOL    HW246272   7.468   0.530   3.863  2.2570 -1.7264  2.4035
15232SOL     OW46273   6.528   1.004   8.630 -0.8942 -0.3820  0.1129
15232SOL    HW146274   6.475   1.081   8.612 -0.9164 -0.3591  0.2806
15232SOL    HW246275   6.500   0.974   8.716  0.2356  0.3549  0.7571
15233SOL     OW46276   9.421   2.083   9.785 -0.5415 -0.2061 -0.4994
15233SOL    HW146277   9.487   2.151   9.798 -1.2555  0.6032 -1.0481
15233SOL    HW246278   9.470   2.008   9.753 -0.0923  1.0131 -2.9074
15234SOL     OW46279   9.529   7.205   3.722 -0.7344 -0.3959  0.3052
15234SOL    HW146280   9.443   7.244   3.738 -0.5003  0.4221 -0.3288
15234SOL    HW246281   9.584   7.279   3.695  0.9745 -0.3442  3.4723
15235SOL     OW46282   0.062   4.343   9.439  0.0827 -0.1474 -0.1449
15235SOL    HW146283  -0.028   4.346   9.406 -0.2568 -0.7221  0.6851
15235SOL    HW246284   0.068   4.417   9.500  0.4053  0.3318 -0.7539
15236SOL     OW46285   9.633   9.055   8.885 -0.1690  0.0184 -0.5222
15236SOL    HW146286   9.713   9.058   8.937  0.0731  1.1936 -0.9182
15236SOL    HW246287   9.563   9.075   8.947 -0.1944 -1.2298 -0.1315
15237SOL     OW46288   7.346   5.975   3.147 -0.4746  0.0567 -0.1907
15237SOL    HW146289   7.255   5.997   3.129 -0.4322  0.3418 -0.0682
15237SOL    HW246290   7.397   6.029   3.086 -0.3013  1.5429  1.1702
15238SOL     OW46291   8.324   1.591   3.943  0.4116  0.0549 -0.0283
15238SOL    HW146292   8.325   1.609   3.849 -1.2288 -2.6040 -0.6705
15238SOL    HW246293   8.361   1.503   3.950 -0.8819 -0.3930  1.6294
15239SOL     OW46294   1.708   6.417   9.570 -0.5258 -0.1263 -0.0894
15239SOL    HW146295   1.728   6.459   9.486  0.1831  1.5511  0.8689
15239SOL    HW246296   1.782   6.360   9.586 -0.2915  0.1272 -0.2553
15240SOL     OW46297   6.996   7.641   0.433 -0.5317 -0.0809 -0.6035
15240SOL    HW146298   7.091   7.631   0.431 -0.5901 -0.9584  0.2210
15240SOL    HW246299   6.962   7.552   0.424 -1.3695  0.4238 -3.5251
15241SOL     OW46300   9.051   8.713   6.446  0.4427  0.1770 -0.3669
15241SOL    HW146301   9.104   8.644   6.405  1.3505  0.9098 -0.4671
15241SOL    HW246302   9.107   8.791   6.442 -0.1936  0.6980  0.5921
15242SOL     OW46303   5.043   7.326   9.187 -0.3171  0.4660  0.0754
15242SOL    HW146304   5.134   7.330   9.158 -0.4419  2.3545 -0.1695
15242SOL    HW246305   5.021   7.232   9.184  1.3332  0.0686 -0.6924
15243SOL     OW46306   8.685   4.359   8.556  0.0889 -0.0042 -0.7729
15243SOL    HW146307   8.597   4.322   8.564  0.0184  0.2832 -0.1942
15243SOL    HW246308   8.674   4.452   8.577  0.4099  0.1854 -1.4010
15244SOL     OW46309   7.117   8.324   5.674 -0.6742  0.4181  0.3508
15244SOL    HW146310   7.062   8.262   5.626  1.0465  0.3604 -1.7346
15244SOL    HW246311   7.068   8.406   5.670 -2.2624 -0.4022  1.7991
15245SOL     OW46312   1.501   0.418   8.086  0.1366 -0.1800  0.3061
15245SOL    HW146313   1.479   0.453   8.172  0.1718 -1.5819  0.9067
15245SOL    HW246314   1.417   0.410   8.041 -0.0446 -0.8187  0.7528
15246SOL     OW46315   4.766   6.183   3.763  0.0195 -0.1476 -0.5911
15246SOL    HW146316   4.815   6.114   3.719 -1.5218 -0.9651 -1.1183
15246SOL    HW246317   4.813   6.264   3.742  0.7348 -0.8148 -1.6421
15247SOL     OW46318   5.182   4.288   2.993  0.1422 -0.4256  0.3137
15247SOL    HW146319   5.207   4.375   2.962 -0.1744 -0.6943 -0.7465
15247SOL    HW246320   5.087   4.286   2.984  0.2411 -1.2485 -0.7230
15248SOL     OW46321   5.757   4.800   9.210  0.0596 -0.3494 -0.6801
15248SOL    HW146322   5.773   4.709   9.237  0.0111 -0.5758 -1.4048
15248SOL    HW246323   5.672   4.797   9.166 -0.4749  0.2574  0.2796
15249SOL     OW46324   7.886   6.325   2.677 -0.1209  0.7053 -0.2884
15249SOL    HW146325   7.982   6.326   2.686 -0.0350  1.3157 -1.1567
15249SOL    HW246326   7.857   6.257   2.738  0.8341  0.7967  0.2870
15250SOL     OW46327   5.004   7.845   4.554  0.7193  0.1388  0.2102
15250SOL    HW146328   5.039   7.759   4.574  0.2320 -0.1561 -0.1678
15250SOL    HW246329   4.929   7.855   4.613  1.1059  0.5434  0.6452
15251SOL     OW46330   2.755   0.301   4.118  0.7196 -0.0325  0.0936
15251SOL    HW146331   2.840   0.261   4.138 -0.9232 -2.8757  1.9961
15251SOL    HW246332   2.744   0.369   4.184  1.7133  0.7877 -0.5458
15252SOL     OW46333   3.217   7.623   2.547 -0.1569 -0.2896  0.7638
15252SOL    HW146334   3.289   7.567   2.517  0.4868  0.9918 -0.1985
15252SOL    HW246335   3.138   7.571   2.530  0.4382 -1.0702  0.2869
15253SOL     OW46336   8.212   9.274   2.630  0.3254  0.1527  0.2864
15253SOL    HW146337   8.133   9.224   2.611  0.7241 -0.6616  0.7126
15253SOL    HW246338   8.189   9.365   2.608 -0.5338 -0.1545 -0.1298
15254SOL     OW46339   2.240   6.495   7.209 -0.3781 -0.2918  0.3882
15254SOL    HW146340   2.254   6.442   7.287  2.8555 -0.4330 -0.1379
15254SOL    HW246341   2.193   6.572   7.240  0.1821 -0.6748  2.3373
15255SOL     OW46342   7.058   2.677   7.479  0.3112 -0.0338  0.2342
15255SOL    HW146343   7.099   2.690   7.564 -1.9332 -0.1547  1.4321
15255SOL    HW246344   7.097   2.743   7.422  2.2371 -0.2871  1.1881
15256SOL     OW46345   1.223   9.283   0.729 -0.6211  0.3316 -0.1303
15256SOL    HW146346   1.244   9.326   0.646 -1.1686 -0.0086 -0.4495
15256SOL    HW246347   1.290   9.216   0.739 -0.1987  0.7736  0.0019
15257SOL     OW46348   1.258   7.873   3.278  0.0190 -0.0882  0.1666
15257SOL    HW146349   1.187   7.854   3.218  0.7635  0.3983 -0.9084
15257SOL    HW246350   1.219   7.927   3.347 -0.6468  0.1278 -0.3831
15258SOL     OW46351   4.754   9.048   2.820 -0.0092  0.9297  0.4727
15258SOL    HW146352   4.792   9.100   2.749  0.7173 -1.6974 -1.2061
15258SOL    HW246353   4.754   8.958   2.787 -0.6439 -0.2829  3.4132
15259SOL     OW46354   8.026   3.248   8.151 -0.0544  0.0181  0.0458
15259SOL    HW146355   8.098   3.306   8.176  0.2191 -0.1325 -0.3785
15259SOL    HW246356   8.070   3.169   8.118 -0.4185 -0.3951  0.5287
15260SOL     OW46357   6.708   1.093   3.220  0.0392 -0.1395  0.3166
15260SOL    HW146358   6.653   1.102   3.142 -1.1896  1.1058  1.2861
15260SOL    HW246359   6.697   1.176   3.267 -0.3093 -1.3433  2.4818
15261SOL     OW46360   9.102   4.885   7.024  0.0272  0.1803  0.2211
15261SOL    HW146361   9.050   4.912   6.948  0.1211 -0.2634 -0.0049
15261SOL    HW246362   9.112   4.790   7.014 -0.2333  0.0680  0.9606
15262SOL     OW46363   5.535   3.368   0.206 -0.2161 -0.0106  0.0678
15262SOL    HW146364   5.450   3.325   0.215  0.0936 -0.4956  0.7485
15262SOL    HW246365   5.564   3.382   0.296 -0.4430  1.9288 -0.1155
15263SOL     OW46366   8.478   3.615   9.390  0.1940  0.0489 -0.3678
15263SOL    HW146367   8.468   3.666   9.471  0.5653 -0.5527  0.0680
15263SOL    HW246368   8.537   3.667   9.336  0.7265 -0.0029  0.1547
15264SOL     OW46369   4.743   6.167   8.249 -0.4640  0.0901  0.8645
15264SOL    HW146370   4.722   6.260   8.258 -0.0944  0.2768 -0.1206
15264SOL    HW246371   4.676   6.133   8.190  0.2350  0.0537  0.0734
15265SOL     OW46372   0.377   8.764   4.384 -0.1961 -0.0539 -0.3211
15265SOL    HW146373   0.351   8.697   4.447  0.4776  0.6570  0.7332
15265SOL    HW246374   0.410   8.714   4.309 -1.6233 -0.9198 -0.4127
15266SOL     OW46375   1.867   2.998   5.176 -0.0959 -0.2407  0.4551
15266SOL    HW146376   1.891   2.935   5.243 -0.4334 -1.8276 -0.8553
15266SOL    HW246377   1.780   3.030   5.202  0.1668 -0.1563  1.2348
15267SOL     OW46378   5.903   5.511   4.404  0.0285  0.0404  0.0529
15267SOL    HW146379   5.910   5.441   4.469 -0.1216 -0.9392 -0.9552
15267SOL    HW246380   5.963   5.578   4.435  0.6443 -0.7919  0.7152
15268SOL     OW46381   7.034   2.095   2.554 -0.8247  0.4568 -0.2827
15268SOL    HW146382   7.098   2.045   2.505  0.1779  0.7317  0.6949
15268SOL    HW246383   7.011   2.038   2.628 -0.0406  1.2092  0.5667
15269SOL     OW46384   4.887   6.936   7.786  0.3085  0.0596  0.4388
15269SOL    HW146385   4.932   6.886   7.718 -1.8424 -1.7925  0.2691
15269SOL    HW246386   4.938   6.919   7.866  0.6429 -0.9380  0.0255
15270SOL     OW46387   3.269   0.067   6.123  0.1724 -0.0778 -0.5217
15270SOL    HW146388   3.178   0.096   6.111  0.2613  0.4911  0.1281
15270SOL    HW246389   3.277  -0.010   6.067 -0.5016  0.2921 -1.1462
15271SOL     OW46390   9.340   8.081   8.967  0.1639  0.2902 -0.1462
15271SOL    HW146391   9.432   8.079   8.991  0.0346  0.8186  0.4416
15271SOL    HW246392   9.334   8.151   8.901  0.0932  0.6972  0.2799
15272SOL     OW46393   0.270   9.275   9.968 -0.4521 -0.9120  0.1309
15272SOL    HW146394   0.331   9.270   9.895 -0.4088  0.0330  0.0914
15272SOL    HW246395   0.271   9.187  10.007  0.8843 -0.9203  0.1049
15273SOL     OW46396   5.943   6.893   1.591  0.5460  0.4488 -0.2173
15273SOL    HW146397   6.028   6.929   1.563  0.4280  1.2930  0.4563
15273SOL    HW246398   5.890   6.893   1.511  0.2105  2.8135 -0.0780
15274SOL     OW46399   7.727   5.875   4.752 -0.2186  0.0218  0.1408
15274SOL    HW146400   7.802   5.926   4.724  0.4122 -0.6808  0.5106
15274SOL    HW246401   7.692   5.837   4.671  0.0086  0.1054  0.0023
15275SOL     OW46402   3.724   9.696   5.158  0.1632 -0.8058  0.0809
15275SOL    HW146403   3.818   9.708   5.171 -0.3458  2.9266  1.6805
15275SOL    HW246404   3.713   9.697   5.063  1.6639 -0.2429 -0.1210
15276SOL     OW46405   7.977   1.985   3.904 -0.6880  0.2026  0.3157
15276SOL    HW146406   8.058   1.945   3.936 -0.6939 -0.6398 -0.6859
15276SOL    HW246407   8.006   2.065   3.859 -0.5530  0.6237  1.1232
15277SOL     OW46408   7.002   1.764   0.198  0.5776 -0.5637  0.5999
15277SOL    HW146409   6.946   1.705   0.247  1.3296 -1.0750  0.8659
15277SOL    HW246410   6.942   1.824   0.154 -0.2268 -1.9900 -0.2784
15278SOL     OW46411   1.597   1.186   9.679  0.2144  0.8434 -0.0493
15278SOL    HW146412   1.688   1.215   9.671 -0.0915  1.5263 -1.6035
15278SOL    HW246413   1.586   1.121   9.609 -0.6191  1.1781 -0.2507
15279SOL     OW46414   3.589   8.412   4.750  0.6903 -0.4715 -0.0820
15279SOL    HW146415   3.557   8.457   4.672  1.5571 -0.4455 -0.4328
15279SOL    HW246416   3.512   8.407   4.808  0.1718 -0.0259 -0.7143
15280SOL     OW46417   9.728   6.506   7.642 -0.7201  0.3974 -0.1618
15280SOL    HW146418   9.661   6.544   7.698 -1.2094 -0.0350 -0.4320
15280SOL    HW246419   9.785   6.458   7.701 -0.8967  0.4220  0.0292
15281SOL     OW46420   4.365   7.732   3.863  0.0222 -0.2497  0.7062
15281SOL    HW146421   4.346   7.809   3.916 -1.0601  0.2059 -0.2902
15281SOL    HW246422   4.317   7.661   3.907  0.2671 -0.1762  1.1031
15282SOL     OW46423   3.008   5.321   0.045 -0.7286  0.0743  0.2582
15282SOL    HW146424   3.062   5.290  -0.029 -0.2190  0.9299  0.2643
15282SOL    HW246425   2.982   5.240   0.090  0.0284 -0.3910 -0.1076
15283SOL     OW46426   4.036   5.933   3.328 -0.1494 -0.2767 -0.3717
15283SOL    HW146427   4.050   6.000   3.395  1.1704 -0.2157 -0.6788
15283SOL    HW246428   4.086   5.857   3.359  1.1057 -0.0006 -1.6260
15284SOL     OW46429   1.753   2.925   7.541 -0.3979 -0.0650  0.3829
15284SOL    HW146430   1.761   2.830   7.552 -0.3414  0.0282  1.2347
15284SOL    HW246431   1.827   2.961   7.591 -0.8766  0.4561  0.7230
15285SOL     OW46432   9.846   0.075   1.170 -0.4606  0.6733 -0.2517
15285SOL    HW146433   9.790   0.117   1.235 -1.1044  0.2671 -0.5433
15285SOL    HW246434   9.911   0.028   1.221 -1.0115  0.2902  0.1014
15286SOL     OW46435   6.226   7.874   7.003 -0.1552 -0.0914 -0.9910
15286SOL    HW146436   6.170   7.846   7.075  0.9231  0.1830 -0.0023
15286SOL    HW246437   6.284   7.799   6.987 -0.3384 -0.1215 -1.5151
15287SOL     OW46438   6.782   9.939   1.294  0.0317  0.0821 -0.0474
15287SOL    HW146439   6.814   9.874   1.357  0.8807  0.4317 -0.1082
15287SOL    HW246440   6.687   9.928   1.295  0.0194  0.1214  1.3429
15288SOL     OW46441   9.127   7.392   6.143  0.0568  0.0291 -0.1127
15288SOL    HW146442   9.111   7.422   6.053  0.2394  1.1200  0.2099
15288SOL    HW246443   9.088   7.459   6.198 -1.6941 -1.5308  0.6528
15289SOL     OW46444   8.306   8.633   1.786  0.2374  0.2745  0.2565
15289SOL    HW146445   8.361   8.588   1.850 -1.0765 -0.8663  0.6304
15289SOL    HW246446   8.304   8.576   1.710 -2.0930 -0.7976  1.0301
15290SOL     OW46447   1.298   6.356   1.121 -0.5329 -0.5330  0.1744
15290SOL    HW146448   1.337   6.442   1.104 -0.8201 -0.3568  0.3779
15290SOL    HW246449   1.211   6.361   1.081 -0.0419 -1.2141 -0.9967
15291SOL     OW46450   7.512   4.294   2.944  0.1673 -0.3005 -1.0521
15291SOL    HW146451   7.478   4.274   3.032  0.9091 -0.6109 -0.8266
15291SOL    HW246452   7.607   4.279   2.951  0.1805 -0.7165 -2.0215
15292SOL     OW46453   3.691   9.949   1.322 -0.1201 -0.1026  0.3097
15292SOL    HW146454   3.696  10.017   1.254 -0.8893  0.2602  0.6029
15292SOL    HW246455   3.752   9.882   1.293 -2.1108 -1.0568 -1.9629
15293SOL     OW46456   8.446   5.462   1.914  0.1862  0.7509 -0.6476
15293SOL    HW146457   8.447   5.511   1.996 -0.1705 -0.0109 -0.1865
15293SOL    HW246458   8.374   5.501   1.864 -0.6248  0.1620  0.0494
15294SOL     OW46459   6.581   3.682   5.736 -0.3644  0.0232 -0.7006
15294SOL    HW146460   6.551   3.688   5.827  0.3110 -0.7861 -0.4011
15294SOL    HW246461   6.571   3.770   5.701  2.6290  1.2874  1.2272
15295SOL     OW46462   0.627   5.895   1.137  0.6176 -0.2770 -0.2309
15295SOL    HW146463   0.532   5.887   1.147  0.4556  0.4765 -1.0580
15295SOL    HW246464   0.652   5.959   1.204  1.0991 -3.0469  2.4454
15296SOL     OW46465   7.182   1.861   7.500  0.3857 -0.7241  0.4046
15296SOL    HW146466   7.125   1.786   7.517 -0.4623 -0.4235 -0.9159
15296SOL    HW246467   7.122   1.935   7.487  1.1162 -0.1908 -0.0307
15297SOL     OW46468   2.526   5.180   6.751  0.0333  0.4908  0.2664
15297SOL    HW146469   2.552   5.118   6.819  0.4872 -0.5408 -0.8241
15297SOL    HW246470   2.522   5.128   6.671 -1.2370  1.5210 -0.3754
15298SOL     OW46471   3.141   5.392   2.219 -0.3607 -0.4719 -0.0425
15298SOL    HW146472   3.051   5.368   2.243 -0.1874 -0.6743  0.4067
15298SOL    HW246473   3.187   5.309   2.209 -0.2584 -0.3729 -0.4365
15299SOL     OW46474   4.250   3.590   1.585  0.1833 -0.3036  0.2900
15299SOL    HW146475   4.157   3.608   1.575  0.6072  2.5534  0.6019
15299SOL    HW246476   4.254   3.520   1.650 -1.7387 -1.1601 -0.4421
15300SOL     OW46477   6.704   4.097   9.554 -0.0903  0.1072 -0.6540
15300SOL    HW146478   6.745   4.037   9.616 -0.5705 -0.0200 -0.4477
15300SOL    HW246479   6.755   4.088   9.473  1.9275  1.9033  0.3400
15301SOL     OW46480   6.787   1.679   3.572  0.2233  0.1348 -0.4565
15301SOL    HW146481   6.832   1.595   3.557 -0.4776  0.1019 -2.8477
15301SOL    HW246482   6.698   1.664   3.538 -1.3549  0.5732  3.0125
15302SOL     OW46483   4.628   8.957   8.916  0.2110  0.3484  0.2188
15302SOL    HW146484   4.705   8.980   8.865 -0.5995  0.2147 -1.1244
15302SOL    HW246485   4.609   9.035   8.968  0.7257  0.6882 -0.0981
15303SOL     OW46486   7.682   2.751   5.715 -0.3405 -0.1809  0.6340
15303SOL    HW146487   7.713   2.761   5.805 -0.1792 -1.2418  0.7103
15303SOL    HW246488   7.589   2.733   5.723 -0.3478 -0.1680  0.5825
15304SOL     OW46489   6.155   7.895   3.622  0.2331  0.0174  0.0866
15304SOL    HW146490   6.074   7.917   3.668  0.6305 -1.3463  1.4926
15304SOL    HW246491   6.126   7.868   3.535 -0.8038 -0.2597  0.5014
15305SOL     OW46492   8.269   7.794   7.593 -0.4067  0.1675  0.1041
15305SOL    HW146493   8.243   7.876   7.551  0.1204  0.0877 -0.3852
15305SOL    HW246494   8.358   7.810   7.623  0.0344 -0.5280 -0.7978
15306SOL     OW46495   2.482   3.127   9.132  0.2196 -0.0391 -0.3521
15306SOL    HW146496   2.576   3.129   9.152 -0.0373 -1.6114  1.2591
15306SOL    HW246497   2.454   3.218   9.142  1.5643  0.4635 -0.8869
15307SOL     OW46498   9.348   1.695   7.193  0.6826  0.1009  0.1060
15307SOL    HW146499   9.331   1.782   7.157 -0.1160  0.6378  1.6839
15307SOL    HW246500   9.438   1.675   7.167  0.5678  1.0006 -1.0519
15308SOL     OW46501   4.201   0.755   0.199 -0.1807  0.2465 -0.6719
15308SOL    HW146502   4.178   0.846   0.215 -2.7636  0.1063 -2.9718
15308SOL    HW246503   4.178   0.710   0.280  1.0271  1.5670  0.4546
15309SOL     OW46504   2.208   5.189   4.790 -0.3976  0.2978 -0.3791
15309SOL    HW146505   2.282   5.223   4.740 -0.4692 -1.2363 -1.5882
15309SOL    HW246506   2.223   5.095   4.795 -1.5274  0.1497  0.6277
15310SOL     OW46507   0.643   9.936   0.488 -0.1038 -0.4757 -0.3486
15310SOL    HW146508   0.708   9.866   0.484 -1.4891 -1.9334  0.8451
15310SOL    HW246509   0.669   9.989   0.563 -1.6174 -2.6085  1.8532
15311SOL     OW46510   4.197   6.741   1.579 -0.2404 -0.2061  0.3086
15311SOL    HW146511   4.289   6.762   1.565 -0.5272  0.8564 -0.0986
15311SOL    HW246512   4.189   6.727   1.674  0.4187 -0.7363  0.2864
15312SOL     OW46513   1.940   9.029   0.629 -0.3176  0.0806 -0.1119
15312SOL    HW146514   1.985   9.077   0.699 -0.2864 -0.4650  0.2412
15312SOL    HW246515   1.919   8.944   0.667 -1.5253  0.2654 -0.3273
15313SOL     OW46516   3.842   3.118   4.533 -0.4446  0.5301  0.2504
15313SOL    HW146517   3.867   3.078   4.616  1.0186  0.6121 -0.1214
15313SOL    HW246518   3.754   3.153   4.549 -0.6626 -0.4577  1.3943
15314SOL     OW46519   2.494   2.972   1.135  0.1099 -0.3218 -0.3699
15314SOL    HW146520   2.482   2.957   1.229  1.5086  0.1134 -0.0937
15314SOL    HW246521   2.585   2.947   1.119 -0.4580 -1.6029 -1.8800
15315SOL     OW46522   6.105   4.149   0.538  0.0430  0.5535 -0.6026
15315SOL    HW146523   6.139   4.060   0.544 -0.4684  0.3116 -1.2159
15315SOL    HW246524   6.170   4.197   0.488 -0.7454 -0.0385 -2.2422
15316SOL     OW46525   9.268   0.646   2.874  0.7505  0.1734 -0.3389
15316SOL    HW146526   9.241   0.728   2.916  0.4698  0.5723 -1.2683
15316SOL    HW246527   9.259   0.580   2.942  0.3384  0.8096  0.2378
15317SOL     OW46528   8.782   3.952   4.217 -0.1070 -0.2055  0.3877
15317SOL    HW146529   8.713   4.017   4.205  0.4009  0.1179 -1.0161
15317SOL    HW246530   8.856   3.986   4.167  0.8405 -0.9010  1.2609
15318SOL     OW46531   8.136   1.054   4.749  0.6257  0.4977  0.4174
15318SOL    HW146532   8.056   1.018   4.787  0.2931 -0.9113 -1.4611
15318SOL    HW246533   8.107   1.103   4.672  1.2862  3.2154  1.7713
15319SOL     OW46534   9.202   2.359   0.120 -0.2667  0.3955  0.4266
15319SOL    HW146535   9.249   2.386   0.199 -0.8501 -0.0435  0.9333
15319SOL    HW246536   9.233   2.270   0.103  0.6989  0.8809 -0.5067
15320SOL     OW46537   6.671   3.903   7.240  0.3029  0.0652 -0.4041
15320SOL    HW146538   6.727   3.960   7.292 -1.0424  1.2269 -0.1698
15320SOL    HW246539   6.664   3.823   7.291  1.5240 -0.0170 -0.3278
15321SOL     OW46540   2.574   4.382   7.156 -0.0427 -0.0030  0.1789
15321SOL    HW146541   2.630   4.455   7.183 -1.5828  1.1680  0.3445
15321SOL    HW246542   2.613   4.351   7.074  1.5022  0.0059  0.8722
15322SOL     OW46543   4.742   2.907   3.063  0.0083 -0.3923  0.0469
15322SOL    HW146544   4.692   2.862   2.995 -0.2339 -1.6315  1.0087
15322SOL    HW246545   4.832   2.879   3.049  0.4162  1.4534 -1.3792
15323SOL     OW46546   3.921   2.618   3.927 -0.7568 -0.0077 -0.1011
15323SOL    HW146547   3.879   2.572   3.999 -0.2966  0.4215  0.4474
15323SOL    HW246548   3.991   2.559   3.898 -1.8491 -0.8413 -1.1853
15324SOL     OW46549   8.288   3.616   4.391 -0.4253  0.0639 -0.2162
15324SOL    HW146550   8.225   3.570   4.446  1.3862 -1.0767  1.0056
15324SOL    HW246551   8.307   3.697   4.439 -1.5191  0.7970 -0.9832
15325SOL     OW46552   8.744   8.702   9.323  0.6515  0.0962  0.1265
15325SOL    HW146553   8.676   8.750   9.371 -0.2846 -2.0759  1.1138
15325SOL    HW246554   8.701   8.673   9.243  1.5534  1.8041 -1.0229
15326SOL     OW46555   0.125   3.210   0.489 -0.0166  0.2917  0.1999
15326SOL    HW146556   0.086   3.211   0.402 -0.1998  1.5822  0.2838
15326SOL    HW246557   0.197   3.273   0.485 -0.2709  0.6581  1.0853
15327SOL     OW46558   8.110   5.528   9.933 -0.5046  0.4927  0.4967
15327SOL    HW146559   8.018   5.530   9.959 -0.1101  0.0970  2.0418
15327SOL    HW246560   8.118   5.451   9.878 -1.6281  2.0243 -1.9901
15328SOL     OW46561   7.817   2.615   3.420 -0.2247  0.8388  0.5650
15328SOL    HW146562   7.794   2.704   3.448  0.4779  0.8049  1.2737
15328SOL    HW246563   7.893   2.592   3.473 -1.2369 -0.7220  1.3833
15329SOL     OW46564   5.866   6.127   4.812 -0.0064  0.0781 -0.5294
15329SOL    HW146565   5.846   6.141   4.720 -1.5780 -1.4531 -0.4604
15329SOL    HW246566   5.824   6.044   4.834  1.3058 -0.1645  1.2875
15330SOL     OW46567   1.332   5.120   6.306  0.0208 -0.8905  0.0555
15330SOL    HW146568   1.405   5.070   6.269  1.7202  1.3773  0.1332
15330SOL    HW246569   1.340   5.207   6.268 -2.0726 -0.2671  0.8618
15331SOL     OW46570   4.788   8.313   9.297  0.4801  0.0705  0.0661
15331SOL    HW146571   4.870   8.357   9.321  0.0898 -0.3256  2.3895
15331SOL    HW246572   4.732   8.383   9.264  1.2527  0.5916 -0.1746
15332SOL     OW46573   8.291   5.078   4.373  0.5052 -0.3831  0.3430
15332SOL    HW146574   8.216   5.133   4.351 -0.5405 -1.3065  1.4902
15332SOL    HW246575   8.282   5.001   4.318 -0.4339 -1.3172  1.7468
15333SOL     OW46576   4.021   4.345   5.657  0.2880 -0.4167  0.5428
15333SOL    HW146577   4.108   4.381   5.672  0.5372 -1.5840  2.0920
15333SOL    HW246578   4.015   4.337   5.562  2.5818 -1.9318  0.4412
15334SOL     OW46579   8.689   2.077   2.238  0.6333 -0.1194  0.2541
15334SOL    HW146580   8.608   2.062   2.287  0.7996  0.2567  0.6550
15334SOL    HW246581   8.755   2.094   2.306  0.5620  1.8621 -0.1273
15335SOL     OW46582   0.737   7.752   6.901 -0.5295  0.2359  0.3680
15335SOL    HW146583   0.643   7.757   6.918 -0.9012 -0.2203 -1.3252
15335SOL    HW246584   0.743   7.750   6.805  1.2316  0.6920  0.4441
15336SOL     OW46585   3.276   5.710   3.147  0.0990  0.1480 -0.3026
15336SOL    HW146586   3.182   5.697   3.140  0.0784 -0.4814  0.9652
15336SOL    HW246587   3.297   5.772   3.077 -1.3201  0.6716 -0.2838
15337SOL     OW46588   6.246   6.724   8.906 -0.0132  0.1500 -0.7669
15337SOL    HW146589   6.331   6.706   8.865  0.5535  0.5906  0.1949
15337SOL    HW246590   6.220   6.810   8.872  0.4549  0.5130 -0.2255
15338SOL     OW46591   3.043   2.458   4.124  0.0104 -0.4415  0.0977
15338SOL    HW146592   3.000   2.378   4.156  0.7722 -0.8634  0.0952
15338SOL    HW246593   3.102   2.428   4.055 -1.6310  0.4637 -1.8113
15339SOL     OW46594   2.691   1.848   8.136 -0.4995 -0.5337 -0.2635
15339SOL    HW146595   2.678   1.916   8.202 -2.7706 -0.3848 -0.8090
15339SOL    HW246596   2.786   1.834   8.135 -0.2215  0.8363  1.6249
15340SOL     OW46597   7.648   1.500   8.267 -0.0053  0.2505  0.2491
15340SOL    HW146598   7.741   1.481   8.271 -0.0330 -0.2011 -0.9584
15340SOL    HW246599   7.640   1.570   8.202 -0.3476  1.5346  1.6083
15341SOL     OW46600   4.347   8.195   6.109  0.1699  0.0729 -0.4703
15341SOL    HW146601   4.372   8.191   6.201  2.8291 -0.2870 -1.1166
15341SOL    HW246602   4.252   8.206   6.110  0.2032  0.8634  2.3022
15342SOL     OW46603   0.679   8.711   2.206 -0.1887 -0.4499 -0.4034
15342SOL    HW146604   0.743   8.677   2.144  1.5967  0.8258  0.6445
15342SOL    HW246605   0.720   8.790   2.241 -1.8528 -0.2380  1.1884
15343SOL     OW46606   9.239   4.274   9.383  0.3227 -0.4317  0.0886
15343SOL    HW146607   9.324   4.317   9.382  0.9908 -1.6793  0.0076
15343SOL    HW246608   9.176   4.345   9.392  1.3894  0.4938  0.5942
15344SOL     OW46609   7.341   6.097   6.269  0.1879 -0.7106  0.0950
15344SOL    HW146610   7.415   6.095   6.329 -0.6235 -1.0771  1.1178
15344SOL    HW246611   7.298   6.181   6.286  0.8658 -0.0802 -1.1490
15345SOL     OW46612   7.978   0.380   0.441 -0.2200  0.0484 -0.1532
15345SOL    HW146613   7.961   0.288   0.460  1.1901 -0.4389 -1.0569
15345SOL    HW246614   8.041   0.408   0.508  0.8823 -0.2388 -1.0389
15346SOL     OW46615   2.171   4.549   3.730 -0.2428  0.0876  0.5441
15346SOL    HW146616   2.147   4.503   3.650  0.2303 -1.7275  1.3875
15346SOL    HW246617   2.239   4.494   3.770 -0.5593  0.8657  2.2458
15347SOL     OW46618   7.331   2.437   8.787  0.7547 -0.0079  0.1566
15347SOL    HW146619   7.298   2.509   8.734 -0.0179  0.4944  1.2811
15347SOL    HW246620   7.391   2.390   8.730  1.2520  1.5066 -0.6010
15348SOL     OW46621   3.352   4.571   3.699 -0.2967  0.1967  0.6119
15348SOL    HW146622   3.279   4.509   3.701  0.1510 -0.3345  0.5987
15348SOL    HW246623   3.310   4.656   3.691 -0.9627 -0.0286  1.5131
15349SOL     OW46624   5.635   8.175   5.295  0.1696 -0.6653  0.7139
15349SOL    HW146625   5.616   8.222   5.214 -0.8038  1.8190  2.2633
15349SOL    HW246626   5.719   8.210   5.324 -0.7302  0.5176  2.0639
15350SOL     OW46627   7.089   6.032   3.097 -0.5840  0.5514 -0.1370
15350SOL    HW146628   7.068   5.939   3.103  0.8520  0.3025  1.9352
15350SOL    HW246629   7.004   6.076   3.100 -1.2073 -0.5857  2.9719
15351SOL     OW46630   2.598   9.656   2.527 -0.1488 -0.1239 -0.5164
15351SOL    HW146631   2.605   9.638   2.620  0.2428 -1.0446 -0.7101
15351SOL    HW246632   2.620   9.573   2.485  0.5934  0.5200 -1.4450
15352SOL     OW46633   3.680   2.850   5.377  0.4240  0.7740  0.9648
15352SOL    HW146634   3.733   2.787   5.425 -2.2608 -2.4820 -0.0187
15352SOL    HW246635   3.614   2.880   5.440 -1.2049 -1.1618  0.2902
15353SOL     OW46636   8.575   9.432   6.076  0.2092  0.1147  0.0981
15353SOL    HW146637   8.598   9.344   6.046 -1.4459 -0.1180 -0.5758
15353SOL    HW246638   8.618   9.441   6.161  1.6436 -0.7544 -0.5060
15354SOL     OW46639   0.700   5.120   3.775 -1.0131 -0.0666  0.4799
15354SOL    HW146640   0.786   5.098   3.741 -0.0517  3.1357  0.5264
15354SOL    HW246641   0.639   5.091   3.707  0.0174 -2.5707  0.5392
15355SOL     OW46642   5.409   0.524   0.713 -0.4143 -0.2848  0.4189
15355SOL    HW146643   5.359   0.603   0.733  0.4863  0.5387 -0.4311
15355SOL    HW246644   5.364   0.454   0.759 -2.0925  0.4913  0.0397
15356SOL     OW46645   0.486   5.408   6.636 -0.1047 -0.3183  0.5718
15356SOL    HW146646   0.435   5.453   6.569 -0.2897  1.2171  1.6913
15356SOL    HW246647   0.436   5.329   6.655 -0.6807 -0.1594 -0.2114
15357SOL     OW46648   5.153   7.974   2.806  0.2895 -0.2300 -0.5841
15357SOL    HW146649   5.114   8.060   2.795 -1.1387 -0.4007  2.2496
15357SOL    HW246650   5.126   7.946   2.893  0.4719 -3.6929 -1.4882
15358SOL     OW46651   6.529   4.163   8.543  0.1550 -0.7816  0.6361
15358SOL    HW146652   6.492   4.081   8.574 -2.4876 -1.1632 -2.9235
15358SOL    HW246653   6.465   4.229   8.567 -0.3441 -0.6294 -0.9761
15359SOL     OW46654   2.035   4.819   2.372 -0.9003  0.1856  0.1067
15359SOL    HW146655   2.014   4.744   2.317  1.8051 -0.3977 -0.2543
15359SOL    HW246656   2.129   4.830   2.362 -0.6217  1.2912  3.0891
15360SOL     OW46657   8.168   1.219   8.518 -0.0452  0.2399  0.6286
15360SOL    HW146658   8.234   1.252   8.578 -0.4630 -2.4266  2.7538
15360SOL    HW246659   8.119   1.154   8.569 -1.6196 -0.8774 -2.0769
15361SOL     OW46660   9.485   7.840   0.203 -0.1908 -0.4192  0.0946
15361SOL    HW146661   9.570   7.869   0.235  0.5081 -3.0788  0.8919
15361SOL    HW246662   9.430   7.834   0.282  0.0694 -2.2715  0.1936
15362SOL     OW46663   7.921   2.320   3.298  0.1033 -0.2346  0.2277
15362SOL    HW146664   7.990   2.325   3.232  0.7226  1.0412  0.9212
15362SOL    HW246665   7.935   2.398   3.353 -1.5242 -0.2640  0.7414
15363SOL     OW46666   5.508   7.100   1.002 -0.3389 -0.0644  0.0185
15363SOL    HW146667   5.539   7.140   1.083  2.0187 -0.4996 -0.5914
15363SOL    HW246668   5.413   7.104   1.008 -0.2914 -1.1556  3.3516
15364SOL     OW46669   0.274   7.231   9.239 -1.0358 -0.3333  0.0035
15364SOL    HW146670   0.190   7.233   9.285 -0.1129  1.2478  1.7504
15364SOL    HW246671   0.339   7.232   9.309  0.4573 -0.3943 -1.3343
15365SOL     OW46672   8.781   7.876   8.860  0.2197 -0.1679 -0.0885
15365SOL    HW146673   8.794   7.818   8.785  1.2885  0.0048 -0.0490
15365SOL    HW246674   8.732   7.950   8.824  0.5235 -0.1935 -0.5713
15366SOL     OW46675   7.587   2.372   0.635  0.1444  0.0091 -0.4038
15366SOL    HW146676   7.662   2.419   0.597 -1.1240  0.0884 -3.0020
15366SOL    HW246677   7.604   2.281   0.613  0.8895 -0.4039  1.6426
15367SOL     OW46678   5.775   4.303   3.762  0.2886  0.3821 -0.5086
15367SOL    HW146679   5.793   4.326   3.671  1.4939 -0.0033 -0.3867
15367SOL    HW246680   5.782   4.386   3.809  1.9080  0.2596 -0.4636
15368SOL     OW46681   6.020   6.540   4.342  0.1642 -0.1281 -0.2541
15368SOL    HW146682   6.024   6.635   4.350 -0.2026 -0.1465  0.1741
15368SOL    HW246683   6.102   6.516   4.300  0.4155  0.3400 -0.0354
15369SOL     OW46684   7.429   4.505   8.730 -0.0092  0.7114  0.2883
15369SOL    HW146685   7.463   4.421   8.699 -3.0466 -0.2262 -0.8445
15369SOL    HW246686   7.455   4.509   8.822 -1.2102 -2.3411  0.8645
15370SOL     OW46687   8.321   6.983   9.319  0.1988 -0.0047  0.5440
15370SOL    HW146688   8.275   7.036   9.384  1.3416  2.8088 -0.7670
15370SOL    HW246689   8.278   7.003   9.236  1.6222  0.0450 -0.2119
15371SOL     OW46690   5.192   2.314   7.901  0.4044  0.6095  0.2447
15371SOL    HW146691   5.282   2.284   7.914  0.6731  0.9121 -0.8457
15371SOL    HW246692   5.148   2.291   7.982  1.4671  0.4627  0.8018
15372SOL     OW46693   4.297   7.990   9.411  0.1371 -0.0874 -0.1204
15372SOL    HW146694   4.230   7.947   9.464  0.3128  1.4811  1.4609
15372SOL    HW246695   4.315   7.928   9.341 -3.2304 -0.4233 -0.8540
15373SOL     OW46696   2.706   3.619   0.656  0.2706  0.4947 -0.1302
15373SOL    HW146697   2.673   3.543   0.703 -1.0420  2.0489  1.5707
15373SOL    HW246698   2.801   3.605   0.651 -0.0279 -1.5933 -0.5661
15374SOL     OW46699   3.718   0.480   6.170  0.2429  0.1336  0.7473
15374SOL    HW146700   3.698   0.447   6.258 -1.4219  2.0890  1.1608
15374SOL    HW246701   3.663   0.428   6.112 -0.8720  0.7994  1.1855
15375SOL     OW46702   8.774   2.759   9.302  0.3276  0.4314 -0.3997
15375SOL    HW146703   8.831   2.833   9.279  1.5462 -0.5323 -0.5427
15375SOL    HW246704   8.832   2.683   9.305 -1.0286 -0.6753 -1.0185
15376SOL     OW46705   0.527   4.147   1.897  0.5173  0.5558  0.2868
15376SOL    HW146706   0.573   4.069   1.928 -1.9401 -0.4733  1.5802
15376SOL    HW246707   0.473   4.116   1.824  0.3882  1.3273  0.0371
15377SOL     OW46708   6.185   9.392   7.941  0.0355  0.4406  0.2188
15377SOL    HW146709   6.248   9.324   7.963 -0.0925  0.4721  0.6942
15377SOL    HW246710   6.207   9.465   7.999 -0.7727  0.2582  0.7720
15378SOL     OW46711   8.154   4.767   7.447  0.2259  0.1247 -0.2010
15378SOL    HW146712   8.151   4.700   7.378  0.3884 -1.0230  0.8633
15378SOL    HW246713   8.083   4.827   7.426 -1.0510 -1.3489 -0.2517
15379SOL     OW46714   6.447   9.158   3.185 -0.0308 -0.5444  0.1540
15379SOL    HW146715   6.412   9.244   3.159  0.0260 -0.3438  0.7253
15379SOL    HW246716   6.435   9.103   3.107  2.2515  0.6434 -1.1595
15380SOL     OW46717   1.233   4.663   0.374  0.2266  0.2030  0.1529
15380SOL    HW146718   1.158   4.633   0.425 -0.4726  0.8742 -0.4518
15380SOL    HW246719   1.309   4.644   0.430 -0.3249 -1.0685  0.5052
15381SOL     OW46720   8.524   8.447   8.761 -0.2092  0.0218  0.6038
15381SOL    HW146721   8.575   8.389   8.704 -1.5398 -0.1244 -0.4871
15381SOL    HW246722   8.454   8.480   8.705 -2.1338 -0.8571  2.3548
15382SOL     OW46723   3.846   2.354   0.857  0.2810  0.2701 -0.2336
15382SOL    HW146724   3.876   2.346   0.767 -2.4355 -3.1402 -0.9997
15382SOL    HW246725   3.784   2.427   0.856  1.2138  1.0940 -0.7240
15383SOL     OW46726   4.228   7.301   2.868  0.8173 -0.5267  0.7463
15383SOL    HW146727   4.240   7.228   2.808  0.4924 -0.9755  1.2185
15383SOL    HW246728   4.261   7.377   2.820  0.6023 -0.8833  0.0185
15384SOL     OW46729   2.215   7.073   9.487  0.3692 -0.6962 -0.1456
15384SOL    HW146730   2.214   7.165   9.512 -0.9967 -0.6713 -0.2161
15384SOL    HW246731   2.142   7.034   9.535  0.7408 -1.6856 -0.3451
15385SOL     OW46732   1.104   4.189   0.296  0.8724  0.2101 -0.1876
15385SOL    HW146733   1.171   4.220   0.355  0.4164  0.5162  0.1755
15385SOL    HW246734   1.054   4.125   0.347  1.5735 -0.8752 -0.8067
15386SOL     OW46735   5.464   9.038   6.755  0.2350 -0.8281 -0.0407
15386SOL    HW146736   5.464   8.975   6.827  3.0472  0.6352  1.3895
15386SOL    HW246737   5.416   9.113   6.788  0.1860 -0.7496 -0.2892
15387SOL     OW46738   7.383   4.784   8.842 -0.4176 -0.3087 -0.5032
15387SOL    HW146739   7.393   4.697   8.804  0.5723 -0.1610 -0.6099
15387SOL    HW246740   7.384   4.770   8.936  2.3984 -0.2093 -0.4334
15388SOL     OW46741   6.361   5.859   8.744 -0.8000  0.5436  0.3442
15388SOL    HW146742   6.321   5.813   8.670  1.5146  1.2673 -1.4795
15388SOL    HW246743   6.299   5.928   8.767 -0.8406  1.4074 -2.1162
15389SOL     OW46744   2.214   3.791   8.363 -0.1827 -0.2563  0.3812
15389SOL    HW146745   2.215   3.728   8.291  0.5502 -0.1709  0.3125
15389SOL    HW246746   2.295   3.841   8.353 -1.0813  1.1858  0.0130
15390SOL     OW46747   8.445   5.503   7.573 -0.1895 -0.3342 -0.1963
15390SOL    HW146748   8.409   5.576   7.522 -2.2102 -1.0798  0.0718
15390SOL    HW246749   8.383   5.492   7.645  2.2909  0.3094  2.1741
15391SOL     OW46750   4.982   9.645   2.592  0.2492  0.7174 -0.3735
15391SOL    HW146751   5.035   9.704   2.646 -2.3789  3.2696 -0.3304
15391SOL    HW246752   4.919   9.607   2.654 -1.5068  2.1243 -1.1915
15392SOL     OW46753   3.674   4.801   0.606  0.1912 -0.6565 -0.3963
15392SOL    HW146754   3.767   4.798   0.630  1.0146  5.0061 -1.4624
15392SOL    HW246755   3.674   4.800   0.510 -0.6111  1.0341 -0.4393
15393SOL     OW46756   6.568   4.437   3.638  0.1767  0.1805  0.2333
15393SOL    HW146757   6.513   4.365   3.670  0.9618 -1.5016 -1.9368
15393SOL    HW246758   6.652   4.396   3.619  0.7686  1.7641 -0.7361
15394SOL     OW46759   7.770   7.264   7.066 -0.5044  0.6169  0.4789
15394SOL    HW146760   7.676   7.280   7.051 -0.0996  1.5316 -1.4045
15394SOL    HW246761   7.781   7.171   7.051 -0.9844  0.6484 -0.1094
15395SOL     OW46762   9.178   6.958   5.791 -0.2276 -0.1483  0.1729
15395SOL    HW146763   9.107   6.929   5.850 -1.9322  0.4423 -1.4874
15395SOL    HW246764   9.147   7.041   5.756  0.1478 -1.0427 -2.4526
15396SOL     OW46765   0.293   7.394   9.851 -0.3045 -0.2832  0.1178
15396SOL    HW146766   0.205   7.373   9.882 -1.4007  2.2917 -0.9279
15396SOL    HW246767   0.337   7.430   9.929 -0.7781  0.0332  0.2442
15397SOL     OW46768   0.076   7.488   7.050 -0.7708  0.3734 -0.0996
15397SOL    HW146769  -0.014   7.493   7.080 -1.0692  0.6665 -1.0183
15397SOL    HW246770   0.076   7.419   6.984 -0.0717 -0.4444  0.7288
15398SOL     OW46771   7.105   4.083   7.749 -0.0095  0.6005  0.5338
15398SOL    HW146772   7.111   4.177   7.733  0.0261  0.3433 -1.1721
15398SOL    HW246773   7.196   4.054   7.754  0.0572  0.3183 -1.4391
15399SOL     OW46774   6.489   3.785   1.236  0.0331  0.0578 -0.0487
15399SOL    HW146775   6.436   3.855   1.274  0.0973 -0.8580  1.8337
15399SOL    HW246776   6.516   3.819   1.151 -0.8714  1.8495  0.3344
15400SOL     OW46777   2.966   5.661   8.818  0.9381 -0.0095  0.6026
15400SOL    HW146778   3.020   5.582   8.825  1.2500  0.1515  0.1238
15400SOL    HW246779   3.028   5.733   8.833  0.1549  0.1299  3.9759
15401SOL     OW46780   7.867   9.345   2.872  0.5148 -0.1560  0.6390
15401SOL    HW146781   7.804   9.417   2.879 -0.0957 -0.4198 -1.5374
15401SOL    HW246782   7.886   9.322   2.963 -1.8213  0.5394  1.3858
15402SOL     OW46783   8.579   1.008   2.070 -0.2027  0.6763 -0.1254
15402SOL    HW146784   8.613   1.036   1.985 -1.0777  1.2314 -0.3062
15402SOL    HW246785   8.519   1.078   2.096  0.0209  0.4890  0.9325
15403SOL     OW46786   5.582   5.456   4.886  0.4144 -0.2014  0.6371
15403SOL    HW146787   5.614   5.496   4.967 -0.2322  1.1862  0.2402
15403SOL    HW246788   5.614   5.515   4.817  0.7433 -1.2251 -0.1037
15404SOL     OW46789   1.282   3.640   8.359  0.3144 -0.2094 -0.2424
15404SOL    HW146790   1.253   3.728   8.338  1.1576 -0.7730 -4.8808
15404SOL    HW246791   1.359   3.652   8.414 -0.0354  1.9226 -0.1591
15405SOL     OW46792   1.418   1.589   8.195 -0.3489 -0.0483 -0.0574
15405SOL    HW146793   1.392   1.599   8.103 -0.4732 -1.7467 -0.2520
15405SOL    HW246794   1.398   1.673   8.235 -1.1421  0.4365 -1.3903
15406SOL     OW46795   5.715   5.441   4.022 -0.4369  0.5712  0.1283
15406SOL    HW146796   5.712   5.417   3.929 -1.2281  2.0095 -0.2431
15406SOL    HW246797   5.624   5.434   4.051 -0.1747 -0.0241  0.8674
15407SOL     OW46798   3.943   5.794   3.636 -0.1030 -0.5355 -0.5087
15407SOL    HW146799   4.013   5.833   3.689 -0.3158  0.4682 -0.9453
15407SOL    HW246800   3.900   5.869   3.595 -1.5075 -1.1275 -0.1609
15408SOL     OW46801   0.321   0.353   9.237 -0.3280 -0.5449 -0.2108
15408SOL    HW146802   0.255   0.388   9.177  0.5772 -1.0354 -1.5270
15408SOL    HW246803   0.330   0.261   9.213  1.4833 -0.2775 -0.6728
15409SOL     OW46804   0.442   0.791   9.923 -0.1296  0.8301 -0.5823
15409SOL    HW146805   0.530   0.793   9.885  0.4418  0.7166  0.6643
15409SOL    HW246806   0.446   0.854   9.995  0.0431 -1.6332  1.7188
15410SOL     OW46807   2.825   9.238   7.549 -0.0744 -0.0736 -0.6276
15410SOL    HW146808   2.846   9.328   7.571  1.8035 -0.1659 -1.8201
15410SOL    HW246809   2.904   9.188   7.571 -1.1582 -1.4944  0.2475
15411SOL     OW46810   4.871   5.842   9.743 -0.0871 -0.0530  0.6221
15411SOL    HW146811   4.792   5.887   9.773 -0.3131 -0.3139  0.4255
15411SOL    HW246812   4.916   5.818   9.824  0.4194  1.1789  0.7248
15412SOL     OW46813   7.060   4.886   2.161  0.4216 -0.8860 -0.0197
15412SOL    HW146814   6.968   4.899   2.136  0.7936  0.4391 -0.8134
15412SOL    HW246815   7.080   4.961   2.217  2.0427  1.0686 -2.9385
15413SOL     OW46816   4.617   7.790   4.117 -0.5487  0.0465  0.0688
15413SOL    HW146817   4.544   7.753   4.168 -1.5282 -0.8776 -1.9086
15413SOL    HW246818   4.695   7.760   4.163 -1.3811 -0.7286  1.0451
15414SOL     OW46819   6.773   0.304   8.294  0.5671  0.4539 -0.0411
15414SOL    HW146820   6.690   0.349   8.281  0.6072  0.7073  0.5469
15414SOL    HW246821   6.832   0.342   8.228 -0.1695 -0.7909 -1.4888
15415SOL     OW46822   7.410   8.972   1.923 -0.3299  0.6461 -0.4368
15415SOL    HW146823   7.335   8.994   1.867 -0.7887  0.5481  0.1340
15415SOL    HW246824   7.442   9.057   1.954 -1.1651  0.6127  0.5528
15416SOL     OW46825   0.140   9.568   1.820 -0.5012 -0.4353 -0.5355
15416SOL    HW146826   0.137   9.656   1.781  0.5401  0.3698  1.0917
15416SOL    HW246827   0.193   9.579   1.899 -1.1677 -2.3422  0.2245
15417SOL     OW46828   3.936   6.776   3.073 -0.1949  0.3791  0.1537
15417SOL    HW146829   3.859   6.809   3.120  0.8643  1.3553  1.2946
15417SOL    HW246830   3.952   6.689   3.111 -0.4066  0.4136  0.3226
15418SOL     OW46831   0.312  -0.000   2.156 -0.4279 -0.0151  0.2130
15418SOL    HW146832   0.298   0.074   2.216 -2.4699  0.1686 -0.4212
15418SOL    HW246833   0.254   0.017   2.082  0.3550 -1.3953 -0.7730
15419SOL     OW46834   3.231   5.520   0.077 -0.2733  0.1022  0.4307
15419SOL    HW146835   3.246   5.550   0.167  0.2663 -0.8159  0.6611
15419SOL    HW246836   3.154   5.463   0.084 -0.1757 -0.0438  0.3392
15420SOL     OW46837   3.293   6.279   4.210 -0.1365  0.1857 -0.1524
15420SOL    HW146838   3.323   6.216   4.275  2.7807  0.0798 -1.4278
15420SOL    HW246839   3.335   6.362   4.235  0.4392  0.3094 -1.4242
15421SOL     OW46840   4.785   7.568   2.935 -0.4615  0.0122 -0.1360
15421SOL    HW146841   4.702   7.525   2.956 -0.9353  0.6033 -0.7148
15421SOL    HW246842   4.784   7.649   2.986  0.0970 -0.3173  0.4069
15422SOL     OW46843   7.639   9.339   1.069 -0.3901  0.9589 -0.3610
15422SOL    HW146844   7.554   9.381   1.063 -1.1163  0.0927  2.4775
15422SOL    HW246845   7.619   9.247   1.085  1.0227  0.8609  1.0821
15423SOL     OW46846   8.652   5.693   1.275  0.3106 -0.0158  0.1425
15423SOL    HW146847   8.694   5.710   1.191 -0.3447  0.9547 -0.0017
15423SOL    HW246848   8.609   5.608   1.263  2.3584 -1.1729  0.3740
15424SOL     OW46849   9.226   8.972   6.183 -0.4541 -0.0395 -0.6395
15424SOL    HW146850   9.143   9.019   6.183 -0.0891  0.6276 -1.4001
15424SOL    HW246851   9.289   9.034   6.148  0.5217 -0.3043  0.5888
15425SOL     OW46852   7.791   6.109   0.936  0.5387 -0.5944  0.4202
15425SOL    HW146853   7.885   6.098   0.949  0.8644 -0.0017 -1.1969
15425SOL    HW246854   7.770   6.052   0.863 -0.3375 -0.6102  0.6773
15426SOL     OW46855   3.384   7.933   5.162 -0.4154 -0.2755  0.7034
15426SOL    HW146856   3.306   7.945   5.215 -1.2218 -0.5611 -0.3835
15426SOL    HW246857   3.448   7.995   5.199 -0.8980 -0.5467  2.0525
15427SOL     OW46858   4.737   1.377   5.444  0.0459 -0.6203 -0.4439
15427SOL    HW146859   4.730   1.300   5.388 -0.0459 -0.8126 -0.1762
15427SOL    HW246860   4.670   1.362   5.512 -0.7325  0.2191 -1.0134
15428SOL     OW46861   3.670   3.937   4.464 -0.0108  0.1555 -0.1187
15428SOL    HW146862   3.600   3.954   4.528  0.4331 -1.7209  0.9343
15428SOL    HW246863   3.651   3.997   4.392 -1.7234  0.8930  0.8801
15429SOL     OW46864   4.357   2.288   9.196  0.0349  0.2138 -0.2127
15429SOL    HW146865   4.300   2.347   9.245 -0.4240  0.1076 -0.6193
15429SOL    HW246866   4.308   2.206   9.190  0.7704 -0.2995  0.5684
15430SOL     OW46867   2.247   3.006   6.871  0.2665  0.3772  0.7216
15430SOL    HW146868   2.204   2.962   6.797 -0.0740  0.9983  0.5400
15430SOL    HW246869   2.300   2.938   6.912  0.8459  0.1303 -0.3863
15431SOL     OW46870   4.204   2.119   8.712  0.3627 -0.0399  0.0769
15431SOL    HW146871   4.151   2.040   8.722  0.2143  0.0913  0.3244
15431SOL    HW246872   4.292   2.086   8.696  0.5619 -0.2697  1.5092
15432SOL     OW46873   5.395   3.894   0.726  0.2899 -0.7313 -0.6414
15432SOL    HW146874   5.334   3.874   0.654  1.6830 -2.6580 -1.3807
15432SOL    HW246875   5.456   3.956   0.688 -1.6274  1.9845  0.3925
15433SOL     OW46876   0.436   4.505   0.985  0.8975  0.9494  0.2915
15433SOL    HW146877   0.484   4.456   1.051 -1.8814 -0.3903  1.4450
15433SOL    HW246878   0.401   4.439   0.926 -1.3335  1.5987  0.7837
15434SOL     OW46879   2.483   7.958   9.063 -0.1820  0.3519  0.4096
15434SOL    HW146880   2.476   8.048   9.095 -0.1411  0.8165 -0.8600
15434SOL    HW246881   2.525   7.965   8.977 -0.0378 -0.8938  0.3526
15435SOL     OW46882   3.902   1.285   6.166 -0.0998  0.1808  0.0388
15435SOL    HW146883   3.897   1.243   6.252 -0.0089 -1.3413 -0.6740
15435SOL    HW246884   3.970   1.236   6.120 -1.1157  0.0679 -1.3817
15436SOL     OW46885   1.994   5.251   7.148  0.8142  0.0271 -0.3265
15436SOL    HW146886   2.057   5.322   7.138  1.9726 -1.1314 -1.7250
15436SOL    HW246887   2.041   5.173   7.120 -0.8109 -1.1102 -0.0438
15437SOL     OW46888   5.734   1.357   6.790 -0.2595  0.1033  0.1416
15437SOL    HW146889   5.675   1.323   6.722 -0.9773  0.3929  0.6092
15437SOL    HW246890   5.710   1.449   6.798 -0.2960  0.0299  0.9078
15438SOL     OW46891   5.423   1.703   6.935 -0.0843  0.1478  0.2820
15438SOL    HW146892   5.329   1.711   6.922 -0.3901  0.8920  2.4961
15438SOL    HW246893   5.432   1.652   7.016  1.2157  3.3706  2.3538
15439SOL     OW46894   0.704   7.381   0.966 -0.1849 -0.3301  0.6122
15439SOL    HW146895   0.661   7.316   0.909  0.9686 -0.3122 -0.3254
15439SOL    HW246896   0.639   7.450   0.977 -1.1108 -1.2220  0.8781
15440SOL     OW46897   6.242   5.103   9.743  0.2789 -0.3978 -0.3064
15440SOL    HW146898   6.178   5.137   9.680  0.5854 -1.1843 -1.0760
15440SOL    HW246899   6.315   5.073   9.688  0.9620 -0.2366  0.5008
15441SOL     OW46900   9.392   9.189   0.665  0.2489  0.3355 -0.1336
15441SOL    HW146901   9.386   9.192   0.570  1.9127  0.1454 -0.2779
15441SOL    HW246902   9.484   9.206   0.684  0.3816 -1.6631  1.3391
15442SOL     OW46903   3.630   4.751   6.598  0.1552  0.4308 -0.1305
15442SOL    HW146904   3.543   4.713   6.602  0.5478 -0.3952  1.0960
15442SOL    HW246905   3.687   4.679   6.573  0.5810  0.7975 -0.2431
15443SOL     OW46906   1.674   8.457   4.826  0.3268 -0.5540 -0.3333
15443SOL    HW146907   1.664   8.552   4.827  0.3409 -0.5586  0.3152
15443SOL    HW246908   1.694   8.437   4.734  2.3370  0.2755 -0.1401
15444SOL     OW46909   8.628   2.900   5.720  0.0488 -0.2460 -0.7180
15444SOL    HW146910   8.673   2.977   5.753  1.5441 -0.0204 -3.0071
15444SOL    HW246911   8.654   2.895   5.628  0.3617 -3.7140 -0.5695
15445SOL     OW46912   4.398   2.845   2.669 -0.0077  0.3838 -0.1763
15445SOL    HW146913   4.456   2.847   2.744 -0.9813  1.0493  0.5800
15445SOL    HW246914   4.358   2.757   2.672  0.0192  0.3786  0.0332
15446SOL     OW46915   7.218   1.040   0.023 -0.4492  0.1030  0.2752
15446SOL    HW146916   7.194   1.030   0.115  0.7057 -0.2201  0.5590
15446SOL    HW246917   7.152   0.990  -0.024  0.1417 -1.5302  1.0915
15447SOL     OW46918   7.739   9.839   3.858  0.0713  0.3187  0.6575
15447SOL    HW146919   7.645   9.857   3.859 -0.2476 -1.1807  0.0939
15447SOL    HW246920   7.754   9.788   3.938  0.8627  2.4266  1.9475
15448SOL     OW46921   3.012   2.190   5.810 -0.2441 -0.3014 -0.1172
15448SOL    HW146922   2.916   2.190   5.816 -0.2094  0.7923  0.7631
15448SOL    HW246923   3.036   2.282   5.808  0.8200 -0.5620  0.0444
15449SOL     OW46924   5.902   2.902   0.757  0.1324 -0.6210 -0.5220
15449SOL    HW146925   5.912   2.983   0.807 -1.2988  0.0587 -1.3041
15449SOL    HW246926   5.816   2.909   0.716  0.4794 -2.0217 -1.5541
15450SOL     OW46927   1.686   4.438   0.200  0.3265  0.0203 -0.4963
15450SOL    HW146928   1.610   4.443   0.258  0.3031 -2.7551 -0.1472
15450SOL    HW246929   1.761   4.427   0.258  0.7478  0.6570 -0.9075
15451SOL     OW46930   7.128   6.380   5.288  0.3704 -0.1472 -0.4796
15451SOL    HW146931   7.188   6.440   5.244  0.3699  0.5627  0.4346
15451SOL    HW246932   7.063   6.437   5.329 -0.1652 -0.8284 -0.3573
15452SOL     OW46933   7.789   1.106   8.102 -0.0254 -0.5010  0.0328
15452SOL    HW146934   7.724   1.040   8.080 -2.7376  1.7096  0.8001
15452SOL    HW246935   7.794   1.104   8.198 -0.7528  0.8664  0.1233
15453SOL     OW46936   8.662   2.761   2.125  0.0679  0.1864 -0.4682
15453SOL    HW146937   8.712   2.772   2.044  0.4268 -0.3530 -0.3262
15453SOL    HW246938   8.660   2.666   2.139 -1.4459  0.1580 -0.7514
15454SOL     OW46939   7.107   6.050   6.468  0.1855 -0.2072  0.0560
15454SOL    HW146940   7.177   6.037   6.404 -0.7132 -1.3599 -0.7369
15454SOL    HW246941   7.030   6.073   6.415 -0.8818 -2.3657  0.5324
15455SOL     OW46942   7.921   0.186   7.975 -0.0691  0.1583 -0.4320
15455SOL    HW146943   7.924   0.171   8.070 -0.9032  0.3066 -0.3722
15455SOL    HW246944   7.996   0.137   7.941  0.3072  0.1947  0.3122
15456SOL     OW46945   1.599   8.791   8.961 -0.0480 -0.0900 -0.5425
15456SOL    HW146946   1.594   8.883   8.937  0.6955  0.1332  0.1286
15456SOL    HW246947   1.692   8.775   8.975 -0.2839 -0.6450  0.4772
15457SOL     OW46948   3.047   3.196   1.689 -0.0736  0.2169 -0.0505
15457SOL    HW146949   2.955   3.205   1.667 -0.0668 -0.0636 -0.1994
15457SOL    HW246950   3.070   3.106   1.663  0.1010  0.1014  0.4911
15458SOL     OW46951   5.585   3.594   7.856  0.3206  0.5312  0.4274
15458SOL    HW146952   5.512   3.612   7.797  1.7129 -0.3330 -1.6622
15458SOL    HW246953   5.583   3.499   7.869  2.8226 -0.0219 -2.2419
15459SOL     OW46954   3.529   1.020   9.337  0.4919 -0.3861  0.1839
15459SOL    HW146955   3.581   0.940   9.323 -0.7376 -0.8831 -1.8537
15459SOL    HW246956   3.551   1.076   9.264 -0.4216  0.1814  0.3306
15460SOL     OW46957   7.126   6.209   1.451 -0.2187 -0.6273  0.0677
15460SOL    HW146958   7.140   6.214   1.356 -1.1941  1.5831 -0.0035
15460SOL    HW246959   7.182   6.136   1.479  1.7253  0.0091 -1.8874
15461SOL     OW46960   8.962   6.341   3.376  0.0687  0.3605  0.4515
15461SOL    HW146961   8.968   6.358   3.470 -0.0695 -1.4012  0.8136
15461SOL    HW246962   9.023   6.268   3.361 -1.2157 -0.5607 -0.4927
15462SOL     OW46963   7.627   9.218   3.267 -0.0733  0.3146 -0.0161
15462SOL    HW146964   7.535   9.191   3.258 -0.0735 -0.1823  1.2937
15462SOL    HW246965   7.622   9.309   3.298 -0.1234  0.2804  0.0770
15463SOL     OW46966   1.404   0.044   4.118 -0.0500  0.0865  0.1394
15463SOL    HW146967   1.443   0.037   4.205  2.4029 -1.3753 -0.9795
15463SOL    HW246968   1.431   0.129   4.086 -0.9221  0.6098  0.7503
15464SOL     OW46969   9.485   4.781   5.533 -0.0492 -0.6311 -0.2581
15464SOL    HW146970   9.485   4.765   5.628  1.3594 -0.4629 -0.2015
15464SOL    HW246971   9.411   4.840   5.519  1.5939  2.0191  1.2810
15465SOL     OW46972   0.290   1.985   1.713  0.4746  0.0474 -0.3086
15465SOL    HW146973   0.223   2.020   1.772 -1.0549 -2.2973 -0.5215
15465SOL    HW246974   0.332   1.916   1.764 -0.6816 -1.8308 -1.7986
15466SOL     OW46975   8.589   6.779   5.901 -0.0583  0.0095  0.4050
15466SOL    HW146976   8.531   6.831   5.846 -1.2456 -0.7491  0.8901
15466SOL    HW246977   8.566   6.688   5.882 -0.0322 -0.2816  1.6389
15467SOL     OW46978   7.238   9.584   9.176  0.1029  0.3309 -0.2135
15467SOL    HW146979   7.158   9.560   9.223 -0.3135 -1.5955 -1.7838
15467SOL    HW246980   7.307   9.535   9.219  0.1800  0.7678  0.1591
15468SOL     OW46981   5.134   7.466   7.609  0.6842  0.3115  0.3676
15468SOL    HW146982   5.144   7.382   7.564  1.0533 -0.4133  1.7459
15468SOL    HW246983   5.138   7.444   7.702 -0.1935  1.7427  0.7776
15469SOL     OW46984   8.600   5.246   9.567  0.3460  0.2326  0.3265
15469SOL    HW146985   8.674   5.282   9.616  0.9893  0.5893 -0.8801
15469SOL    HW246986   8.607   5.151   9.581  1.5336  0.1862 -0.4267
15470SOL     OW46987   5.339   2.379   4.189 -0.1422 -0.5749  0.3880
15470SOL    HW146988   5.386   2.383   4.272 -0.7092 -0.5927  0.7173
15470SOL    HW246989   5.407   2.387   4.122  0.4501 -1.6555  0.8308
15471SOL     OW46990   2.845   7.448   1.877 -0.4712 -0.0332  0.2580
15471SOL    HW146991   2.842   7.364   1.831 -0.1828  0.0489  0.0905
15471SOL    HW246992   2.753   7.470   1.891 -0.5929  0.2910 -0.9291
15472SOL     OW46993   9.372   2.931   2.831  0.2693  0.3453 -0.4464
15472SOL    HW146994   9.401   2.904   2.743 -0.3920 -0.9671 -0.2899
15472SOL    HW246995   9.373   2.850   2.882 -3.7217  0.0432 -0.4743
15473SOL     OW46996   8.589   1.606   8.100  0.4867 -0.6680  0.0967
15473SOL    HW146997   8.632   1.623   8.016  1.0112  1.5559  0.7487
15473SOL    HW246998   8.644   1.540   8.143  1.8074  0.2408 -0.1535
15474SOL     OW46999   7.742   2.229   4.564 -0.8763  0.6211 -0.0947
15474SOL    HW147000   7.737   2.237   4.659  2.4162 -0.6954  0.3172
15474SOL    HW247001   7.763   2.317   4.533  1.4750  0.4644  0.8417
15475SOL     OW47002   2.266   6.896   7.532  0.4319 -0.3382 -0.0082
15475SOL    HW147003   2.305   6.902   7.444  1.2607 -1.5394  0.2522
15475SOL    HW247004   2.284   6.980   7.573 -0.2822  0.3775 -1.1022
15476SOL     OW47005   4.111   7.292   1.078 -0.2193  0.3150  0.0472
15476SOL    HW147006   4.087   7.204   1.050  0.1114 -0.1384  1.1686
15476SOL    HW247007   4.172   7.323   1.011  1.2211 -1.0760  0.6650
15477SOL     OW47008   3.500   4.869   3.694 -0.1664  0.3535 -0.4666
15477SOL    HW147009   3.570   4.850   3.757  0.5790 -0.1369 -1.4063
15477SOL    HW247010   3.464   4.953   3.723  0.5302  0.4036  0.2872
15478SOL     OW47011   0.802   3.092   2.976  0.3555 -0.0466  0.1536
15478SOL    HW147012   0.747   3.167   3.000  1.3922  0.8891 -0.2704
15478SOL    HW247013   0.740   3.024   2.949 -0.5844  1.6778 -2.4065
15479SOL     OW47014   1.766   5.890   7.712  0.6126 -0.3205 -0.1749
15479SOL    HW147015   1.836   5.896   7.777  1.7766 -0.1917 -1.4024
15479SOL    HW247016   1.772   5.972   7.663  0.4498 -0.8552 -1.1051
15480SOL     OW47017   7.623   3.440   7.718  0.4507  0.1618  0.7284
15480SOL    HW147018   7.713   3.411   7.730  0.7649 -0.0523 -1.7547
15480SOL    HW247019   7.570   3.374   7.763  1.4566 -0.4521  1.0360
15481SOL     OW47020   4.454   0.652   1.751  0.1188 -0.0583  0.6116
15481SOL    HW147021   4.524   0.596   1.783 -0.0634  0.6084  2.3258
15481SOL    HW247022   4.394   0.593   1.705  1.3054 -0.7792 -0.0554
15482SOL     OW47023   0.487   2.458   9.352 -0.1816  0.5115 -0.7339
15482SOL    HW147024   0.402   2.417   9.336 -0.0194 -0.7422  1.2740
15482SOL    HW247025   0.551   2.389   9.332  0.1767  0.3452  0.8293
15483SOL     OW47026   4.265   4.669   2.716 -0.3489  0.1284  0.1570
15483SOL    HW147027   4.270   4.741   2.779 -0.3834  2.9495 -2.7982
15483SOL    HW247028   4.190   4.691   2.661  1.5236 -0.3624 -2.7936
15484SOL     OW47029   8.100   2.397   8.788 -0.4615 -0.2680 -0.0724
15484SOL    HW147030   8.006   2.400   8.805 -0.2551  0.6769  0.9938
15484SOL    HW247031   8.141   2.386   8.874  0.3976 -0.9536 -0.5499
15485SOL     OW47032   0.602   8.120   0.094  0.5466  0.1768  0.1586
15485SOL    HW147033   0.557   8.089   0.172 -1.4412 -0.8320 -1.3044
15485SOL    HW247034   0.631   8.040   0.050  0.5798  0.6665 -0.7375
15486SOL     OW47035   4.111   1.197   4.780  0.2521  0.5858  0.5854
15486SOL    HW147036   4.096   1.160   4.867  2.0680  0.1272  0.7570
15486SOL    HW247037   4.094   1.124   4.720 -0.5648  0.7743  0.5834
15487SOL     OW47038   6.746   0.142   8.526  0.2664  0.3160  0.0138
15487SOL    HW147039   6.776   0.207   8.463  0.4645  1.5785  1.3530
15487SOL    HW247040   6.818   0.079   8.532  0.0971 -0.0220 -1.2496
15488SOL     OW47041   6.763   1.665   3.137 -0.1109 -0.4495  0.4574
15488SOL    HW147042   6.812   1.594   3.095 -0.5779 -0.4483 -0.0885
15488SOL    HW247043   6.824   1.739   3.136 -0.1737 -0.4032 -0.3595
15489SOL     OW47044   0.681   3.275   3.307 -0.4026 -0.3941 -0.0832
15489SOL    HW147045   0.648   3.213   3.242  3.1766 -2.5127 -0.1080
15489SOL    HW247046   0.675   3.228   3.390  2.2402 -0.8516 -0.0848
15490SOL     OW47047   2.997   1.688   6.490  0.2519 -0.4624  0.0527
15490SOL    HW147048   3.025   1.630   6.418 -2.1191 -0.0817 -1.2655
15490SOL    HW247049   3.005   1.776   6.454  0.3357 -0.1778  0.7580
15491SOL     OW47050   2.811   9.060   8.090  0.6895 -0.1693 -0.1257
15491SOL    HW147051   2.851   9.038   8.006  0.4502 -1.2175  0.0203
15491SOL    HW247052   2.836   8.988   8.149 -1.9282 -1.2650 -0.2163
15492SOL     OW47053   5.736   2.370   2.608  0.5890 -0.3916 -0.6449
15492SOL    HW147054   5.771   2.454   2.579  1.3307  1.6033  4.8281
15492SOL    HW247055   5.644   2.371   2.578  1.1149  1.3286 -2.4331
15493SOL     OW47056   6.171   1.582   4.284 -0.0942 -0.1621  0.1435
15493SOL    HW147057   6.124   1.664   4.266  0.8529  0.3651  0.0247
15493SOL    HW247058   6.181   1.581   4.380  0.3825  0.1388  0.0983
15494SOL     OW47059   9.357   7.486   7.316 -0.0650  0.3449 -0.1448
15494SOL    HW147060   9.436   7.473   7.368  0.2583  0.1475 -0.6708
15494SOL    HW247061   9.362   7.418   7.248 -1.0672 -0.1534  0.2661
15495SOL     OW47062   7.264   6.355   4.342  0.1422  0.0345  0.0265
15495SOL    HW147063   7.308   6.412   4.279  0.0761  0.9336  0.7769
15495SOL    HW247064   7.313   6.365   4.423  0.2548 -1.1476  0.1244
15496SOL     OW47065   5.778   4.160   8.724 -0.0721 -0.0661  0.1192
15496SOL    HW147066   5.752   4.074   8.757 -2.0208  0.9057  1.3060
15496SOL    HW247067   5.747   4.161   8.633  2.4913 -1.5810 -0.8903
15497SOL     OW47068   4.888   3.196   5.123  0.3233 -0.1497 -0.1822
15497SOL    HW147069   4.812   3.242   5.088 -0.2782  0.0234  1.3115
15497SOL    HW247070   4.917   3.139   5.051 -2.6486 -1.9944 -0.0662
15498SOL     OW47071   0.518   4.077   7.836 -1.0622  0.0725  0.9231
15498SOL    HW147072   0.486   4.028   7.760  0.3757 -0.0114  0.3426
15498SOL    HW247073   0.608   4.049   7.846 -0.4093  2.0601  1.0252
15499SOL     OW47074   1.401   1.797   9.313  0.2009  0.0574 -0.3276
15499SOL    HW147075   1.344   1.736   9.359  0.4493  0.1218  0.0760
15499SOL    HW247076   1.362   1.883   9.330  0.8099  0.1725  0.5552
15500SOL     OW47077   6.499   3.398   4.198  0.2236  0.2824 -0.5138
15500SOL    HW147078   6.552   3.416   4.275 -0.8450  0.2354  0.2579
15500SOL    HW247079   6.414   3.370   4.233 -0.9187  2.0582 -1.6945
15501SOL     OW47080   0.826   7.287   9.356  0.4334  0.5105  0.7909
15501SOL    HW147081   0.805   7.304   9.448 -3.2459  0.8721  0.0360
15501SOL    HW247082   0.845   7.373   9.319 -0.2903  0.6572  0.7555
15502SOL     OW47083   1.792   4.617   7.229  0.1648 -0.2460 -0.3433
15502SOL    HW147084   1.820   4.566   7.304  2.1220  0.8009 -0.2896
15502SOL    HW247085   1.737   4.686   7.266 -0.0762 -0.5778 -0.0727
15503SOL     OW47086   1.481   8.083   6.754 -0.0761  0.2302 -0.4349
15503SOL    HW147087   1.495   8.100   6.661  0.1996 -1.0893 -0.6426
15503SOL    HW247088   1.393   8.118   6.771  0.3555  1.6249 -0.8702
15504SOL     OW47089   1.302   0.327   6.159 -0.0383  0.1117  0.3691
15504SOL    HW147090   1.360   0.392   6.119  1.6118 -0.6517  1.4228
15504SOL    HW247091   1.282   0.364   6.246 -0.2081 -0.1682  0.4490
15505SOL     OW47092   5.390   0.343   1.126  0.4663  0.2680  0.2619
15505SOL    HW147093   5.482   0.367   1.138  0.4053  1.1302 -0.7253
15505SOL    HW247094   5.367   0.292   1.203  2.2021 -1.3057 -0.1973
15506SOL     OW47095   2.541   1.054   5.696 -0.2111 -0.3151  0.5235
15506SOL    HW147096   2.563   1.016   5.781  1.4529  0.1337  0.3152
15506SOL    HW247097   2.489   1.132   5.718  0.9368  0.2905  1.1953
15507SOL     OW47098   3.502   3.035   6.964 -0.1069  0.1736 -0.3471
15507SOL    HW147099   3.487   3.106   7.026 -0.4768  0.5605 -0.8730
15507SOL    HW247100   3.425   3.036   6.907 -0.1007 -0.6277 -0.3822
15508SOL     OW47101   0.792   1.414   7.348  0.1961  0.5119 -0.0495
15508SOL    HW147102   0.784   1.322   7.373  0.0407  0.4824 -0.2010
15508SOL    HW247103   0.749   1.462   7.419  1.0796  0.5308  0.4800
15509SOL     OW47104   5.406   4.074   9.015  0.1023 -0.1457 -0.1025
15509SOL    HW147105   5.423   4.075   8.921 -0.1356 -0.9400 -0.1652
15509SOL    HW247106   5.490   4.094   9.055  0.1411  0.4981 -0.4829
15510SOL     OW47107   8.306   6.867   2.005 -0.2436 -0.0227 -0.5696
15510SOL    HW147108   8.362   6.940   2.031 -1.3426  0.3267  0.9531
15510SOL    HW247109   8.250   6.851   2.081 -0.0785 -2.4336 -0.8651
15511SOL     OW47110   7.118   7.602   0.913  0.3845 -0.5862  0.1397
15511SOL    HW147111   7.144   7.510   0.904 -0.6512 -0.8863  0.0437
15511SOL    HW247112   7.082   7.607   1.002  2.8110  0.3643  1.1514
15512SOL     OW47113   3.047   6.558   5.323 -0.1376  0.3797 -0.0827
15512SOL    HW147114   3.018   6.647   5.347 -0.5322  0.0419  0.7183
15512SOL    HW247115   2.973   6.502   5.347 -0.5344 -0.0035 -2.0246
15513SOL     OW47116   8.690   4.816   4.099  0.0743  0.1337  0.1142
15513SOL    HW147117   8.687   4.905   4.133  0.0410 -0.2190  1.0621
15513SOL    HW247118   8.608   4.806   4.052  0.5886  0.9841 -1.0241
15514SOL     OW47119   4.871   0.393   7.574  0.2097  0.2746 -0.4015
15514SOL    HW147120   4.925   0.472   7.574  1.1583 -0.3318 -2.2866
15514SOL    HW247121   4.933   0.321   7.574 -0.6238 -0.4672 -0.5641
15515SOL     OW47122   4.575   1.668   2.665  0.0368 -0.0797  0.0958
15515SOL    HW147123   4.549   1.672   2.757  0.3395 -1.3320  0.2565
15515SOL    HW247124   4.494   1.650   2.618 -0.7716  3.7173 -0.3155
15516SOL     OW47125   8.020   2.344   6.155 -0.0153 -0.5974  0.1013
15516SOL    HW147126   8.050   2.413   6.214  1.6134 -2.0584  1.1208
15516SOL    HW247127   7.947   2.304   6.201 -0.7891  0.2531 -0.3679
15517SOL     OW47128   6.716   4.820   6.314  0.0306  0.0036 -0.8120
15517SOL    HW147129   6.780   4.854   6.252  1.3152 -1.3025 -0.2635
15517SOL    HW247130   6.746   4.852   6.399 -0.7159  0.3203 -0.6560
15518SOL     OW47131   9.846   9.234   1.662 -0.1342  0.1619 -0.1107
15518SOL    HW147132   9.758   9.203   1.644 -0.1784  0.6976 -0.8730
15518SOL    HW247133   9.882   9.170   1.723 -1.3292  0.4003  0.8851
15519SOL     OW47134   4.084   5.619   1.273  0.1403 -0.0454 -0.2973
15519SOL    HW147135   4.115   5.532   1.245  0.1256  0.0322 -0.5557
15519SOL    HW247136   4.079   5.669   1.192 -0.7896 -0.0963 -0.2713
15520SOL     OW47137   4.831   9.941   6.359  0.4790  0.2911  0.2939
15520SOL    HW147138   4.841   9.887   6.437  1.3065 -1.6197 -1.0679
15520SOL    HW247139   4.918   9.943   6.320  0.5783  2.9853  0.4746
15521SOL     OW47140   1.288   7.448   4.988 -0.4230 -0.3681 -0.0904
15521SOL    HW147141   1.307   7.541   4.993 -0.8577 -0.0927 -2.4365
15521SOL    HW247142   1.314   7.413   5.073 -0.0598  1.8407  0.7569
15522SOL     OW47143   8.059   2.712   1.813  0.4486  0.0154  0.2259
15522SOL    HW147144   8.108   2.771   1.756 -1.5029  0.2301 -1.3431
15522SOL    HW247145   8.035   2.765   1.889  1.4573  0.2715  0.3840
15523SOL     OW47146   5.045   2.968   3.584  0.3787  0.5007  0.3228
15523SOL    HW147147   5.082   2.993   3.499  0.4188 -1.9238 -0.4318
15523SOL    HW247148   4.985   2.897   3.564 -0.2390  0.4330  2.2492
15524SOL     OW47149   3.786   7.781   7.037  0.0600  0.1520  0.4243
15524SOL    HW147150   3.835   7.841   6.980 -0.1395  1.3446  1.4538
15524SOL    HW247151   3.849   7.713   7.060  0.3740  0.0976 -0.5606
15525SOL     OW47152   4.053   1.391   0.706 -0.0400 -0.2192  0.4409
15525SOL    HW147153   4.058   1.326   0.636 -0.6307 -2.1935  2.1051
15525SOL    HW247154   3.963   1.386   0.737  0.1200  0.8356  1.1288
15526SOL     OW47155   7.331   4.465   0.576  0.2933  0.0973 -0.1448
15526SOL    HW147156   7.387   4.530   0.618  1.5392 -1.3628  0.5532
15526SOL    HW247157   7.274   4.433   0.645 -1.4339  1.5326 -0.8402
15527SOL     OW47158   1.075   6.470   0.279  0.4870 -0.0568 -0.2457
15527SOL    HW147159   1.082   6.492   0.372  1.1612 -0.3077 -0.2313
15527SOL    HW247160   0.985   6.439   0.268  0.4471 -0.1635  0.3525
15528SOL     OW47161   9.987   4.977   5.404  0.0140 -0.1290  0.2668
15528SOL    HW147162   9.991   5.069   5.377 -1.2985  0.3513  1.6047
15528SOL    HW247163   9.922   4.938   5.345 -0.8230  0.2645  0.9134
15529SOL     OW47164   0.718   7.183   4.298 -0.1892 -0.4670 -0.0044
15529SOL    HW147165   0.769   7.264   4.289  0.0227 -0.7899 -2.2272
15529SOL    HW247166   0.629   7.208   4.271 -0.0606 -1.0319 -0.9652
15530SOL     OW47167   7.737   5.119   6.569  0.5176  0.3820  0.7873
15530SOL    HW147168   7.711   5.095   6.658  3.6894 -2.3797  1.1547
15530SOL    HW247169   7.815   5.173   6.580  1.3608 -0.5736 -0.3045
15531SOL     OW47170   6.888   0.297   6.799  0.1569  0.2094  0.0284
15531SOL    HW147171   6.892   0.383   6.841 -2.9421 -0.1445  1.2882
15531SOL    HW247172   6.826   0.308   6.727  0.2712 -0.8109 -0.2417
15532SOL     OW47173   0.975   5.176   3.621  0.3364 -0.3750 -0.1617
15532SOL    HW147174   0.994   5.180   3.528 -1.8942 -1.8646 -0.7431
15532SOL    HW247175   1.034   5.241   3.660  0.7801  0.8401 -2.6668
15533SOL     OW47176   3.940   0.682   5.937  0.2391 -0.1955  0.0666
15533SOL    HW147177   3.961   0.619   6.006  0.8013 -0.9097 -0.7382
15533SOL    HW247178   3.916   0.628   5.862  1.8039  0.5037 -0.9893
15534SOL     OW47179   0.983   3.367   7.334 -0.2820  0.2372  0.4284
15534SOL    HW147180   1.028   3.390   7.415  0.2741 -1.0238  0.5076
15534SOL    HW247181   1.001   3.273   7.323 -1.4694  0.0930 -0.4451
15535SOL     OW47182   2.276   2.251   9.725  0.7437 -0.3205 -0.0960
15535SOL    HW147183   2.347   2.235   9.788  1.5188  0.0529 -0.8553
15535SOL    HW247184   2.309   2.321   9.669 -0.7430  0.7623  0.3130
15536SOL     OW47185   0.209   0.383   4.174 -0.0271 -0.0742  0.2406
15536SOL    HW147186   0.278   0.401   4.238 -0.4686 -0.8875  0.9575
15536SOL    HW247187   0.135   0.354   4.226 -1.0990  1.2691 -0.4834
15537SOL     OW47188   0.486   7.768   5.610 -0.3178 -0.2465 -0.2192
15537SOL    HW147189   0.518   7.789   5.697 -0.1216  3.3319 -1.0029
15537SOL    HW247190   0.542   7.696   5.581  1.5152  0.3540  1.5677
15538SOL     OW47191   8.682   1.333   1.175  0.3042 -0.1580 -0.3223
15538SOL    HW147192   8.748   1.359   1.240 -0.4096  0.9325 -0.0105
15538SOL    HW247193   8.711   1.374   1.094 -0.0220  0.3599 -0.1745
15539SOL     OW47194   9.288   5.139   4.803 -0.2342  0.2070 -0.1032
15539SOL    HW147195   9.383   5.132   4.816 -0.0635 -0.2373 -1.4144
15539SOL    HW247196   9.278   5.183   4.718 -1.0428 -3.7239 -2.3291
15540SOL     OW47197   6.296   3.187   2.883  0.1584  0.3178  0.5294
15540SOL    HW147198   6.253   3.109   2.848 -1.2648  1.8277 -1.4015
15540SOL    HW247199   6.238   3.217   2.953  0.4974 -0.1440  1.0071
15541SOL     OW47200   6.028   2.652   0.805 -0.1348  0.1712 -0.0987
15541SOL    HW147201   6.115   2.635   0.767  0.6454  0.0100  1.6651
15541SOL    HW247202   6.000   2.735   0.765  0.2973 -0.3408 -1.5466
15542SOL     OW47203   0.717   8.558   0.249 -0.3412 -0.1831 -0.1530
15542SOL    HW147204   0.639   8.503   0.252  0.4088 -1.3275 -0.9953
15542SOL    HW247205   0.784   8.507   0.293 -0.4467  1.5334  2.2125
15543SOL     OW47206   1.592   9.261   3.293 -0.2491  0.4087 -0.2346
15543SOL    HW147207   1.508   9.217   3.279 -0.5729  1.2339 -0.9515
15543SOL    HW247208   1.654   9.190   3.311 -0.9242 -0.2736 -0.5667
15544SOL     OW47209   0.647   3.428   1.558 -0.0060 -0.1435 -0.2128
15544SOL    HW147210   0.589   3.360   1.523 -0.1209 -0.5633  0.7588
15544SOL    HW247211   0.706   3.449   1.485 -0.0468 -1.2094 -0.5715
15545SOL     OW47212   7.796   2.416   9.892 -0.1963  0.0933 -0.9235
15545SOL    HW147213   7.837   2.494   9.930  0.8786 -0.1746 -1.4898
15545SOL    HW247214   7.855   2.344   9.915 -0.1986 -0.2651 -1.9960
15546SOL     OW47215   2.747   9.145   5.481  0.3473  0.0811 -0.0883
15546SOL    HW147216   2.718   9.093   5.555  1.3843  0.7573  0.8268
15546SOL    HW247217   2.667   9.166   5.433 -0.1223 -2.1406 -0.3779
15547SOL     OW47218   3.526   7.971   7.502 -0.2723 -0.6486  0.4160
15547SOL    HW147219   3.590   8.019   7.450 -1.1235 -1.6544 -1.6878
15547SOL    HW247220   3.519   8.021   7.584  2.8166 -0.2914  0.5672
15548SOL     OW47221   1.558   0.935   2.011 -0.8984 -0.5302 -0.8763
15548SOL    HW147222   1.648   0.902   2.008 -1.1533 -1.2414 -1.0604
15548SOL    HW247223   1.506   0.864   1.972 -1.6493 -0.5076  0.0632
15549SOL     OW47224   9.888   8.153   8.785 -0.2373  0.3589 -0.3535
15549SOL    HW147225   9.902   8.222   8.720 -0.3478  1.8121  1.1207
15549SOL    HW247226   9.930   8.075   8.746  2.3056  1.8910 -0.8988
15550SOL     OW47227   3.532   0.769   8.074  0.2163 -0.1061  0.4788
15550SOL    HW147228   3.578   0.692   8.040 -1.0432 -0.8616  0.4136
15550SOL    HW247229   3.458   0.732   8.124 -1.5010  1.0465 -1.0772
15551SOL     OW47230   6.388   5.125   0.241 -0.3957 -0.2130  0.1134
15551SOL    HW147231   6.401   5.163   0.154 -0.0289  1.0674  0.7122
15551SOL    HW247232   6.399   5.198   0.302  0.6638 -1.3286  1.3257
15552SOL     OW47233   5.494   2.292   4.392  0.2990 -0.0209 -0.3991
15552SOL    HW147234   5.585   2.305   4.420  0.4464 -0.2692 -0.7600
15552SOL    HW247235   5.479   2.198   4.403 -0.5063  0.2744  1.4318
15553SOL     OW47236   0.365   2.360   5.181 -0.2115 -0.1118 -0.0492
15553SOL    HW147237   0.312   2.337   5.105 -0.4075 -1.1949  0.4098
15553SOL    HW247238   0.337   2.449   5.203 -1.4450 -0.4646 -0.1385
15554SOL     OW47239   1.573   8.183   9.974 -0.1940 -0.1644 -0.2078
15554SOL    HW147240   1.557   8.262  10.026  0.4572  0.1098 -0.4098
15554SOL    HW247241   1.490   8.164   9.931  0.1901  1.6656 -1.8870
15555SOL     OW47242   5.153   0.592   8.072  0.2282 -0.2616  0.6643
15555SOL    HW147243   5.165   0.587   7.977 -2.5914 -1.4453  0.2569
15555SOL    HW247244   5.241   0.589   8.108  1.3640 -0.1216 -1.9020
15556SOL     OW47245   0.815   5.280   6.019 -0.4712  0.1231 -0.5614
15556SOL    HW147246   0.807   5.266   6.114 -0.0998  0.6729 -0.4476
15556SOL    HW247247   0.907   5.263   6.000 -0.3993  0.6713 -0.7122
15557SOL     OW47248   2.914   8.394   1.174 -1.1096  0.2312 -0.2511
15557SOL    HW147249   2.910   8.489   1.184 -0.7733  0.0355  2.7074
15557SOL    HW247250   3.005   8.376   1.149 -0.4766  0.6111  1.6048
15558SOL     OW47251   1.043   8.600   3.985 -0.0636 -0.5317 -0.1280
15558SOL    HW147252   1.048   8.564   4.074  0.3328 -0.3583 -0.0771
15558SOL    HW247253   0.978   8.546   3.941  2.9669 -3.7199 -1.1539
15559SOL     OW47254   3.145   4.029   2.254 -0.3079  0.4232 -0.4224
15559SOL    HW147255   3.141   4.062   2.344  0.1884  0.0617 -0.2617
15559SOL    HW247256   3.223   4.070   2.217  1.2573 -1.7172  0.2768
15560SOL     OW47257   4.548   0.639   7.865 -0.0965 -0.1060  0.0039
15560SOL    HW147258   4.574   0.644   7.957  2.3915  1.5060 -0.6893
15560SOL    HW247259   4.473   0.698   7.858  0.3663  0.6029  0.8136
15561SOL     OW47260   4.271   4.380   8.753  0.6128 -0.5011  0.2090
15561SOL    HW147261   4.177   4.381   8.733  0.4129  1.0777  1.1018
15561SOL    HW247262   4.314   4.380   8.668 -0.1950 -0.5091 -0.2066
15562SOL     OW47263   2.856   5.454   5.482 -0.0433 -0.5714 -0.3281
15562SOL    HW147264   2.881   5.390   5.415 -1.6680 -0.9667 -0.6131
15562SOL    HW247265   2.921   5.442   5.551 -0.2057 -2.4778 -0.4312
15563SOL     OW47266   1.134   5.372   3.738 -0.2285  0.1169 -0.0810
15563SOL    HW147267   1.098   5.451   3.698 -1.3913 -0.8950 -1.1166
15563SOL    HW247268   1.229   5.383   3.733 -0.3512  1.7435  0.4576
15564SOL     OW47269   8.327   1.306   6.503  0.4661  0.0251 -0.0114
15564SOL    HW147270   8.396   1.242   6.524  1.0322  0.2328 -1.1490
15564SOL    HW247271   8.301   1.341   6.587  0.2123 -1.6341  0.6453
15565SOL     OW47272   8.319   0.870   4.457 -0.0458  0.4063 -0.1654
15565SOL    HW147273   8.282   0.952   4.426 -0.7263 -0.1120 -0.7705
15565SOL    HW247274   8.354   0.829   4.378  1.2884  0.6107  0.3042
15566SOL     OW47275   4.235   5.583   2.681  0.3837 -0.5864  0.1659
15566SOL    HW147276   4.186   5.658   2.714 -0.1121 -1.4409  1.4778
15566SOL    HW247277   4.241   5.524   2.757  2.6886 -0.8919 -0.1899
15567SOL     OW47278   5.223   8.003   9.265  0.3741 -0.0732  0.3691
15567SOL    HW147279   5.191   8.061   9.334 -1.4992 -0.8002  0.1717
15567SOL    HW247280   5.273   7.936   9.311 -0.7818 -0.5029  1.0476
15568SOL     OW47281   5.485   6.902   2.800 -0.3411  0.2295  0.1151
15568SOL    HW147282   5.487   6.807   2.808 -0.1553  0.3389  1.6482
15568SOL    HW247283   5.485   6.918   2.705  1.4620 -1.2458 -0.2012
15569SOL     OW47284   0.854   9.416   7.613 -0.2557  0.2867  0.0473
15569SOL    HW147285   0.760   9.435   7.611 -0.7781 -2.0901 -0.2638
15569SOL    HW247286   0.887   9.472   7.684 -1.9537  0.8884  0.4234
15570SOL     OW47287   8.513   4.791   4.949 -0.5496 -0.3042  0.3760
15570SOL    HW147288   8.569   4.751   5.015  0.0917 -1.3799 -0.8009
15570SOL    HW247289   8.560   4.870   4.922 -0.9771  0.3355  1.4033
15571SOL     OW47290   3.666   7.178   4.508 -0.1072  0.4872  0.2278
15571SOL    HW147291   3.640   7.203   4.419  2.7302 -0.0848 -0.8618
15571SOL    HW247292   3.752   7.218   4.520  0.0354 -0.3103  2.3454
15572SOL     OW47293   1.725   1.174   0.539 -0.1403  0.5033  0.2816
15572SOL    HW147294   1.780   1.099   0.562 -1.3725 -0.7596 -0.7409
15572SOL    HW247295   1.689   1.151   0.453 -2.3116  1.2425  0.9520
15573SOL     OW47296   6.024   0.256   5.974  0.3474  0.5776 -0.3393
15573SOL    HW147297   5.944   0.259   6.026 -0.1175 -0.1907 -0.9744
15573SOL    HW247298   6.095   0.245   6.038 -0.3626 -2.3650  0.0967
15574SOL     OW47299   4.448   5.964   0.844 -0.3994  0.0693  0.6617
15574SOL    HW147300   4.466   6.031   0.911 -0.7617  2.2154 -1.2707
15574SOL    HW247301   4.503   5.890   0.869  0.6846  1.3890  2.4340
15575SOL     OW47302   4.555   3.453   9.075 -0.3644  0.4527 -0.4575
15575SOL    HW147303   4.524   3.517   9.139 -1.1863  0.5422 -0.9204
15575SOL    HW247304   4.621   3.501   9.024 -1.5390  1.2288 -1.3176
15576SOL     OW47305   4.864   7.363   7.047  0.1918  0.4119  0.3085
15576SOL    HW147306   4.945   7.405   7.016 -0.9510  0.2262 -3.4216
15576SOL    HW247307   4.799   7.433   7.045  0.0419  0.4401  2.8184
15577SOL     OW47308   5.132   0.474   7.293  0.9827  0.1851  0.2619
15577SOL    HW147309   5.082   0.554   7.308  1.5084  0.7454 -0.8896
15577SOL    HW247310   5.202   0.478   7.358 -0.5903 -0.7778  2.1239
15578SOL     OW47311   5.724   4.922   1.240 -0.2415 -0.1919  0.2277
15578SOL    HW147312   5.637   4.901   1.205 -0.3063  0.2097  0.1347
15578SOL    HW247313   5.784   4.868   1.188 -0.6122 -2.5861  2.1168
15579SOL     OW47314   6.880   8.374   6.221  0.1535 -0.8350  0.1221
15579SOL    HW147315   6.788   8.353   6.205  0.2293 -1.5777  0.6007
15579SOL    HW247316   6.879   8.467   6.245 -0.1965 -0.2338 -2.0233
15580SOL     OW47317   7.238   0.165   8.102  0.1837  0.2460  0.3382
15580SOL    HW147318   7.186   0.097   8.144  2.0837 -1.3685  0.2406
15580SOL    HW247319   7.174   0.229   8.071 -1.9778 -2.7737 -2.0054
15581SOL     OW47320   4.572   6.794   4.357  0.6908 -0.2379 -0.2113
15581SOL    HW147321   4.524   6.875   4.337 -2.2642 -1.9867 -0.8263
15581SOL    HW247322   4.503   6.729   4.371  2.9452 -2.9841 -1.0860
15582SOL     OW47323   5.036   2.215   8.102  0.2612  0.2246  0.0169
15582SOL    HW147324   4.964   2.277   8.097  1.7832  1.9744 -1.8433
15582SOL    HW247325   5.101   2.257   8.158  0.4172 -0.7427  0.5998
15583SOL     OW47326   7.297   9.338   0.295 -0.6783 -0.2003  0.2821
15583SOL    HW147327   7.375   9.367   0.342 -0.6898 -0.7471  0.6456
15583SOL    HW247328   7.330   9.289   0.220 -0.6596 -1.7571  1.2695
15584SOL     OW47329   6.337   6.891   5.276 -0.7089 -0.2311  0.7826
15584SOL    HW147330   6.281   6.910   5.201 -0.4977 -0.4921  0.5568
15584SOL    HW247331   6.295   6.816   5.318  0.3158 -1.4543 -0.2949
15585SOL     OW47332   2.845   3.558   2.030 -0.4493  0.1035  0.4972
15585SOL    HW147333   2.873   3.474   1.994  0.0335  1.2206 -1.9370
15585SOL    HW247334   2.926   3.609   2.038 -0.8900  0.7797  0.7347
15586SOL     OW47335   5.885   5.407   7.664 -0.5027  0.0013 -0.0429
15586SOL    HW147336   5.925   5.402   7.577  1.0403 -0.0107  0.6391
15586SOL    HW247337   5.881   5.500   7.684  0.3405 -0.0494  0.3925
15587SOL     OW47338   7.194   3.224   2.561 -0.3329 -0.8141  0.0822
15587SOL    HW147339   7.163   3.213   2.472 -1.6526 -1.8826  0.6307
15587SOL    HW247340   7.288   3.213   2.556  0.1837  2.9208 -1.7152
15588SOL     OW47341   0.827   1.858   3.552 -0.5635  0.2189  0.5134
15588SOL    HW147342   0.875   1.830   3.475  0.0744 -2.1285  1.6915
15588SOL    HW247343   0.833   1.785   3.613  0.5498  2.6417  3.5673
15589SOL     OW47344   8.943   9.322   9.574  0.1841 -0.6446 -0.2473
15589SOL    HW147345   8.990   9.403   9.593 -0.4929 -0.6887  1.9043
15589SOL    HW247346   8.894   9.340   9.494  0.6078  0.8080 -0.1988
15590SOL     OW47347   7.976   9.920   4.127 -0.4457  0.2971 -0.4672
15590SOL    HW147348   8.005   9.894   4.214  0.2062 -0.0232 -0.7684
15590SOL    HW247349   8.019   9.858   4.068  0.6534  1.6552 -1.1552
15591SOL     OW47350   6.190   4.158   3.296 -0.2653 -0.3455  0.7371
15591SOL    HW147351   6.164   4.206   3.374 -0.6619 -0.1794  0.5041
15591SOL    HW247352   6.263   4.208   3.260 -0.7058  0.1090  0.4699
15592SOL     OW47353   1.874   2.393   1.943 -0.0575  0.8867  0.4656
15592SOL    HW147354   1.930   2.319   1.917  0.3611  1.1792  0.5262
15592SOL    HW247355   1.797   2.351   1.982  0.3786  0.4793  0.9154
15593SOL     OW47356   3.241   5.582   9.101 -0.1758 -0.5465 -0.4081
15593SOL    HW147357   3.298   5.534   9.162 -0.2268 -2.8132 -2.0263
15593SOL    HW247358   3.261   5.675   9.118  0.8401 -1.1283  2.0195
15594SOL     OW47359   0.082   0.370   7.902 -0.0276 -0.1959  0.3267
15594SOL    HW147360   0.040   0.339   7.822  1.4507 -0.4711 -0.3560
15594SOL    HW247361   0.009   0.379   7.964 -1.8057  3.3090 -1.9403
15595SOL     OW47362   4.297   9.401   7.371 -0.7317  0.1811 -0.4574
15595SOL    HW147363   4.217   9.450   7.353  1.0227  2.3147 -3.2705
15595SOL    HW247364   4.357   9.465   7.409  0.3804 -0.7460 -0.5839
15596SOL     OW47365   9.968   9.931   3.534 -0.3500  0.2101  0.8122
15596SOL    HW147366  10.055   9.968   3.546  0.3223 -1.3828  1.2137
15596SOL    HW247367   9.912  10.006   3.515  1.3756  1.1350 -1.0396
15597SOL     OW47368   7.454   6.786   5.501  0.0683  0.5578 -0.0939
15597SOL    HW147369   7.503   6.705   5.487 -0.1944  0.2320  0.7993
15597SOL    HW247370   7.507   6.854   5.460  1.3498  0.2295  0.9600
15598SOL     OW47371   6.898   2.333   4.708  0.1352 -0.3284 -0.6233
15598SOL    HW147372   6.809   2.349   4.741  0.0618 -1.2215 -0.3450
15598SOL    HW247373   6.950   2.403   4.746 -0.6036  0.7396 -1.5135
15599SOL     OW47374   1.559   6.331   1.896 -0.3475  0.1325 -0.1758
15599SOL    HW147375   1.595   6.252   1.856 -0.3546 -0.0909  0.2557
15599SOL    HW247376   1.542   6.389   1.822  0.2555 -0.0234 -0.4507
15600SOL     OW47377   6.031   4.919   1.553  0.2409  0.0725 -0.1841
15600SOL    HW147378   6.001   4.955   1.636 -0.5868 -1.4418  0.2236
15600SOL    HW247379   5.975   4.961   1.487  0.2670  0.5942  0.1264
15601SOL     OW47380   2.705   8.530   6.504 -0.2290 -0.1460  0.1751
15601SOL    HW147381   2.670   8.610   6.542 -1.0423 -0.9220  1.1246
15601SOL    HW247382   2.750   8.486   6.576  3.9036  1.3239 -1.2255
15602SOL     OW47383   6.633   3.267   8.054 -0.3791 -0.0013 -0.2130
15602SOL    HW147384   6.638   3.274   8.150  2.0471 -2.3558 -0.0688
15602SOL    HW247385   6.548   3.225   8.038  0.3012 -2.1040  1.1982
15603SOL     OW47386   0.324   1.673   3.128  0.0745 -0.2723  0.1260
15603SOL    HW147387   0.285   1.717   3.203 -0.4366 -1.5422  0.6451
15603SOL    HW247388   0.253   1.670   3.063  0.3510  0.3548 -0.2088
15604SOL     OW47389   4.104   7.932   2.017 -0.5524 -0.2704 -0.2428
15604SOL    HW147390   4.062   7.898   1.938  0.1345  4.2287 -2.8879
15604SOL    HW247391   4.197   7.914   2.006 -0.3719  0.9525 -0.8973
15605SOL     OW47392   8.314   3.220   0.201  0.1196 -0.9954  0.0826
15605SOL    HW147393   8.398   3.265   0.212 -0.4604 -0.4152  3.1855
15605SOL    HW247394   8.263   3.279   0.146  1.1157 -0.4549 -0.2918
15606SOL     OW47395   4.717   8.695   8.904  0.1684  0.3888  0.5752
15606SOL    HW147396   4.804   8.722   8.876 -0.0923  1.8358  1.0596
15606SOL    HW247397   4.676   8.776   8.936 -0.6872 -0.5992  2.0931
15607SOL     OW47398   5.646   8.089   2.651  0.0198 -0.2133  0.6918
15607SOL    HW147399   5.555   8.078   2.680 -0.0752 -1.9361 -0.1428
15607SOL    HW247400   5.691   8.011   2.682  0.9659  0.0907  0.1191
15608SOL     OW47401   7.749   4.977   4.092  0.1325  0.1191 -0.7011
15608SOL    HW147402   7.779   4.969   4.182  2.7473  1.0774 -1.3859
15608SOL    HW247403   7.705   4.894   4.074  2.2932 -1.3835  0.5330
15609SOL     OW47404   6.392   9.521   2.316 -0.3524  0.3667  0.1459
15609SOL    HW147405   6.445   9.591   2.354 -2.2452  1.5478  0.7730
15609SOL    HW247406   6.375   9.548   2.226  0.9490 -0.5414 -0.3991
15610SOL     OW47407   9.884   9.424   2.353 -0.1654 -0.1056 -0.3129
15610SOL    HW147408   9.816   9.412   2.420  0.0502  1.3484  0.2035
15610SOL    HW247409   9.873   9.350   2.294  0.1466 -1.9223  1.7689
15611SOL     OW47410   3.101   0.866   8.061 -0.0414  0.2865 -0.3709
15611SOL    HW147411   3.108   0.921   7.983  0.1472 -0.6713 -1.0467
15611SOL    HW247412   3.010   0.837   8.061  0.1981 -0.4921 -0.7879
15612SOL     OW47413   9.656   7.807   8.558  0.3053 -0.2006  0.4306
15612SOL    HW147414   9.588   7.774   8.500  0.8010  2.1176 -1.6463
15612SOL    HW247415   9.609   7.856   8.625 -0.1535 -0.3946  0.2534
15613SOL     OW47416   9.547   4.471   3.103 -0.0075 -0.3401  0.5383
15613SOL    HW147417   9.570   4.485   3.194 -0.7138  0.3685  0.6185
15613SOL    HW247418   9.455   4.495   3.097  0.0868 -0.1470 -0.4067
15614SOL     OW47419   3.773   4.021   6.360  0.2264 -0.2248  0.1454
15614SOL    HW147420   3.761   3.956   6.290 -0.1318 -0.4804  0.4377
15614SOL    HW247421   3.684   4.046   6.385  0.3356 -0.5232  0.8589
15615SOL     OW47422   8.750   7.929   7.012  0.4248  0.7736 -0.3343
15615SOL    HW147423   8.714   7.968   7.092  1.6997  1.0495  0.1245
15615SOL    HW247424   8.758   7.836   7.033 -0.4308  0.6279 -0.6067
15616SOL     OW47425   6.360   4.185   3.922 -0.0691 -0.3999  0.0197
15616SOL    HW147426   6.359   4.195   3.826  2.2689  0.0041 -0.0233
15616SOL    HW247427   6.412   4.259   3.953  0.9233 -1.6441  1.4218
15617SOL     OW47428   8.687   1.245   4.932 -0.0841  0.0916 -0.0698
15617SOL    HW147429   8.753   1.233   5.000 -0.2168  3.1121  0.7373
15617SOL    HW247430   8.672   1.339   4.929 -4.0804 -0.3528 -0.4882
15618SOL     OW47431   4.772   4.411   0.561  0.4728  0.1839  0.0103
15618SOL    HW147432   4.694   4.356   0.569 -0.3830  0.9057 -2.3797
15618SOL    HW247433   4.844   4.355   0.588 -0.8715 -0.1381  3.5205
15619SOL     OW47434   7.315   7.121   9.152  0.5467 -0.0016 -0.1169
15619SOL    HW147435   7.313   7.211   9.185  1.1295  0.0384 -0.1866
15619SOL    HW247436   7.308   7.066   9.230  0.4916  0.0989 -0.0504
15620SOL     OW47437   8.008   0.108   3.292 -0.6279 -0.0322  0.2863
15620SOL    HW147438   7.966   0.026   3.316 -1.1027  0.3250  0.6935
15620SOL    HW247439   8.003   0.162   3.370  1.1185 -0.1714  0.5472
15621SOL     OW47440   8.266   1.890   5.754 -0.2279  0.0434  0.1628
15621SOL    HW147441   8.253   1.985   5.754  2.0034  0.4058 -0.9247
15621SOL    HW247442   8.333   1.874   5.819  0.7748 -0.5295 -0.9687
15622SOL     OW47443   5.057   3.058   9.534  0.0815  0.3594 -0.0992
15622SOL    HW147444   5.009   3.069   9.452  0.6267 -0.3944 -0.5396
15622SOL    HW247445   5.023   2.976   9.571 -1.4878  1.6151  1.3837
15623SOL     OW47446   4.889   6.162   1.961  0.2432  0.1794 -0.1085
15623SOL    HW147447   4.802   6.147   1.925  1.1726 -0.3114 -2.3717
15623SOL    HW247448   4.919   6.242   1.917  0.6343  0.8228  1.2850
15624SOL     OW47449   0.981   2.960   8.594  0.0661  0.0485  0.4887
15624SOL    HW147450   0.942   2.934   8.510 -1.4240  2.0566  0.4935
15624SOL    HW247451   1.055   3.016   8.569  0.4722 -0.4706  0.5163
15625SOL     OW47452   6.350   5.589   8.036 -0.4510 -0.1545  0.2830
15625SOL    HW147453   6.284   5.658   8.032 -1.9056 -1.5254 -0.0306
15625SOL    HW247454   6.391   5.591   7.949  0.1597  0.8936  0.5754
15626SOL     OW47455   4.689   1.975   3.509 -0.0699 -0.0619 -0.3465
15626SOL    HW147456   4.693   2.025   3.427 -0.3173 -0.1285 -0.3985
15626SOL    HW247457   4.611   2.007   3.553  0.9426  1.1694  0.6423
15627SOL     OW47458   9.408   2.532   5.719 -0.3100  0.5231 -0.1698
15627SOL    HW147459   9.358   2.582   5.654  1.5128  0.9080 -1.3430
15627SOL    HW247460   9.493   2.576   5.724  0.5865 -1.1742  0.3691
15628SOL     OW47461   6.001   5.407   8.132 -0.0524  0.1329  0.1467
15628SOL    HW147462   5.983   5.363   8.049 -0.8800  0.6753  0.0350
15628SOL    HW247463   5.922   5.395   8.184  1.3586 -2.4431  1.8918
15629SOL     OW47464   6.899   0.956   1.158 -0.2878  0.0969  0.1377
15629SOL    HW147465   6.891   0.924   1.248  3.3189  1.5297  1.1234
15629SOL    HW247466   6.823   1.014   1.147 -0.7651 -0.0312  2.2619
15630SOL     OW47467   2.384   8.990   5.923  0.0212 -0.1208 -0.0329
15630SOL    HW147468   2.452   9.020   5.984  2.3249 -0.6666 -2.1771
15630SOL    HW247469   2.325   8.938   5.978  1.1364  0.6045  1.9888
15631SOL     OW47470   1.427   8.438   4.146 -0.4747  0.0920 -0.2168
15631SOL    HW147471   1.434   8.425   4.240 -0.3873 -1.6139 -0.4327
15631SOL    HW247472   1.337   8.413   4.124  0.0817 -1.4595 -0.8416
15632SOL     OW47473   6.721   0.042   2.975  0.4963 -0.5888 -0.2074
15632SOL    HW147474   6.747   0.119   2.926  1.3825 -0.3658  0.5935
15632SOL    HW247475   6.753  -0.032   2.923  1.0847 -0.3655 -0.1646
15633SOL     OW47476   7.167   3.693   4.152  0.1205 -0.7810  0.5764
15633SOL    HW147477   7.255   3.727   4.169  0.2006 -0.5901 -0.1948
15633SOL    HW247478   7.170   3.662   4.062 -0.0001 -2.7154  1.1962
15634SOL     OW47479   4.098   0.511   0.947  0.4890 -0.3692 -0.2030
15634SOL    HW147480   4.179   0.472   0.979  0.3195 -0.4845  0.0887
15634SOL    HW247481   4.037   0.438   0.939  0.4145 -0.2840 -0.4236
15635SOL     OW47482   4.816   9.057   8.730 -0.0137  0.3718 -0.5127
15635SOL    HW147483   4.903   9.077   8.695  0.7134 -1.3454  0.2279
15635SOL    HW247484   4.774   9.005   8.661 -1.1401  2.5104 -1.5680
15636SOL     OW47485   3.108   1.131   1.285 -0.1546 -0.0926 -0.7029
15636SOL    HW147486   3.196   1.169   1.281 -0.0466 -0.0467  1.2083
15636SOL    HW247487   3.121   1.040   1.257  1.1657 -1.0022  2.3787
15637SOL     OW47488   4.218   9.558   6.339 -0.4160 -0.2925 -0.0390
15637SOL    HW147489   4.192   9.604   6.259 -1.9431  0.4106  0.8247
15637SOL    HW247490   4.313   9.549   6.331 -0.3598  0.9715 -1.3122
15638SOL     OW47491   1.291   8.221   4.903 -0.3674  0.7802 -0.2617
15638SOL    HW147492   1.318   8.274   4.828  0.2446 -0.1261 -0.6988
15638SOL    HW247493   1.356   8.239   4.971  0.7184 -0.5106 -0.9162
15639SOL     OW47494   4.688   2.149   0.403  0.3486 -0.2877  0.1723
15639SOL    HW147495   4.714   2.114   0.318 -0.1788  0.2016 -0.1922
15639SOL    HW247496   4.667   2.241   0.387  0.0913 -0.2292  0.7939
15640SOL     OW47497   5.168   9.674   7.283  0.5600  0.3030 -0.0775
15640SOL    HW147498   5.161   9.705   7.373  1.0613 -0.4026  0.2197
15640SOL    HW247499   5.228   9.734   7.241  0.3878  0.5864  0.0815
15641SOL     OW47500   7.711   3.939   8.886  0.3412  0.3612 -0.5025
15641SOL    HW147501   7.753   3.874   8.942  1.1083 -0.7162 -2.2351
15641SOL    HW247502   7.779   4.003   8.868  0.6844 -0.2853 -1.6402
15642SOL     OW47503   0.382   0.269   1.925  0.2826  0.3071  0.0322
15642SOL    HW147504   0.357   0.324   1.999  0.4931  0.2376  0.1551
15642SOL    HW247505   0.391   0.331   1.852 -0.3533  0.3192 -0.0421
15643SOL     OW47506   6.057   7.148   4.436 -0.8264 -0.4486 -0.2987
15643SOL    HW147507   5.989   7.154   4.503 -0.2297 -0.8703  0.3564
15643SOL    HW247508   6.042   7.225   4.380 -0.1106  1.0673  1.4929
15644SOL     OW47509   4.761   0.988   1.418  0.5030 -0.0074  0.2352
15644SOL    HW147510   4.708   1.065   1.441 -0.4339 -0.5697 -0.0324
15644SOL    HW247511   4.786   0.951   1.503 -0.3004 -0.2652  0.3614
15645SOL     OW47512   6.968   6.487   6.065 -0.1087  0.0343  0.9887
15645SOL    HW147513   6.948   6.502   5.972 -0.0511  0.8144  1.0906
15645SOL    HW247514   7.038   6.551   6.084  2.0598 -2.1310  0.8118
15646SOL     OW47515   5.167   9.900   2.128  0.1355  0.5914  0.6774
15646SOL    HW147516   5.095   9.881   2.068 -0.1719  0.1387  1.1887
15646SOL    HW247517   5.208   9.978   2.091  0.2542  0.0430 -0.3960
15647SOL     OW47518   7.907   2.139   7.057 -0.6974 -0.2048 -0.1294
15647SOL    HW147519   7.847   2.198   7.103  0.0206  0.2492  0.2511
15647SOL    HW247520   7.853   2.096   6.991 -1.3299  0.5783 -0.1357
15648SOL     OW47521   7.178   0.064   4.637  0.7181 -0.4463  0.2841
15648SOL    HW147522   7.174   0.115   4.718 -1.2837  1.4701 -0.9023
15648SOL    HW247523   7.134   0.119   4.572  1.3619 -2.3422 -1.8899
15649SOL     OW47524   7.272   9.190   4.286  0.2196 -0.4032  0.1551
15649SOL    HW147525   7.332   9.247   4.334  1.4332 -1.3296 -0.1978
15649SOL    HW247526   7.277   9.221   4.196  0.4437 -0.6983  0.0640
15650SOL     OW47527   4.011   5.929   9.223  0.2322 -0.3046 -0.1823
15650SOL    HW147528   4.024   5.946   9.316 -0.6915 -1.3996  0.1654
15650SOL    HW247529   4.068   5.855   9.203  0.3797 -0.1153 -0.4850
15651SOL     OW47530   4.139   6.649   1.839  0.1248 -0.4264  0.5875
15651SOL    HW147531   4.060   6.598   1.819  0.1036  0.0513 -0.6241
15651SOL    HW247532   4.180   6.602   1.911 -1.0311 -0.9366  0.9411
15652SOL     OW47533   9.073   7.285   1.997 -0.0385 -0.1892  0.0477
15652SOL    HW147534   9.075   7.292   2.093 -0.2435  0.8244 -0.0039
15652SOL    HW247535   9.157   7.320   1.969  0.0602 -0.5741 -0.1445
15653SOL     OW47536   5.570   3.531   9.031 -0.5568 -0.1240  0.3781
15653SOL    HW147537   5.661   3.508   9.015 -0.9490 -1.7465  0.3334
15653SOL    HW247538   5.574   3.617   9.072  1.1551 -1.1372  2.5366
15654SOL     OW47539   5.416   6.606   2.728  0.2420  0.1690 -0.3613
15654SOL    HW147540   5.413   6.670   2.656  1.4470 -1.0155 -1.5163
15654SOL    HW247541   5.509   6.592   2.744 -0.0089 -0.6304  0.4902
15655SOL     OW47542   9.122   3.098   5.562  0.5546  0.0576 -0.1747
15655SOL    HW147543   9.202   3.105   5.614  0.6516 -1.5803 -0.0416
15655SOL    HW247544   9.152   3.109   5.471  0.8051  0.2490 -0.0708
15656SOL     OW47545   2.642   5.094   5.615  0.4947  0.2362 -0.0564
15656SOL    HW147546   2.713   5.127   5.560  0.6824  0.4320  0.3008
15656SOL    HW247547   2.630   5.160   5.682 -0.4640  0.5028 -0.4751
15657SOL     OW47548   7.087   6.211   2.085 -0.4786 -0.0364 -0.3326
15657SOL    HW147549   7.087   6.281   2.150  0.2488 -0.6952  0.4040
15657SOL    HW247550   7.110   6.254   2.003  0.3454  0.5382  0.1817
15658SOL     OW47551   2.412   8.398   3.488 -0.4066 -0.5149  0.0224
15658SOL    HW147552   2.387   8.315   3.447 -0.2937 -0.9560  0.8359
15658SOL    HW247553   2.502   8.412   3.461 -0.2505 -0.9336  0.3256
15659SOL     OW47554   2.353   9.949   2.919 -0.7360  0.5794 -0.2314
15659SOL    HW147555   2.296   9.984   2.851 -1.9254 -1.0121 -0.1009
15659SOL    HW247556   2.295   9.901   2.978  0.0703  2.6569  2.5186
15660SOL     OW47557   5.750   2.137   1.389 -0.1771 -0.4888 -0.5492
15660SOL    HW147558   5.746   2.232   1.402  0.6582 -0.0099 -3.1135
15660SOL    HW247559   5.787   2.103   1.470 -0.2698  1.3935  0.3449
15661SOL     OW47560   1.861   6.283   3.959 -0.1414  0.5951 -0.0868
15661SOL    HW147561   1.785   6.225   3.965  1.0275 -1.2083 -1.6640
15661SOL    HW247562   1.921   6.239   3.899  1.1582  3.1202 -0.8015
15662SOL     OW47563   0.500   6.661   0.729 -0.3121 -0.4269 -0.0446
15662SOL    HW147564   0.491   6.580   0.779  0.2066 -0.9737 -0.8192
15662SOL    HW247565   0.537   6.723   0.792 -0.4817 -0.8508  0.4864
15663SOL     OW47566   4.893   8.705   3.818  0.2852  0.5063 -0.0554
15663SOL    HW147567   4.936   8.724   3.735  0.4477  2.4217  0.4139
15663SOL    HW247568   4.820   8.767   3.821 -0.2997 -0.2054  0.8059
15664SOL     OW47569   1.519   3.197   6.258  0.0276 -0.0717  0.2554
15664SOL    HW147570   1.511   3.237   6.171  0.3659 -0.6260 -0.0392
15664SOL    HW247571   1.504   3.103   6.243  1.6011 -0.3975  0.5362
15665SOL     OW47572   0.890   6.248   3.391  0.0505 -0.0864 -0.4310
15665SOL    HW147573   0.941   6.179   3.433 -0.8461 -0.1629  0.5615
15665SOL    HW247574   0.799   6.224   3.406 -0.3314 -0.2541 -2.6574
15666SOL     OW47575   1.701   3.512   2.134  0.4908 -0.1584 -0.2868
15666SOL    HW147576   1.629   3.472   2.085  1.4637 -0.6205 -1.3977
15666SOL    HW247577   1.666   3.525   2.222 -1.6338  1.5142 -1.2888
15667SOL     OW47578   4.398   8.337   0.310 -0.6028 -0.1431 -0.1646
15667SOL    HW147579   4.339   8.397   0.356  0.1014 -0.5839  1.4013
15667SOL    HW247580   4.426   8.275   0.377 -1.6140 -2.5407 -1.8131
15668SOL     OW47581   2.903   8.530   0.715 -0.6093 -0.2407  0.1185
15668SOL    HW147582   2.842   8.599   0.689  0.8261  0.2344 -2.2652
15668SOL    HW247583   2.976   8.577   0.755 -0.4723 -0.5575  0.2398
15669SOL     OW47584   2.423   4.856   3.523 -0.2251  0.3346  0.1078
15669SOL    HW147585   2.434   4.876   3.616 -0.2286 -0.2731  0.2439
15669SOL    HW247586   2.329   4.838   3.513 -0.6441  2.5475 -0.4593
15670SOL     OW47587   5.672   4.402   1.042  0.0449  0.1769  0.2206
15670SOL    HW147588   5.655   4.466   0.973 -1.9278  0.4587  0.9014
15670SOL    HW247589   5.684   4.319   0.995  0.0105  0.5845 -0.5335
15671SOL     OW47590   7.993   3.276   4.468 -0.1286  0.6286 -0.4031
15671SOL    HW147591   7.921   3.297   4.407 -1.3684 -0.3187  0.6734
15671SOL    HW247592   8.016   3.186   4.447 -0.2423  0.4547  0.2095
15672SOL     OW47593   2.828   0.999   0.117  0.4412  0.0993 -0.1690
15672SOL    HW147594   2.734   1.005   0.103  0.0850 -0.9576  1.4744
15672SOL    HW247595   2.855   1.089   0.137 -0.7439  0.0657  1.9604
15673SOL     OW47596   4.067   5.388   3.629 -0.2278 -0.7351 -0.5451
15673SOL    HW147597   4.127   5.314   3.639 -0.1652 -0.6687 -0.4219
15673SOL    HW247598   3.996   5.369   3.690 -0.1483 -0.6305 -0.4194
15674SOL     OW47599   2.260   0.793   2.060 -0.3053  0.2530 -0.2845
15674SOL    HW147600   2.256   0.883   2.027 -0.3745  0.4821  0.3269
15674SOL    HW247601   2.209   0.742   1.998 -1.5183  0.8850  0.1511
15675SOL     OW47602   1.719   1.764   0.834 -0.4853  0.5771  0.5388
15675SOL    HW147603   1.774   1.686   0.834 -0.9004  0.2790  0.4348
15675SOL    HW247604   1.776   1.834   0.803  0.3296  0.6415  2.0434
15676SOL     OW47605   8.075   6.476   1.347 -0.5222  0.0001 -0.1770
15676SOL    HW147606   8.154   6.469   1.400 -1.6674  0.5423  1.6811
15676SOL    HW247607   8.023   6.399   1.370  0.0286 -1.1317 -2.4610
15677SOL     OW47608   7.271   4.839   7.361 -0.5667  0.4783 -0.5660
15677SOL    HW147609   7.219   4.908   7.400 -1.4524  0.2185 -1.2339
15677SOL    HW247610   7.288   4.777   7.432 -0.0141  1.2266 -0.0371
15678SOL     OW47611   0.918   3.295   8.663 -0.0468  0.4062 -0.2247
15678SOL    HW147612   0.987   3.357   8.686  2.1085 -1.6899 -0.6105
15678SOL    HW247613   0.918   3.293   8.568 -1.0922  0.8492 -0.2397
15679SOL     OW47614   9.317   2.870   7.714  0.4424 -0.4478  0.0648
15679SOL    HW147615   9.371   2.922   7.773  0.2391 -1.3097  1.0426
15679SOL    HW247616   9.358   2.784   7.714  0.0270 -0.6506 -0.4886
15680SOL     OW47617   5.810   2.310   9.463 -0.1039  0.2746 -0.7872
15680SOL    HW147618   5.721   2.318   9.429  0.0610  0.8175 -1.1117
15680SOL    HW247619   5.823   2.216   9.476 -0.7053  0.1908 -0.7884
15681SOL     OW47620   4.206   7.639   8.327  0.3153 -0.1268 -0.0016
15681SOL    HW147621   4.199   7.734   8.315  2.9080  0.0078 -1.1065
15681SOL    HW247622   4.164   7.622   8.411 -1.0878  1.8231 -0.2351
15682SOL     OW47623   8.355   0.479   6.773 -0.2330 -0.0617  0.1078
15682SOL    HW147624   8.441   0.446   6.746  0.2979  0.2733  1.3631
15682SOL    HW247625   8.339   0.438   6.858 -0.7589  0.8514  0.4539
15683SOL     OW47626   9.295   6.783   9.682 -0.3455  0.2258 -0.3543
15683SOL    HW147627   9.250   6.772   9.598  0.8822 -0.6523 -0.9232
15683SOL    HW247628   9.234   6.747   9.746  0.2566 -2.8693 -1.3271
15684SOL     OW47629   6.041   3.083   8.565  0.6453  0.6478 -0.1614
15684SOL    HW147630   6.011   2.998   8.597 -0.8951  1.1737 -0.1259
15684SOL    HW247631   6.024   3.081   8.471 -1.1785  1.5646  0.0985
15685SOL     OW47632   5.302   9.621   3.399 -0.1920 -0.6973  0.0622
15685SOL    HW147633   5.326   9.701   3.353 -0.3721 -0.7751 -0.1694
15685SOL    HW247634   5.372   9.608   3.463  0.5654 -1.0982 -0.8178
15686SOL     OW47635   3.988   4.143   6.468 -0.0202  0.5255  0.5842
15686SOL    HW147636   4.032   4.172   6.388  0.6300  0.7645  1.0258
15686SOL    HW247637   3.910   4.096   6.436  1.3200 -1.2495 -0.2456
15687SOL     OW47638   6.675   9.538   6.380 -0.3960  0.6011 -0.2570
15687SOL    HW147639   6.753   9.492   6.412 -0.7411  0.2132  0.0316
15687SOL    HW247640   6.706   9.626   6.361  0.1525  0.4071 -0.2928
15688SOL     OW47641   9.851   1.550   4.040 -0.0967  0.6588  0.1404
15688SOL    HW147642   9.934   1.596   4.056  0.3766 -0.4837  1.1445
15688SOL    HW247643   9.864   1.505   3.957 -0.4726  2.0853 -0.7246
15689SOL     OW47644   9.492   9.125   2.312 -0.1472 -0.8240 -0.5379
15689SOL    HW147645   9.528   9.083   2.234  0.7186  0.9482 -1.1540
15689SOL    HW247646   9.468   9.213   2.283  0.2466 -0.0970  1.1921
15690SOL     OW47647   6.713   1.500   5.973  0.4218  0.5740 -0.5902
15690SOL    HW147648   6.741   1.470   5.887  1.1194 -0.2738 -0.0762
15690SOL    HW247649   6.618   1.503   5.967  0.3081 -1.6136 -0.7231
15691SOL     OW47650   2.782   5.466   8.915 -0.3272  0.2609  0.5009
15691SOL    HW147651   2.863   5.427   8.948  0.2642  0.7321 -0.3495
15691SOL    HW247652   2.811   5.536   8.856 -1.3482  0.2857 -0.0006
15692SOL     OW47653   3.133   2.270   8.987 -0.1602 -0.4455  0.4363
15692SOL    HW147654   3.043   2.253   9.016 -0.1093  0.3235  1.0719
15692SOL    HW247655   3.133   2.361   8.960  0.2289 -0.6790 -0.3754
15693SOL     OW47656   9.536   6.947   3.197  0.0056  0.3312 -0.1511
15693SOL    HW147657   9.510   6.855   3.203 -1.0080  0.6467  0.6365
15693SOL    HW247658   9.590   6.952   3.118  0.4867 -1.0238  0.0683
15694SOL     OW47659   1.952   5.881   7.907  0.2056  0.4350 -0.2349
15694SOL    HW147660   2.011   5.952   7.882 -1.5910  2.4090  0.7935
15694SOL    HW247661   1.965   5.871   8.002  0.8158 -1.0341 -0.4383
15695SOL     OW47662   9.049   7.840   6.808  0.0967 -0.3652  0.4169
15695SOL    HW147663   9.063   7.752   6.774 -0.9077 -0.4000  0.0397
15695SOL    HW247664   8.994   7.827   6.886 -0.8060 -0.0296 -0.1453
15696SOL     OW47665   9.115   9.514   0.967 -0.3630 -0.2753 -0.1446
15696SOL    HW147666   9.049   9.475   1.026  0.9857 -0.4755  1.2859
15696SOL    HW247667   9.162   9.576   1.022 -0.6892  1.4383 -1.7030
15697SOL     OW47668   7.296   5.735   3.333 -0.4639 -0.4599  0.4253
15697SOL    HW147669   7.368   5.783   3.294 -0.3098 -0.6963  0.4222
15697SOL    HW247670   7.223   5.745   3.271 -0.3886 -0.3569  0.3541
15698SOL     OW47671   4.963   5.269   9.090 -0.6316 -0.1572  0.5368
15698SOL    HW147672   5.033   5.244   9.030 -0.7421 -0.2752  0.4567
15698SOL    HW247673   4.994   5.242   9.176  0.1601  1.2883  0.7455
15699SOL     OW47674   3.491   1.880   2.183  0.1070 -0.2819  0.4793
15699SOL    HW147675   3.425   1.934   2.141 -0.6769 -0.2866  1.6766
15699SOL    HW247676   3.574   1.924   2.165 -0.0692 -0.7261 -1.7755
15700SOL     OW47677   2.752   5.191   0.177  0.1448  0.0650 -0.4894
15700SOL    HW147678   2.810   5.196   0.253 -0.5881 -2.0257  0.2825
15700SOL    HW247679   2.741   5.282   0.150  1.6181  0.7406  0.9891
15701SOL     OW47680   2.385   2.405   5.100 -0.9430  0.1368  0.1029
15701SOL    HW147681   2.301   2.384   5.141 -1.1344 -1.0137 -0.8210
15701SOL    HW247682   2.405   2.494   5.129 -2.7634  0.6548 -0.1288
15702SOL     OW47683   7.219   8.767   5.808 -0.6022 -0.4117 -0.0336
15702SOL    HW147684   7.157   8.707   5.850  1.1733 -2.5993 -0.3336
15702SOL    HW247685   7.170   8.848   5.796 -1.9435 -0.3713  4.1288
15703SOL     OW47686   7.118   6.202   5.950  0.2372  0.3499  0.0143
15703SOL    HW147687   7.170   6.129   5.916  0.2306  0.7066 -0.7975
15703SOL    HW247688   7.051   6.161   6.004  0.8413 -0.1747  0.3698
15704SOL     OW47689   8.923   4.952   9.788  0.0971 -0.1098 -0.7678
15704SOL    HW147690   8.851   4.892   9.769 -0.3074 -0.4293  1.4342
15704SOL    HW247691   8.890   5.007   9.859  1.7559  0.2434 -0.2253
15705SOL     OW47692   2.880   8.759   9.779 -0.2692  0.3882 -0.5065
15705SOL    HW147693   2.951   8.823   9.783  0.9725 -0.9807  0.1997
15705SOL    HW247694   2.890   8.708   9.859 -0.6901 -1.2412 -1.4615
15706SOL     OW47695   2.911   5.695   2.356  0.3432 -0.5304  0.3834
15706SOL    HW147696   2.944   5.759   2.419  1.0725 -2.1415  1.7152
15706SOL    HW247697   2.988   5.664   2.309 -0.4192  2.8766 -3.7606
15707SOL     OW47698   0.489   6.921   3.589  0.5619 -0.7138  0.1838
15707SOL    HW147699   0.544   6.942   3.513  0.7080  0.2498  0.5499
15707SOL    HW247700   0.493   6.999   3.644 -0.5273 -0.9479  0.6104
15708SOL     OW47701   0.449   7.487   0.119 -0.4292 -0.4404  0.0093
15708SOL    HW147702   0.496   7.405   0.103  0.5816  0.3226 -1.1079
15708SOL    HW247703   0.486   7.520   0.201  1.6068  0.5120 -1.2147
15709SOL     OW47704   8.421   0.071   2.747  0.0729  0.0112  0.3137
15709SOL    HW147705   8.470   0.132   2.692  1.4445  0.1663  1.6282
15709SOL    HW247706   8.384   0.008   2.686  2.0355 -0.1754 -0.7815
15710SOL     OW47707   0.346   3.458   3.455  0.0405  0.4259 -0.4449
15710SOL    HW147708   0.378   3.414   3.534  1.2220  1.5585 -0.2540
15710SOL    HW247709   0.368   3.551   3.469 -1.0220  0.8577 -1.4813
15711SOL     OW47710   4.615   6.594   5.872  0.0006  0.1902  0.7319
15711SOL    HW147711   4.637   6.507   5.840  0.2942  0.8538 -1.0054
15711SOL    HW247712   4.520   6.600   5.863  0.2032  0.9126 -1.6875
15712SOL     OW47713   7.174   8.258   8.280  0.1215  0.2473  0.3230
15712SOL    HW147714   7.249   8.269   8.222  0.5527 -0.5257  0.7124
15712SOL    HW247715   7.107   8.315   8.244  1.4159  2.2176  0.8892
15713SOL     OW47716   5.636   5.076   6.124  0.7697  0.0345  0.9211
15713SOL    HW147717   5.550   5.049   6.157  0.8454 -0.0291  1.0637
15713SOL    HW247718   5.652   5.019   6.049  0.1703  0.8042  0.1868
15714SOL     OW47719   1.050   4.948   0.426  0.1350 -0.1364 -0.4639
15714SOL    HW147720   1.068   4.854   0.424  0.9560  0.0142 -0.6175
15714SOL    HW247721   1.048   4.970   0.519 -1.9083 -0.6254 -0.3555
15715SOL     OW47722   0.195   5.217   0.069 -0.1830 -0.3998 -0.7298
15715SOL    HW147723   0.121   5.277   0.057 -0.6669 -0.8917 -0.2318
15715SOL    HW247724   0.260   5.269   0.118 -1.1036 -0.6477  0.8241
15716SOL     OW47725   5.165   6.690   9.678  0.2243 -0.7642  0.0432
15716SOL    HW147726   5.229   6.630   9.716  1.2223 -0.9177 -1.7703
15716SOL    HW247727   5.174   6.678   9.583 -2.3322 -0.6216 -0.3023
15717SOL     OW47728   6.111   0.514   8.606 -0.1853 -0.3586  0.4350
15717SOL    HW147729   6.186   0.458   8.585  0.6729 -0.0174  2.3271
15717SOL    HW247730   6.069   0.530   8.522  0.9651 -1.8307 -0.4827
15718SOL     OW47731   2.405   3.612   2.388  0.3515  0.8019 -0.3136
15718SOL    HW147732   2.418   3.556   2.311 -2.0034  1.7196 -1.5074
15718SOL    HW247733   2.355   3.687   2.354 -1.4314  0.8853  2.2310
15719SOL     OW47734   8.484   8.004   0.789  0.2191  0.0266 -0.5182
15719SOL    HW147735   8.439   8.045   0.862 -1.3519 -2.4455  0.0333
15719SOL    HW247736   8.487   8.072   0.721  0.0229  1.7697  1.1374
15720SOL     OW47737   6.128   9.831   9.889  0.4084 -0.0584 -0.3543
15720SOL    HW147738   6.220   9.809   9.904  0.6739  0.6804 -0.8477
15720SOL    HW247739   6.082   9.796   9.965  1.1432 -0.1441  0.0555
15721SOL     OW47740   0.988   4.983   3.076 -0.1640  0.0099  0.5165
15721SOL    HW147741   0.987   5.061   3.131 -1.5411 -0.6673  1.4762
15721SOL    HW247742   0.954   4.913   3.131 -0.4184 -0.9579 -0.8111
15722SOL     OW47743   7.362   7.539   2.722  0.4316 -0.1411 -0.1336
15722SOL    HW147744   7.267   7.531   2.734  0.5099 -0.3145  0.3679
15722SOL    HW247745   7.391   7.452   2.697  0.6580 -0.4296  1.0888
15723SOL     OW47746   0.769   6.343   8.322 -0.2312  0.4737  0.6021
15723SOL    HW147747   0.807   6.363   8.235  2.2250 -1.6139  1.0646
15723SOL    HW247748   0.774   6.426   8.369 -1.4371  1.6080 -1.1372
15724SOL     OW47749   0.693   9.466   4.456  0.2485  0.0010 -0.4467
15724SOL    HW147750   0.665   9.423   4.537  2.7434 -2.0817 -0.5242
15724SOL    HW247751   0.675   9.402   4.387  3.9678 -1.1351 -0.5861
15725SOL     OW47752   8.005   8.455   8.154  0.0787 -0.6054  0.4630
15725SOL    HW147753   7.980   8.546   8.169  0.5870 -0.0849 -1.5044
15725SOL    HW247754   8.022   8.450   8.060 -0.6492 -2.9228  0.3809
15726SOL     OW47755   6.195   6.376   0.500  0.0971 -0.6682  0.6068
15726SOL    HW147756   6.166   6.299   0.451 -1.4074 -0.5736  1.2744
15726SOL    HW247757   6.142   6.374   0.580 -1.6771  2.2668 -0.3465
15727SOL     OW47758   4.559   4.270   5.908 -0.2295 -0.2397 -0.4493
15727SOL    HW147759   4.636   4.212   5.916 -1.7324 -2.1948  0.7421
15727SOL    HW247760   4.583   4.349   5.957  1.7168  0.0375 -1.7307
15728SOL     OW47761   0.527   4.480   3.761 -0.2034  0.2305  0.0616
15728SOL    HW147762   0.573   4.548   3.712 -1.2110  0.5037 -0.5159
15728SOL    HW247763   0.502   4.415   3.695  0.0744 -0.3346  0.4974
15729SOL     OW47764   8.206   5.131   4.992  0.5373 -0.5453 -0.5986
15729SOL    HW147765   8.217   5.122   5.086  0.8383  0.5836 -0.5010
15729SOL    HW247766   8.125   5.085   4.972 -0.0478  0.0288  0.3764
15730SOL     OW47767   6.700   1.078   6.524 -0.0075  0.5023  0.2960
15730SOL    HW147768   6.728   1.081   6.433  1.8043 -1.5300  0.7107
15730SOL    HW247769   6.673   0.988   6.538  2.0669  0.0828  2.3193
15731SOL     OW47770   3.619   7.491   6.050  0.1711  0.4636  0.3412
15731SOL    HW147771   3.620   7.567   6.108  0.5332  0.4453  0.3600
15731SOL    HW247772   3.587   7.419   6.105  0.5011  0.4487  0.5200
15732SOL     OW47773   7.728   6.416   0.895  0.0096  0.0690  0.4930
15732SOL    HW147774   7.793   6.418   0.825  0.2455 -0.2085  0.6968
15732SOL    HW247775   7.736   6.327   0.931 -0.6789 -0.0590  0.3341
15733SOL     OW47776   8.683   8.514   2.573  0.1622 -0.6318  0.3555
15733SOL    HW147777   8.702   8.427   2.609  0.2251 -0.6382  0.3080
15733SOL    HW247778   8.604   8.542   2.618  0.3425 -0.5622  0.6326
15734SOL     OW47779   7.254   9.914   7.421  0.2756 -0.1308  0.2698
15734SOL    HW147780   7.298   9.878   7.344  0.3936  0.3212  0.1228
15734SOL    HW247781   7.260  10.009   7.410 -2.9093  0.0340 -1.0312
15735SOL     OW47782   9.830   1.151   3.578  0.0467 -0.2573  0.3164
15735SOL    HW147783   9.889   1.075   3.585 -0.8725 -1.0481 -0.2619
15735SOL    HW247784   9.775   1.145   3.656  1.0370  0.7783  1.1282
15736SOL     OW47785   8.249   4.603   7.245  0.0005  0.5449 -0.3535
15736SOL    HW147786   8.297   4.535   7.294  0.1208  0.5484 -0.4658
15736SOL    HW247787   8.257   4.576   7.154  0.1612  0.7818 -0.4105
15737SOL     OW47788   5.175   6.464   1.810  0.2582 -0.6436 -0.3301
15737SOL    HW147789   5.244   6.497   1.753  0.3649 -0.7575 -0.2694
15737SOL    HW247790   5.205   6.376   1.834 -0.2603 -0.9799 -0.8910
15738SOL     OW47791   6.760   9.653   3.467  0.2748 -0.2235 -0.1429
15738SOL    HW147792   6.747   9.591   3.539  0.1786  0.9114  0.8621
15738SOL    HW247793   6.709   9.617   3.395  0.5577 -1.5170  0.2667
15739SOL     OW47794   8.431   6.294   0.293 -0.4577  0.1450 -0.1479
15739SOL    HW147795   8.417   6.382   0.329  1.3733  0.4415 -0.0563
15739SOL    HW247796   8.456   6.310   0.201 -1.1955 -0.3579 -0.4422
15740SOL     OW47797   3.031   3.400   1.888 -0.1655  0.3104 -0.6952
15740SOL    HW147798   3.093   3.413   1.960 -1.5208  1.0739  0.3796
15740SOL    HW247799   3.063   3.321   1.844 -0.5437 -1.5912  2.1453
15741SOL     OW47800   9.101   6.970   6.338  0.5475 -0.2421  0.0711
15741SOL    HW147801   9.120   7.052   6.383 -0.0461  0.4360 -0.8563
15741SOL    HW247802   9.006   6.970   6.327  0.6417 -0.4972 -0.9174
15742SOL     OW47803   2.606   4.940   8.521 -0.1499  0.0302  0.5449
15742SOL    HW147804   2.619   5.033   8.536  0.4791 -0.0152  0.3222
15742SOL    HW247805   2.514   4.925   8.541 -0.1747  0.6322  0.9077
15743SOL     OW47806   2.111   0.277   6.987  0.3801 -0.0915 -0.1117
15743SOL    HW147807   2.027   0.249   7.023 -0.6521  1.6535 -1.0288
15743SOL    HW247808   2.150   0.330   7.057  0.3667 -0.2745  0.0358
15744SOL     OW47809   8.478   1.877   2.797  0.4675 -0.2839  0.3957
15744SOL    HW147810   8.555   1.838   2.838  0.1083 -0.7480  0.6373
15744SOL    HW247811   8.508   1.903   2.710  1.0328  0.0082  0.6726
15745SOL     OW47812   7.071   2.482   7.780 -0.2214 -0.2389 -0.0477
15745SOL    HW147813   6.979   2.509   7.775 -0.1954 -0.3564 -2.1738
15745SOL    HW247814   7.120   2.558   7.749  0.2830 -0.6978 -0.3938
15746SOL     OW47815   7.086   0.984   0.283  0.3480  0.6553 -0.0770
15746SOL    HW147816   7.144   0.915   0.314 -1.4758 -0.3076  1.4319
15746SOL    HW247817   7.072   1.040   0.359 -0.5492  0.9477 -0.4435
15747SOL     OW47818   7.926   6.448   4.364  0.4979 -0.0489  0.2364
15747SOL    HW147819   8.008   6.494   4.344  0.9779 -0.7606  0.5005
15747SOL    HW247820   7.924   6.445   4.460  0.4823 -0.5696  0.2250
15748SOL     OW47821   8.358   6.054   8.334 -0.3097 -0.1000  0.6736
15748SOL    HW147822   8.361   5.958   8.341 -0.2999 -0.1471  0.0881
15748SOL    HW247823   8.265   6.074   8.325 -0.4527  0.0728  2.3249
15749SOL     OW47824   7.389   0.696   9.933  0.1032  0.0843  0.2689
15749SOL    HW147825   7.446   0.724  10.006 -0.7417 -1.4042  1.5487
15749SOL    HW247826   7.333   0.629   9.971 -0.0333 -1.1068 -1.9155
15750SOL     OW47827   0.478   7.896   6.390  0.4935 -0.2006 -0.5712
15750SOL    HW147828   0.438   7.852   6.465 -0.1650  1.3897  0.0490
15750SOL    HW247829   0.440   7.852   6.314 -2.1916  0.9337 -0.0010
15751SOL     OW47830   8.634   5.274   0.680  0.3460  0.1809 -0.2607
15751SOL    HW147831   8.568   5.324   0.729  0.8238 -0.1035  0.6775
15751SOL    HW247832   8.585   5.237   0.606 -0.7080 -0.5645  0.7746
15752SOL     OW47833   6.582   1.924   4.603  0.8190  0.0736  0.5762
15752SOL    HW147834   6.585   2.013   4.568 -0.8340  0.4790  1.3570
15752SOL    HW247835   6.658   1.918   4.661  1.5957  0.5670 -0.3631
15753SOL     OW47836   8.173   7.311   0.879  0.3489 -0.2784 -0.0457
15753SOL    HW147837   8.137   7.333   0.794  0.3600  0.5917  0.1717
15753SOL    HW247838   8.097   7.282   0.930  0.2961 -0.5068 -0.2544
15754SOL     OW47839   6.603   9.922   3.361 -0.2244  0.1238  0.0623
15754SOL    HW147840   6.510   9.943   3.366 -0.1424  0.5159 -0.0445
15754SOL    HW247841   6.615   9.852   3.425 -0.5658  0.1724  0.1826
15755SOL     OW47842   0.837   0.961   0.727 -0.5315 -0.6960 -0.1451
15755SOL    HW147843   0.925   0.994   0.746 -1.6310  0.9806  2.5316
15755SOL    HW247844   0.806   0.925   0.810 -2.6340 -0.6627 -0.8577
15756SOL     OW47845   8.716   2.651   2.559  0.2433  0.1012 -0.2090
15756SOL    HW147846   8.731   2.575   2.615  0.2651  0.1449 -0.1551
15756SOL    HW247847   8.764   2.632   2.479  0.7948  0.3526  0.0611
15757SOL     OW47848   7.428   1.057   6.095 -0.0730  0.0866  0.5605
15757SOL    HW147849   7.443   1.151   6.088  1.9078 -0.2758 -0.7588
15757SOL    HW247850   7.450   1.036   6.186  0.7036  0.7228  0.5327
15758SOL     OW47851   1.406   8.957   7.252 -0.5983  0.0485  0.4413
15758SOL    HW147852   1.398   8.890   7.320 -1.8167  1.4929  1.7885
15758SOL    HW247853   1.370   9.036   7.292  1.5174  1.7523 -0.8078
15759SOL     OW47854   0.619   3.810   8.131 -0.0302 -0.2800  0.1779
15759SOL    HW147855   0.706   3.777   8.110  0.0102  0.5808 -1.1677
15759SOL    HW247856   0.569   3.801   8.050 -1.2622 -0.8988  0.9677
15760SOL     OW47857   0.741   9.872   2.818 -0.9912 -0.0224 -0.5253
15760SOL    HW147858   0.799   9.797   2.807 -1.5451 -0.6734  0.8192
15760SOL    HW247859   0.697   9.880   2.733  0.6004  0.1236 -1.3713
15761SOL     OW47860   3.915   8.243   5.256 -0.0053 -0.5714  0.2614
15761SOL    HW147861   3.959   8.220   5.174  0.6407 -0.4672  0.5772
15761SOL    HW247862   3.930   8.337   5.266  1.1311 -0.8346  1.2068
15762SOL     OW47863   6.737   9.012   5.473  0.3474  0.0619  0.6411
15762SOL    HW147864   6.694   8.983   5.553 -0.3262  0.4897  0.4431
15762SOL    HW247865   6.667   9.051   5.421  0.9540  0.6589  0.2572
15763SOL     OW47866   2.407   6.179   9.325 -0.4233  0.0834 -0.0499
15763SOL    HW147867   2.337   6.232   9.363 -1.2757 -0.5566 -0.6794
15763SOL    HW247868   2.366   6.135   9.251 -0.2991 -2.8477  1.4588
15764SOL     OW47869   0.494   1.384   4.047 -0.2571 -0.5284  0.6472
15764SOL    HW147870   0.508   1.302   4.094 -0.4845 -1.0122 -0.1200
15764SOL    HW247871   0.485   1.449   4.116  0.5824 -1.0319  1.2632
15765SOL     OW47872   5.157   5.982   1.416 -0.1567 -0.3423 -0.3635
15765SOL    HW147873   5.195   6.064   1.384 -1.3440  0.6074  0.5683
15765SOL    HW247874   5.194   5.915   1.359  0.9839  0.8168 -1.0382
15766SOL     OW47875   8.687   5.628   2.226 -0.3286  0.2328  0.2798
15766SOL    HW147876   8.607   5.638   2.173 -0.3597 -0.1293  0.2580
15766SOL    HW247877   8.743   5.571   2.173  0.6051  1.7674 -0.4589
15767SOL     OW47878   6.224   2.535   9.903 -0.0025 -0.0104  0.2167
15767SOL    HW147879   6.250   2.444   9.918 -0.7720 -0.5260 -1.4325
15767SOL    HW247880   6.146   2.529   9.848  1.2303  1.6770 -1.8573
15768SOL     OW47881   4.543   2.929   1.398 -0.3279  0.3161 -0.5436
15768SOL    HW147882   4.491   2.988   1.343 -0.3862 -0.2894 -1.1590
15768SOL    HW247883   4.540   2.845   1.351 -0.2452 -0.1730  0.3125
15769SOL     OW47884   6.146   2.092   9.739 -0.0476 -0.9719 -0.1257
15769SOL    HW147885   6.080   2.143   9.786  0.5862  0.4035 -0.6399
15769SOL    HW247886   6.098   2.025   9.693 -0.9010 -1.0250  0.8137
15770SOL     OW47887   4.582   6.694   5.296 -0.3361 -0.1038  0.0677
15770SOL    HW147888   4.599   6.628   5.362  1.7472 -0.0800 -0.3883
15770SOL    HW247889   4.649   6.680   5.229 -1.2758  1.0007 -1.1799
15771SOL     OW47890   4.299   6.627   2.325  0.1807 -0.0915  0.1216
15771SOL    HW147891   4.345   6.545   2.345  2.5313  1.3449  0.9849
15771SOL    HW247892   4.267   6.659   2.409  0.9161  0.7885  0.0786
15772SOL     OW47893   7.462   0.989   1.772  0.4607  0.3928  0.3101
15772SOL    HW147894   7.485   1.054   1.706  0.5310 -0.7338 -0.8297
15772SOL    HW247895   7.545   0.968   1.815  0.3083  1.6149  1.2595
15773SOL     OW47896   1.712   8.690   8.544 -0.0984  0.1997 -0.3433
15773SOL    HW147897   1.757   8.618   8.499 -0.2142 -0.6795  0.8892
15773SOL    HW247898   1.686   8.749   8.474  0.1661 -0.8671 -1.3817
15774SOL     OW47899   0.855   8.030   7.546  0.2318 -0.5447  0.0916
15774SOL    HW147900   0.823   8.089   7.478 -0.5082  1.0277  1.7127
15774SOL    HW247901   0.777   7.981   7.574  0.2361 -0.2084  0.7148
15775SOL     OW47902   4.502   3.743   1.079  0.0648 -0.0496 -0.5415
15775SOL    HW147903   4.494   3.831   1.044 -0.1550 -0.0373 -0.4563
15775SOL    HW247904   4.430   3.734   1.141 -1.3324 -1.0612 -2.2070
15776SOL     OW47905   3.640   8.881   4.208  0.3482 -0.4973  0.2509
15776SOL    HW147906   3.736   8.886   4.207  0.3462  4.0382  1.6302
15776SOL    HW247907   3.618   8.862   4.299 -0.1267 -1.6990 -0.0952
15777SOL     OW47908   6.574   6.505   5.345  0.1286 -0.1596  0.0529
15777SOL    HW147909   6.591   6.594   5.375  0.6508 -0.6931  1.4481
15777SOL    HW247910   6.530   6.516   5.261  0.8566  1.3994 -0.1751
15778SOL     OW47911   2.313   3.803   9.747 -0.4560 -0.7123  0.5520
15778SOL    HW147912   2.299   3.720   9.702  1.6423 -1.2368  0.7705
15778SOL    HW247913   2.287   3.870   9.683  0.0321 -1.4937 -0.4858
15779SOL     OW47914   2.989   9.902   1.637  0.1415  0.4724  0.1199
15779SOL    HW147915   3.072   9.860   1.661 -0.7278 -2.9688 -2.1335
15779SOL    HW247916   3.012   9.960   1.563  0.5115 -0.9537 -0.9177
15780SOL     OW47917   2.884   3.891   0.726  0.6343 -0.1292 -0.6368
15780SOL    HW147918   2.886   3.796   0.713 -1.3734  0.0315 -2.6926
15780SOL    HW247919   2.932   3.926   0.651  2.1772  0.5189  0.5976
15781SOL     OW47920   4.472   8.782  -0.033  0.0563 -0.4661 -0.0298
15781SOL    HW147921   4.500   8.693  -0.010 -2.0945 -1.1014  0.3460
15781SOL    HW247922   4.445   8.821   0.049  2.8112  1.3369  0.1408
15782SOL     OW47923   3.223   5.249   3.284  0.3422  0.0214 -0.3474
15782SOL    HW147924   3.175   5.288   3.358 -0.4600  1.4945 -1.5675
15782SOL    HW247925   3.270   5.323   3.245  1.7313 -0.9669 -0.5914
15783SOL     OW47926   4.688   1.197   7.904  0.2050 -0.7680  0.3238
15783SOL    HW147927   4.698   1.106   7.932  0.2024 -0.5699  0.9986
15783SOL    HW247928   4.648   1.240   7.979 -0.2449 -0.3086 -0.1772
15784SOL     OW47929   5.026   5.848   8.802  0.1236  0.5374  0.3611
15784SOL    HW147930   5.034   5.917   8.868 -1.3390 -0.7041  1.9191
15784SOL    HW247931   4.960   5.789   8.837 -1.0098  0.0089 -2.4198
15785SOL     OW47932   9.885   1.535   9.850 -0.5450  0.2099 -0.0590
15785SOL    HW147933   9.803   1.585   9.843 -0.2617  0.6493 -0.2807
15785SOL    HW247934   9.899   1.524   9.944 -0.9223  0.0219 -0.0226
15786SOL     OW47935   8.225   7.133   1.243 -0.4212 -0.4457 -0.0951
15786SOL    HW147936   8.195   7.046   1.270  1.1121 -0.3321  2.1710
15786SOL    HW247937   8.144   7.183   1.230 -1.3177 -1.1530  2.3005
15787SOL     OW47938   7.351   0.352   0.713  0.2297  0.1996  0.1186
15787SOL    HW147939   7.411   0.287   0.750  1.5660  2.6560  2.6372
15787SOL    HW247940   7.269   0.338   0.760 -0.1226 -0.8207 -0.7421
15788SOL     OW47941   5.249   4.145   7.273 -0.0592  0.3204 -0.4462
15788SOL    HW147942   5.237   4.150   7.368  0.7554  0.2191 -0.3344
15788SOL    HW247943   5.169   4.184   7.237 -0.7469 -0.4163  0.2630
15789SOL     OW47944   3.355   6.471   4.610 -0.0380 -0.7933 -0.0244
15789SOL    HW147945   3.269   6.429   4.609 -0.8910  0.8092  1.2495
15789SOL    HW247946   3.416   6.400   4.633 -1.1703 -1.7183  0.2210
15790SOL     OW47947   2.267   1.427   2.033  0.4215 -0.1586 -0.2812
15790SOL    HW147948   2.177   1.408   2.059  1.0471 -0.0523  2.3060
15790SOL    HW247949   2.288   1.362   1.966 -1.0882 -1.2432  0.2476
15791SOL     OW47950   5.920   8.865   5.722  0.4863 -0.0036 -0.2823
15791SOL    HW147951   5.857   8.937   5.729 -0.7345 -0.8810 -1.7156
15791SOL    HW247952   5.933   8.835   5.812 -1.4904 -0.0674  0.0244
15792SOL     OW47953   2.411   9.594   6.338  0.2684  0.3280  0.3555
15792SOL    HW147954   2.406   9.660   6.407  1.0955  0.7001  0.0661
15792SOL    HW247955   2.467   9.633   6.271 -0.5716  0.0128 -0.5745
15793SOL     OW47956   8.292   0.206   7.742 -0.4593 -0.4234  0.2492
15793SOL    HW147957   8.207   0.249   7.738 -1.1954 -1.7953  0.5436
15793SOL    HW247958   8.340   0.240   7.667 -1.9153 -0.9074 -0.9522
15794SOL     OW47959   6.785   7.492   3.575 -0.3502  0.1887 -0.0851
15794SOL    HW147960   6.733   7.416   3.599  0.4013 -0.7592 -1.3694
15794SOL    HW247961   6.755   7.515   3.487  2.4331 -1.4016 -1.5893
15795SOL     OW47962   2.060   6.741   7.185 -0.4112 -0.8692  0.1961
15795SOL    HW147963   1.967   6.727   7.168 -0.3262 -1.3620  0.1318
15795SOL    HW247964   2.061   6.805   7.257 -0.7920 -0.6875  0.0487
15796SOL     OW47965   9.409   2.254   9.209 -0.6961  0.0513 -0.1687
15796SOL    HW147966   9.472   2.206   9.262  0.3436  0.0750 -1.3381
15796SOL    HW247967   9.336   2.272   9.268 -0.0766 -0.9080  0.9224
15797SOL     OW47968   8.428   8.367   0.828 -0.2684 -0.3887  0.0294
15797SOL    HW147969   8.373   8.406   0.760 -0.2326  2.2992  1.4162
15797SOL    HW247970   8.508   8.341   0.782 -0.0778  1.7550 -0.9614
15798SOL     OW47971   0.185   0.593   4.861  0.7785 -0.3017  0.1062
15798SOL    HW147972   0.131   0.586   4.940 -0.9750 -0.4206 -1.0402
15798SOL    HW247973   0.229   0.508   4.854  0.4163 -0.5324  0.5786
15799SOL     OW47974   3.759   6.108   3.447 -0.2531 -0.3401 -0.1398
15799SOL    HW147975   3.738   6.160   3.524 -1.0787  0.2524 -0.7519
15799SOL    HW247976   3.840   6.147   3.413  0.6435 -1.2007  0.9395
15800SOL     OW47977   9.398   9.735   3.329 -0.4140 -0.1984  0.0438
15800SOL    HW147978   9.359   9.681   3.398 -0.4084  1.4414  1.4019
15800SOL    HW247979   9.376   9.690   3.248 -2.0973 -1.1874  0.9874
15801SOL     OW47980   3.185   1.188   6.233 -0.0861 -0.2336 -0.5189
15801SOL    HW147981   3.241   1.135   6.288 -1.0391  0.6208  1.3824
15801SOL    HW247982   3.240   1.261   6.205 -0.3099  0.9741  1.8987
15802SOL     OW47983   3.003   6.938   2.784  0.2465  0.5622  0.4729
15802SOL    HW147984   3.061   6.883   2.837 -0.8681 -0.1714  0.9563
15802SOL    HW247985   3.052   6.951   2.702  0.4067 -1.4748  0.1846
15803SOL     OW47986   7.562   0.780   4.950  0.5302  0.2807 -0.2224
15803SOL    HW147987   7.525   0.704   4.996 -1.1554  1.2761  0.1890
15803SOL    HW247988   7.652   0.786   4.982  0.1435 -0.5031  1.1124
15804SOL     OW47989   9.482   8.540   5.655  0.3953  0.6926 -0.4334
15804SOL    HW147990   9.415   8.513   5.719  0.6102 -1.4806 -1.0467
15804SOL    HW247991   9.432   8.580   5.584  0.0083  1.5981  0.3302
15805SOL     OW47992   3.990   4.647   7.270 -0.3658 -1.0123 -0.3710
15805SOL    HW147993   4.044   4.655   7.348  0.5672 -1.2352 -0.9706
15805SOL    HW247994   3.993   4.554   7.247 -1.1008 -1.0458 -0.3533
15806SOL     OW47995   4.992   4.233   2.076 -0.3655 -0.7407 -0.4065
15806SOL    HW147996   4.911   4.247   2.027 -2.1322 -2.4626  1.8604
15806SOL    HW247997   5.031   4.155   2.036  0.3136  0.1650 -1.5837
15807SOL     OW47998   3.951   0.681   9.787  0.0986 -0.5151 -0.1106
15807SOL    HW147999   3.866   0.721   9.806  0.2679  0.5744 -1.5146
15807SOL    HW248000   4.013   0.728   9.843 -0.2637 -1.7282  1.3806
15808SOL     OW48001   7.384   4.767   9.120 -0.1400 -0.0502  0.4126
15808SOL    HW148002   7.307   4.714   9.140 -0.2046  0.3110  1.1496
15808SOL    HW248003   7.353   4.858   9.124  0.1801  0.0774  0.0804
15809SOL     OW48004   5.029   8.435   9.111  0.4196 -0.0549 -0.5196
15809SOL    HW148005   5.073   8.408   9.191  2.3713  1.8998 -0.8469
15809SOL    HW248006   5.015   8.529   9.121 -2.2081 -0.2722 -1.2030
15810SOL     OW48007   5.255   7.611   9.139  0.2100 -0.2614  0.8715
15810SOL    HW148008   5.283   7.524   9.112  1.9715  0.7093 -0.5916
15810SOL    HW248009   5.198   7.641   9.068 -0.0646 -0.0335  1.1817
15811SOL     OW48010   0.426   6.136   8.051  0.0934 -0.4634  0.2597
15811SOL    HW148011   0.477   6.142   8.132  0.2575  1.3485  0.0574
15811SOL    HW248012   0.356   6.200   8.063  1.1219  1.1282 -1.6908
15812SOL     OW48013   5.059   9.946   6.744 -0.1247  0.1337 -0.8937
15812SOL    HW148014   5.141   9.993   6.730 -0.1380 -0.1092 -1.8448
15812SOL    HW248015   5.041   9.902   6.661 -1.1272  0.0329 -0.6454
15813SOL     OW48016   8.934   8.476   9.241 -0.1682  0.2997 -0.3711
15813SOL    HW148017   8.865   8.481   9.308  0.1720  1.7981 -0.1107
15813SOL    HW248018   8.933   8.562   9.200  0.8043 -0.0418 -1.1301
15814SOL     OW48019   5.652   1.712   1.317  0.0786 -0.1641 -0.3598
15814SOL    HW148020   5.721   1.762   1.273 -0.2807 -0.7873 -1.6595
15814SOL    HW248021   5.610   1.776   1.375  0.6253  0.6483 -0.8373
15815SOL     OW48022   9.063   2.856   9.822 -0.0420  0.4924 -0.5437
15815SOL    HW148023   9.044   2.878   9.731  0.4935  0.9855 -0.5403
15815SOL    HW248024   8.998   2.905   9.872 -3.1220 -2.9177 -0.7779
15816SOL     OW48025   3.859   6.054   1.346  0.0622 -0.5501  0.4171
15816SOL    HW148026   3.857   6.149   1.358 -0.4688 -0.5235  0.1417
15816SOL    HW248027   3.935   6.026   1.396  1.9380  0.3429 -1.7583
15817SOL     OW48028   9.909   9.401   8.330 -0.1325  0.0349  0.2122
15817SOL    HW148029   9.943   9.458   8.398  1.0115 -1.8385  1.2862
15817SOL    HW248030   9.949   9.316   8.347 -0.8517 -0.8268 -2.0174
15818SOL     OW48031   4.592   1.075   1.822 -0.6058  0.0238  0.2992
15818SOL    HW148032   4.599   1.022   1.742 -0.1260  0.2752  0.1731
15818SOL    HW248033   4.573   1.012   1.891 -2.4311 -0.0531 -0.2244
15819SOL     OW48034   1.726   0.860   7.731  0.0851  0.0060  0.0438
15819SOL    HW148035   1.663   0.888   7.798  1.4752  1.2986  0.8720
15819SOL    HW248036   1.783   0.936   7.719  1.8146 -1.2883 -0.2735
15820SOL     OW48037   3.479   3.520   1.290 -1.1763  0.0263  0.1085
15820SOL    HW148038   3.562   3.474   1.289 -1.2615 -0.1560  0.8402
15820SOL    HW248039   3.502   3.612   1.273 -0.7503  0.0802  0.9252
15821SOL     OW48040   9.069   1.317   4.562 -0.7884  0.9851 -0.2677
15821SOL    HW148041   9.163   1.327   4.579 -0.1520 -1.4123 -1.8951
15821SOL    HW248042   9.053   1.372   4.486 -0.5865  1.0193 -0.2878
15822SOL     OW48043   1.737   3.381   8.734  0.0298  0.6102  0.9975
15822SOL    HW148044   1.816   3.336   8.703  0.9502  2.5118  0.4291
15822SOL    HW248045   1.696   3.413   8.653 -1.2777 -0.2393  1.3001
15823SOL     OW48046   4.947   5.851   4.503 -0.4926 -0.0272 -0.5001
15823SOL    HW148047   4.923   5.774   4.555  0.6044  0.2863  0.5221
15823SOL    HW248048   4.894   5.922   4.539  0.4675  0.2487  0.4152
15824SOL     OW48049   4.159   7.720   1.061 -0.0166  0.0064  0.1825
15824SOL    HW148050   4.095   7.656   1.028 -0.3725  1.5355 -2.3306
15824SOL    HW248051   4.197   7.677   1.138 -3.5554 -1.2523  1.4396
15825SOL     OW48052   5.450   4.016   1.631 -0.5676  0.3623 -0.2254
15825SOL    HW148053   5.473   4.105   1.658 -0.9511  0.4287 -0.1149
15825SOL    HW248054   5.529   3.965   1.647 -0.8084  0.3834  1.1161
15826SOL     OW48055   2.806   6.762   8.539 -0.4175  0.2600  0.6393
15826SOL    HW148056   2.813   6.845   8.587 -1.5873  0.5119  0.4048
15826SOL    HW248057   2.713   6.755   8.516  0.2721  0.9539 -2.9786
15827SOL     OW48058   6.041   7.060   3.274 -0.3678  0.2033 -0.0204
15827SOL    HW148059   6.126   7.090   3.304 -0.6680  0.3744  0.6925
15827SOL    HW248060   6.035   6.969   3.302  0.4363 -0.5011 -1.9560
15828SOL     OW48061   2.050   6.726   4.882  0.4737 -0.1324 -0.3207
15828SOL    HW148062   2.013   6.808   4.915  1.3279  1.1563 -2.3674
15828SOL    HW248063   2.131   6.715   4.932  1.4539  1.4710 -1.4564
15829SOL     OW48064   1.064   1.603   3.913  0.2452 -0.0903 -0.1467
15829SOL    HW148065   1.008   1.596   3.990  0.3824 -0.8119 -0.1082
15829SOL    HW248066   1.135   1.661   3.940 -0.6965  1.2067 -0.3343
15830SOL     OW48067   9.523   8.612   8.849 -0.3156  0.1616 -0.7918
15830SOL    HW148068   9.509   8.699   8.812  2.5525  1.1997  0.3025
15830SOL    HW248069   9.542   8.556   8.773  1.1234  1.2684 -1.2854
15831SOL     OW48070   7.728   4.035   1.662 -0.4181 -0.2007  0.3592
15831SOL    HW148071   7.803   3.983   1.635  0.8998  0.5720  2.2498
15831SOL    HW248072   7.660   4.018   1.596  1.3807 -0.9760 -1.3748
15832SOL     OW48073   4.235   6.817   6.049 -0.5292 -0.1564  0.3416
15832SOL    HW148074   4.193   6.861   6.123 -2.7547  1.4645 -1.6965
15832SOL    HW248075   4.171   6.750   6.023 -0.1058 -0.2340 -0.5160
15833SOL     OW48076   8.374   1.645   6.098 -0.2371 -0.6888 -0.0345
15833SOL    HW148077   8.414   1.588   6.032  2.1146  1.4247 -0.5977
15833SOL    HW248078   8.408   1.613   6.181 -1.3330 -1.9186 -0.0425
15834SOL     OW48079   6.129   2.918   1.918 -0.3327 -0.5738  0.0910
15834SOL    HW148080   6.173   2.868   1.849  1.6271 -0.5076  1.1990
15834SOL    HW248081   6.180   3.000   1.923 -0.6074 -0.4739  1.4213
15835SOL     OW48082   5.122   1.647   7.281 -0.2121 -0.4484  0.4177
15835SOL    HW148083   5.087   1.562   7.256  0.8762 -1.1034  1.0786
15835SOL    HW248084   5.197   1.628   7.337  0.4292  0.9307  0.0875
15836SOL     OW48085   1.488   0.372   4.336 -0.0712 -0.1770  0.3101
15836SOL    HW148086   1.558   0.413   4.285 -0.2814 -0.0921  0.0853
15836SOL    HW248087   1.417   0.359   4.273  0.3187 -1.7603  0.1501
15837SOL     OW48088   7.895   9.136   4.191 -0.2999 -0.0848 -0.4252
15837SOL    HW148089   7.960   9.082   4.145 -0.9045  0.5637 -2.1281
15837SOL    HW248090   7.948   9.196   4.245  0.4315 -1.0447 -0.0553
15838SOL     OW48091   0.683   5.428   8.035  0.7568 -0.0272 -0.0800
15838SOL    HW148092   0.654   5.445   7.945 -0.9794  1.8979  0.7601
15838SOL    HW248093   0.602   5.433   8.087  1.8250 -0.3336  1.6695
15839SOL     OW48094   7.431   8.740   3.029 -0.1841 -0.3580 -0.8538
15839SOL    HW148095   7.403   8.822   3.070 -0.0308 -1.0540  0.7188
15839SOL    HW248096   7.355   8.682   3.035 -0.0298 -0.6026 -1.2073
15840SOL     OW48097   1.655   4.234   2.201  0.5475 -0.9199 -0.2496
15840SOL    HW148098   1.595   4.235   2.126  0.3424  2.3240 -0.1881
15840SOL    HW248099   1.599   4.244   2.277  1.0415  0.8474 -0.0903
15841SOL     OW48100   6.765   8.366   4.303 -0.1703  0.8836 -0.6323
15841SOL    HW148101   6.714   8.326   4.373  0.6770  1.6620  0.4455
15841SOL    HW248102   6.793   8.292   4.249  2.2565 -0.1960  1.9015
15842SOL     OW48103   6.219   4.350   1.467  0.3562 -0.0016  0.4134
15842SOL    HW148104   6.255   4.295   1.536  1.8130  0.6466  0.1917
15842SOL    HW248105   6.206   4.291   1.393 -3.4757 -1.2786  1.8214
15843SOL     OW48106   3.855   9.753   3.790  0.1160 -0.0003 -0.0717
15843SOL    HW148107   3.824   9.669   3.757  2.0412 -0.0352 -2.0104
15843SOL    HW248108   3.850   9.812   3.715  0.1145  1.2478  0.8761
15844SOL     OW48109   7.016   6.577   0.451  0.1895  0.7212  0.1584
15844SOL    HW148110   6.994   6.642   0.518  0.6614  1.6858 -0.5999
15844SOL    HW248111   7.013   6.626   0.369 -0.2960 -0.4285 -0.5261
15845SOL     OW48112   1.750   3.761   5.476 -0.6576  0.4067 -0.3255
15845SOL    HW148113   1.674   3.737   5.530  0.4925 -1.0444  0.7113
15845SOL    HW248114   1.816   3.788   5.540  0.3897 -0.3432 -1.0821
15846SOL     OW48115   5.201   9.254   3.000 -0.4834  0.8122  0.0717
15846SOL    HW148116   5.221   9.296   3.084 -0.8110 -1.3684  1.3259
15846SOL    HW248117   5.136   9.311   2.959 -2.6454  0.4714  2.7320
15847SOL     OW48118   2.832   6.232   4.362 -0.0825 -0.5231  0.2499
15847SOL    HW148119   2.912   6.180   4.368 -0.3713 -1.1286 -0.8195
15847SOL    HW248120   2.811   6.232   4.268 -1.1203 -0.0496  0.4676
15848SOL     OW48121   2.625   9.881   7.838  0.2005 -0.1477 -0.1683
15848SOL    HW148122   2.567   9.808   7.857 -0.0572  0.1949  0.3921
15848SOL    HW248123   2.675   9.895   7.919 -0.9773  1.3907  0.3430
15849SOL     OW48124   4.036   7.715   2.198 -0.1033  0.4872 -0.7573
15849SOL    HW148125   3.978   7.721   2.275 -0.3907 -1.1951 -0.7918
15849SOL    HW248126   4.043   7.805   2.166 -0.7062  1.0905  0.7100
15850SOL     OW48127   7.729   1.090   8.907 -0.4714 -0.0944 -0.2744
15850SOL    HW148128   7.638   1.078   8.880 -0.5924  0.5283 -0.1500
15850SOL    HW248129   7.755   1.173   8.868  0.0399 -0.2589 -0.2905
15851SOL     OW48130   2.869   2.753   5.343  0.0900  0.1201 -0.5173
15851SOL    HW148131   2.863   2.837   5.298 -0.3461  1.0434  1.1635
15851SOL    HW248132   2.946   2.762   5.400  1.2513 -1.3934 -1.7677
15852SOL     OW48133   6.984   2.832   7.915 -0.2068 -0.1107 -0.4599
15852SOL    HW148134   7.012   2.861   8.002  0.8291 -1.3289 -0.3468
15852SOL    HW248135   7.036   2.885   7.854 -1.0191  0.8264 -0.3579
15853SOL     OW48136   2.737   9.993   9.149 -0.2442  0.1282 -0.2540
15853SOL    HW148137   2.706   9.981   9.239 -2.2727 -0.1337 -0.9336
15853SOL    HW248138   2.817   9.940   9.144 -1.7185 -2.3687  0.5882
15854SOL     OW48139   1.985   2.422   6.076  0.4714 -0.3641 -0.4069
15854SOL    HW148140   1.962   2.515   6.075  2.6024  0.2086 -0.2112
15854SOL    HW248141   2.004   2.401   5.984 -1.7756 -1.1450 -0.7610
15855SOL     OW48142   2.211   0.649   8.143  0.1715  0.2342  0.1237
15855SOL    HW148143   2.233   0.658   8.051  1.0169  2.9761  0.5075
15855SOL    HW248144   2.136   0.590   8.145  1.1736 -1.2259 -2.1296
15856SOL     OW48145   7.542   1.250   7.893  0.2189 -0.0549  0.2052
15856SOL    HW148146   7.568   1.284   7.808  2.7782  0.4396  1.0909
15856SOL    HW248147   7.483   1.177   7.874  0.5457  0.2003 -1.9500
15857SOL     OW48148   8.038   9.476   4.564 -0.0402  0.0607 -0.2323
15857SOL    HW148149   7.951   9.486   4.603 -0.5998 -1.7672 -0.9077
15857SOL    HW248150   8.097   9.516   4.627 -1.2999  0.6240  0.6241
15858SOL     OW48151   2.220   8.310   5.754 -0.2041  0.0906  0.2000
15858SOL    HW148152   2.240   8.380   5.816 -0.1102 -0.7638  1.1615
15858SOL    HW248153   2.125   8.313   5.745 -0.2770 -0.1339  0.8297
15859SOL     OW48154   1.702   0.565   5.452 -0.2127  0.3489 -0.3607
15859SOL    HW148155   1.757   0.534   5.523 -1.8018 -0.1461  0.7070
15859SOL    HW248156   1.638   0.623   5.494 -0.4199  1.0443 -1.5785
15860SOL     OW48157   8.401   8.412   7.181 -0.2649  0.0335 -0.1182
15860SOL    HW148158   8.389   8.498   7.142  0.1820  0.2188  0.1389
15860SOL    HW248159   8.496   8.403   7.188 -0.2553 -0.9131 -1.1011
15861SOL     OW48160   7.783   5.999   0.235 -0.3859  0.5017  0.3532
15861SOL    HW148161   7.809   5.930   0.175  0.7368  0.2016  1.1599
15861SOL    HW248162   7.691   6.018   0.212 -0.7785 -1.3732  0.2557
15862SOL     OW48163   3.755   6.342   1.347 -0.5712  0.2411 -0.4108
15862SOL    HW148164   3.735   6.312   1.435 -0.4277 -0.4692 -0.6081
15862SOL    HW248165   3.770   6.436   1.355  1.7014 -0.1425  0.7305
15863SOL     OW48166   4.407   5.842   6.898 -0.2497 -0.0629  0.1197
15863SOL    HW148167   4.494   5.807   6.919  0.7554  0.0966 -3.2027
15863SOL    HW248168   4.417   5.937   6.908 -0.8674 -0.1738  2.2022
15864SOL     OW48169   3.992   2.724   6.936  0.2573 -0.4212  0.9550
15864SOL    HW148170   4.000   2.813   6.970  0.3751 -0.1866  0.3297
15864SOL    HW248171   3.898   2.712   6.921  0.2141 -0.4956  1.2727
15865SOL     OW48172   0.381   1.093   9.157 -0.1837  0.1189  0.1411
15865SOL    HW148173   0.363   1.075   9.250 -0.2837  0.1511  0.1278
15865SOL    HW248174   0.461   1.145   9.158  0.3269 -0.6466  0.1586
15866SOL     OW48175   6.481   8.140   8.911 -0.0198 -0.0432  0.5691
15866SOL    HW148176   6.426   8.218   8.899  0.7805  0.2498 -1.7160
15866SOL    HW248177   6.516   8.149   8.999 -0.4041  1.9007  0.5703
15867SOL     OW48178   8.063   6.916   9.139 -0.4956 -0.3666  0.6507
15867SOL    HW148179   8.089   7.005   9.163  0.8800 -0.1429 -1.4188
15867SOL    HW248180   8.020   6.925   9.054  1.3203 -1.8374 -0.5006
15868SOL     OW48181   2.147   5.692   9.172 -0.2901 -0.7212 -0.5982
15868SOL    HW148182   2.069   5.743   9.189  0.4268  0.0105  0.6196
15868SOL    HW248183   2.214   5.756   9.148  1.0043 -0.8234  2.2914
15869SOL     OW48184   3.650   7.341   4.269  0.1897 -0.0889 -1.1577
15869SOL    HW148185   3.693   7.286   4.205  1.3257  0.6058 -1.0125
15869SOL    HW248186   3.701   7.422   4.271 -0.5203  0.3701 -0.2426
15870SOL     OW48187   2.432   8.941   7.444 -0.5982  0.0979 -0.5182
15870SOL    HW148188   2.349   8.931   7.398 -1.5253 -0.3505  1.1912
15870SOL    HW248189   2.415   9.006   7.512  0.1441 -0.7614  0.5260
15871SOL     OW48190   4.376   5.767   1.585 -0.1024  0.6897  0.2600
15871SOL    HW148191   4.325   5.691   1.616  1.1652 -0.3060 -0.0171
15871SOL    HW248192   4.356   5.836   1.648 -1.6771  0.3043  0.2399
15872SOL     OW48193   0.019   8.417   3.364  0.1736  0.3380 -0.2558
15872SOL    HW148194  -0.020   8.398   3.449 -0.4912 -1.2177 -0.8640
15872SOL    HW248195   0.097   8.362   3.361  1.7113  2.3970  0.3911
15873SOL     OW48196   9.791   9.038   4.941 -0.1325 -0.1474  0.0778
15873SOL    HW148197   9.741   9.119   4.934 -2.1746 -1.2936  0.5326
15873SOL    HW248198   9.872   9.063   4.985 -0.5481  1.6866 -0.1181
15874SOL     OW48199   8.637   9.519   6.737  0.0287 -0.0446 -0.0919
15874SOL    HW148200   8.587   9.516   6.655 -0.8626 -1.3333  0.4737
15874SOL    HW248201   8.654   9.428   6.758 -0.7435  0.1922  1.7472
15875SOL     OW48202   0.706   3.158   2.607 -0.4906  0.3703  0.3605
15875SOL    HW148203   0.654   3.119   2.678 -1.6951 -0.5476 -0.9698
15875SOL    HW248204   0.783   3.102   2.600 -0.7348  0.0212  0.4569
15876SOL     OW48205   6.621   5.879   7.124  0.0413  0.2005  0.2067
15876SOL    HW148206   6.553   5.944   7.146 -0.1456  0.6060 -1.4296
15876SOL    HW248207   6.587   5.797   7.159 -1.1233  0.4716 -0.2100
15877SOL     OW48208   6.190   6.434   2.364  0.2511 -0.3066  0.8386
15877SOL    HW148209   6.282   6.428   2.337 -0.4853 -1.4090 -1.7579
15877SOL    HW248210   6.146   6.479   2.292 -1.1826  0.8647  2.3492
15878SOL     OW48211   9.202   3.846   2.037 -0.3441  0.0563 -0.1848
15878SOL    HW148212   9.282   3.799   2.015  0.0892  0.9483 -0.5479
15878SOL    HW248213   9.157   3.857   1.954 -1.5891 -1.7193  0.1914
15879SOL     OW48214   7.107   6.061   7.355 -0.2380 -0.1177  0.6254
15879SOL    HW148215   7.049   6.135   7.373 -1.7060 -1.2923  0.8822
15879SOL    HW248216   7.080   5.993   7.416  0.3042 -1.2790 -0.3765
15880SOL     OW48217   4.329   1.442   0.520  0.4184 -0.0226  0.2240
15880SOL    HW148218   4.390   1.385   0.474  1.3973  1.0740  0.1247
15880SOL    HW248219   4.330   1.411   0.610  1.1074 -0.0362  0.2145
15881SOL     OW48220   6.287   1.625   3.904  0.0690  0.2098  0.3068
15881SOL    HW148221   6.246   1.614   3.990 -1.0974  2.7928  0.1477
15881SOL    HW248222   6.368   1.672   3.921  0.0512  0.3461  0.0270
15882SOL     OW48223   4.720   9.832   8.259  0.0992  0.0933  0.5296
15882SOL    HW148224   4.737   9.775   8.334 -0.2593  0.3994  0.8504
15882SOL    HW248225   4.774   9.910   8.276 -1.1328  0.8166  1.2515
15883SOL     OW48226   0.040   8.085   0.600  0.1446  0.4464 -0.2162
15883SOL    HW148227   0.008   8.051   0.683  1.3901 -0.5369 -0.1168
15883SOL    HW248228   0.001   8.028   0.534  0.2352  0.3866 -0.2178
15884SOL     OW48229   0.227   7.849   4.979  0.6394 -0.2368  0.1505
15884SOL    HW148230   0.185   7.929   5.011  1.4666  0.9880 -1.6459
15884SOL    HW248231   0.156   7.785   4.975 -0.4928  0.9653 -0.1662
15885SOL     OW48232   6.669   9.726   7.538 -0.9003 -0.2814  0.0662
15885SOL    HW148233   6.736   9.716   7.605 -2.2958 -0.3968  1.5060
15885SOL    HW248234   6.599   9.666   7.564 -2.1595  0.8246 -0.6005
15886SOL     OW48235   5.831   2.980   7.093 -0.1920  0.2319  0.1591
15886SOL    HW148236   5.863   2.919   7.026 -2.6421 -0.3111 -0.6376
15886SOL    HW248237   5.797   2.924   7.163  0.4440  0.7720  0.9175
15887SOL     OW48238   7.158   6.032   0.243  0.2993  0.3105  0.0422
15887SOL    HW148239   7.118   5.959   0.195 -0.9946  0.1205  1.3497
15887SOL    HW248240   7.144   6.011   0.335  1.9877  1.0857  0.5108
15888SOL     OW48241   7.520   9.065   3.003  0.3993  0.0300 -0.5862
15888SOL    HW148242   7.577   8.992   3.027  0.0693  0.4149  1.6218
15888SOL    HW248243   7.446   9.058   3.064 -0.9091  0.7436 -2.0208
15889SOL     OW48244   7.074   0.302   7.893  0.1179 -0.2131  0.0823
15889SOL    HW148245   7.119   0.344   7.820 -1.8679  0.5203 -0.8031
15889SOL    HW248246   7.040   0.221   7.857 -2.0142  0.7620 -0.2946
15890SOL     OW48247   0.119   5.757   1.014 -0.3654 -0.3377  0.1066
15890SOL    HW148248   0.027   5.782   1.005 -0.9192 -0.9129  3.1259
15890SOL    HW248249   0.118   5.685   1.076  2.1486 -0.2524  0.3302
15891SOL     OW48250   3.668   6.837   9.557 -0.3122 -0.7103  0.1385
15891SOL    HW148251   3.580   6.830   9.595 -0.4644  0.2196 -0.0004
15891SOL    HW248252   3.663   6.915   9.501  1.0244  0.2554  1.3113
15892SOL     OW48253   9.012   4.892   6.109 -0.6518 -0.2186 -0.5290
15892SOL    HW148254   9.059   4.870   6.190 -0.8787 -0.5398 -0.4825
15892SOL    HW248255   9.052   4.835   6.043 -0.9264 -0.4459 -0.5027
15893SOL     OW48256   7.425   2.800   4.224  0.3102  0.0247  0.5489
15893SOL    HW148257   7.473   2.869   4.269  2.6243 -1.0471 -0.1253
15893SOL    HW248258   7.492   2.740   4.192 -1.5287 -1.9675  0.1315
15894SOL     OW48259   5.221   0.851   9.647  0.2400  0.3079 -0.1916
15894SOL    HW148260   5.211   0.946   9.647  0.2571  0.3374 -1.6006
15894SOL    HW248261   5.239   0.829   9.555  0.4343 -1.0341  0.1459
15895SOL     OW48262   7.109   7.076   3.954  0.2598  0.0493  0.2968
15895SOL    HW148263   7.196   7.039   3.972  1.2720  1.5852 -1.0968
15895SOL    HW248264   7.100   7.147   4.018  0.9573  1.1899 -0.8165
15896SOL     OW48265   7.223   5.281   3.458 -0.5678 -0.1041  0.6479
15896SOL    HW148266   7.194   5.372   3.454 -2.6271 -0.7381 -0.4126
15896SOL    HW248267   7.142   5.230   3.449  0.6855 -2.0463 -0.3106
15897SOL     OW48268   8.225   0.589   0.701  0.0389 -0.0414  0.4335
15897SOL    HW148269   8.195   0.519   0.758 -0.5578 -0.0351  0.1309
15897SOL    HW248270   8.146   0.638   0.679  0.4841  0.9268  0.9048
15898SOL     OW48271   0.116   9.244   7.255  0.7802 -0.1744  0.3811
15898SOL    HW148272   0.210   9.256   7.266  0.8052  0.1261 -0.1308
15898SOL    HW248273   0.078   9.328   7.283  0.6561 -0.3143  0.6426
15899SOL     OW48274   2.573   2.467   7.800  0.6756  0.0133  0.2600
15899SOL    HW148275   2.509   2.429   7.860  0.2459 -0.7320 -0.6475
15899SOL    HW248276   2.634   2.514   7.857 -0.9025  1.1039  1.1260
15900SOL     OW48277   5.621   8.272   0.903  0.2966 -0.2298  0.3678
15900SOL    HW148278   5.589   8.212   0.971 -0.9766 -0.3393 -0.3001
15900SOL    HW248279   5.657   8.214   0.836  2.7977 -0.0869  1.4852
15901SOL     OW48280   1.655   2.367   5.630 -0.5075  0.1742 -0.1047
15901SOL    HW148281   1.605   2.303   5.579  0.6387  1.2450 -2.7152
15901SOL    HW248282   1.723   2.397   5.571 -0.3435  3.0481  1.3772
15902SOL     OW48283   5.255   2.587   6.587 -0.8945 -0.3678  0.2087
15902SOL    HW148284   5.312   2.521   6.547  0.1809  0.7212 -0.0862
15902SOL    HW248285   5.314   2.644   6.635 -1.7638  0.6547  0.0889
15903SOL     OW48286   2.917   9.211   0.623  0.2340 -0.1411  0.1862
15903SOL    HW148287   2.981   9.274   0.591 -1.1801  0.1656 -2.2655
15903SOL    HW248288   2.845   9.265   0.655  0.0201 -0.5134  0.3396
15904SOL     OW48289   0.359   7.931   1.332  0.5858  0.6337 -0.0564
15904SOL    HW148290   0.407   7.999   1.380 -0.3078  0.2247  1.4875
15904SOL    HW248291   0.297   7.980   1.277  2.1423  1.1331 -1.4724
15905SOL     OW48292   4.347   1.480   7.428  0.4228 -0.1180  0.2083
15905SOL    HW148293   4.265   1.522   7.400 -0.0489 -0.9669  0.3020
15905SOL    HW248294   4.367   1.521   7.513  0.7786  0.9926 -0.3818
15906SOL     OW48295   2.280   4.318   7.598 -0.7542  0.1295 -0.6334
15906SOL    HW148296   2.297   4.365   7.680  1.7324 -0.1180 -0.9408
15906SOL    HW248297   2.332   4.365   7.532  0.5278 -2.0195 -1.2648
15907SOL     OW48298   7.203   0.398   9.292 -0.0897 -0.6139 -0.6307
15907SOL    HW148299   7.285   0.435   9.322 -0.0363  0.0303 -1.5351
15907SOL    HW248300   7.220   0.303   9.287  0.8199 -0.4259 -1.4416
15908SOL     OW48301   3.994   3.869   6.099  0.4115  0.3869 -0.4446
15908SOL    HW148302   3.982   3.939   6.035  0.0517 -1.3031 -2.3613
15908SOL    HW248303   4.048   3.804   6.053  0.7351 -0.5918  1.2429
15909SOL     OW48304   0.512   5.096   3.538 -0.0606  0.7100  0.3555
15909SOL    HW148305   0.511   5.004   3.563 -0.3617  0.5500 -0.2556
15909SOL    HW248306   0.570   5.100   3.462 -0.4211  0.9474  0.0888
15910SOL     OW48307   9.897   7.814   7.848 -0.7257  0.3953  0.0211
15910SOL    HW148308   9.934   7.775   7.927 -0.3220  3.2414  1.3550
15910SOL    HW248309   9.973   7.846   7.800 -1.1319  2.4541  0.6543
15911SOL     OW48310   4.338   4.404   7.078  0.2179 -0.4961  0.5019
15911SOL    HW148311   4.430   4.403   7.053 -0.6930 -0.2637 -3.6360
15911SOL    HW248312   4.320   4.496   7.101  0.9134 -0.4814  1.0149
15912SOL     OW48313   6.905   3.387   5.143  0.6263  0.0913 -0.4794
15912SOL    HW148314   6.812   3.394   5.164  0.9685  0.8363  0.9478
15912SOL    HW248315   6.910   3.403   5.049 -0.9191 -2.4593 -1.0842
15913SOL     OW48316   8.956   4.814   4.308  0.1997  0.1209 -0.0391
15913SOL    HW148317   8.881   4.775   4.263 -0.3598  1.0609  0.0535
15913SOL    HW248318   9.019   4.831   4.238 -0.1980  0.5049 -0.3085
15914SOL     OW48319   2.668   2.201   4.240 -0.0347 -0.3334  0.1226
15914SOL    HW148320   2.574   2.198   4.254  0.1727 -1.4074  1.4631
15914SOL    HW248321   2.703   2.126   4.288  1.9232  2.3607  3.3383
15915SOL     OW48322   2.964   1.362   4.965  0.3973 -0.5006 -0.7854
15915SOL    HW148323   3.002   1.294   4.911  0.0339  0.0366 -1.7426
15915SOL    HW248324   3.034   1.427   4.976  0.5782 -0.7725 -0.3165
15916SOL     OW48325   2.332   4.103   8.687  0.2989  0.2777  0.3984
15916SOL    HW148326   2.321   4.179   8.630 -0.5438  0.6348  1.0230
15916SOL    HW248327   2.270   4.039   8.654  0.2314  0.2649  0.5501
15917SOL     OW48328   6.276   2.400   0.441 -0.9171 -0.3555  0.0359
15917SOL    HW148329   6.198   2.435   0.398  1.2396  0.0855 -3.9948
15917SOL    HW248330   6.340   2.471   0.436  0.0182 -0.9076  2.6395
15918SOL     OW48331   7.497   4.092   1.143  0.1395  0.3096  0.2012
15918SOL    HW148332   7.588   4.119   1.145 -0.1840  1.4415  0.5541
15918SOL    HW248333   7.465   4.121   1.058 -0.2064  1.0624  0.5751
15919SOL     OW48334   5.124   9.073   7.233 -0.0292  0.4721 -0.0549
15919SOL    HW148335   5.171   8.993   7.210  1.0659  0.1006  3.0485
15919SOL    HW248336   5.154   9.094   7.321 -2.1237  2.9732  0.1751
15920SOL     OW48337   2.749   3.477   3.261  0.0316 -0.4985  0.3527
15920SOL    HW148338   2.702   3.551   3.301 -0.0633  0.0696 -0.7615
15920SOL    HW248339   2.701   3.400   3.290 -1.0216  0.0140  0.0149
15921SOL     OW48340   7.321   1.169   8.380  0.1431 -0.3939 -0.2241
15921SOL    HW148341   7.299   1.232   8.448 -0.1264 -0.0430 -0.6282
15921SOL    HW248342   7.365   1.221   8.312 -0.0766 -0.6403 -0.5588
15922SOL     OW48343   8.572   7.623   8.127 -0.5695 -0.0127 -0.6847
15922SOL    HW148344   8.516   7.695   8.155 -1.1226 -0.6064 -0.2098
15922SOL    HW248345   8.586   7.637   8.034 -1.8816 -0.0775 -0.9095
15923SOL     OW48346   4.503   4.612   1.677  0.2304 -0.3152 -0.2722
15923SOL    HW148347   4.487   4.675   1.607 -0.2033  0.0878  0.1748
15923SOL    HW248348   4.447   4.538   1.656 -0.3903  0.0745 -0.0131
15924SOL     OW48349   6.954   5.920   1.934  0.4312 -0.3491  0.3652
15924SOL    HW148350   6.890   5.978   1.976  0.8167  0.4730 -0.1500
15924SOL    HW248351   6.918   5.832   1.945 -2.1101  0.2637 -2.0986
15925SOL     OW48352   8.017   8.272   7.306  0.1554 -0.0138 -0.0199
15925SOL    HW148353   8.001   8.226   7.389 -0.1211 -1.2708 -0.7449
15925SOL    HW248354   7.930   8.292   7.273  0.2811  1.4727  0.5052
15926SOL     OW48355   3.155   1.477   5.245  0.4641 -0.1309  0.3422
15926SOL    HW148356   3.187   1.459   5.157  1.1310 -0.5434  0.6566
15926SOL    HW248357   3.200   1.412   5.300 -0.1035 -0.0149  0.9516
15927SOL     OW48358   3.635   9.739   1.774 -0.1602  0.3860  0.4600
15927SOL    HW148359   3.595   9.677   1.834 -0.6742  0.6193  0.3679
15927SOL    HW248360   3.581   9.818   1.781  0.3681  0.7611  0.4365
15928SOL     OW48361   1.005   5.201   3.266 -0.2769 -0.0429 -0.2262
15928SOL    HW148362   0.961   5.281   3.237 -1.4618 -0.4655  0.3272
15928SOL    HW248363   1.097   5.215   3.245 -0.5143  1.3213 -0.4429
15929SOL     OW48364   7.617   3.357   0.181 -0.3389 -0.5098  0.6772
15929SOL    HW148365   7.628   3.273   0.227 -0.4974 -0.9518 -0.0744
15929SOL    HW248366   7.661   3.421   0.237  1.8388 -1.4475  0.1398
15930SOL     OW48367   9.464   5.053   2.288  0.0618  0.1583  0.2817
15930SOL    HW148368   9.393   5.065   2.352 -0.8228 -0.2142 -0.5975
15930SOL    HW248369   9.466   4.958   2.273  0.1535  0.2593 -0.3592
15931SOL     OW48370   7.366   5.492   0.984 -0.3734  0.1058 -0.1984
15931SOL    HW148371   7.393   5.400   0.982  0.0938  0.2119  0.8233
15931SOL    HW248372   7.289   5.496   0.927 -1.4809 -1.2690  1.1581
15932SOL     OW48373   7.799   3.207   3.393  0.1859  0.1071 -0.0799
15932SOL    HW148374   7.853   3.222   3.471 -0.4147  2.7945 -0.0721
15932SOL    HW248375   7.710   3.198   3.428 -0.0544  1.1044 -0.3964
15933SOL     OW48376   1.612   7.064   7.924 -0.3944 -0.6340 -0.5236
15933SOL    HW148377   1.550   7.035   7.991  0.2903  0.3442  0.5685
15933SOL    HW248378   1.665   6.986   7.905 -0.3166 -0.8144  0.3921
15934SOL     OW48379   7.048   8.653   1.495 -0.9675 -0.6080  0.1367
15934SOL    HW148380   7.115   8.680   1.432 -0.7443  0.1829  0.6983
15934SOL    HW248381   6.965   8.678   1.454 -0.8899 -1.1351 -0.3423
15935SOL     OW48382   6.624   3.449   8.890 -0.2374 -0.8988  0.2930
15935SOL    HW148383   6.536   3.413   8.878  0.3027 -2.1702  0.0424
15935SOL    HW248384   6.683   3.381   8.858  0.8789 -0.3804  1.1607
15936SOL     OW48385   8.058   5.580   8.155 -0.5101  0.1058  0.0567
15936SOL    HW148386   8.148   5.577   8.187 -0.3604 -2.1676 -0.4215
15936SOL    HW248387   8.066   5.583   8.060 -0.9170 -0.8535 -0.0187
15937SOL     OW48388   3.236   5.079   8.384 -0.2995  0.3870 -0.2900
15937SOL    HW148389   3.244   5.164   8.341 -1.6344  1.6649  1.8350
15937SOL    HW248390   3.142   5.062   8.388 -0.1501 -0.2851  0.9445
15938SOL     OW48391   7.959   0.171   1.478 -0.0746  0.1916  0.5519
15938SOL    HW148392   7.900   0.098   1.498  0.3041 -0.2993 -0.0789
15938SOL    HW248393   7.901   0.246   1.464 -0.5842 -0.3665 -0.4382
15939SOL     OW48394   1.901   8.843   4.742 -0.4653 -0.4726  0.3465
15939SOL    HW148395   1.994   8.833   4.762  0.0906  2.0538 -0.5624
15939SOL    HW248396   1.896   8.828   4.647 -1.0663 -0.9522  0.4487
15940SOL     OW48397   8.681   6.596   0.092 -0.3284  1.0943 -0.4999
15940SOL    HW148398   8.674   6.537   0.017 -0.1728 -0.0277  0.3336
15940SOL    HW248399   8.689   6.683   0.054  1.6284  0.4024 -1.8340
15941SOL     OW48400   6.324   2.574   3.326 -0.1906  0.2870 -0.0277
15941SOL    HW148401   6.373   2.631   3.266 -0.5224  0.9171  0.2854
15941SOL    HW248402   6.236   2.611   3.326 -0.2065  0.2518  0.7944
15942SOL     OW48403   0.003   4.651   6.262 -0.0272  0.1626 -0.5620
15942SOL    HW148404   0.074   4.707   6.231  1.7025 -1.9726 -0.6427
15942SOL    HW248405  -0.050   4.709   6.317  2.1512  1.6629  0.0758
15943SOL     OW48406   8.181   8.440   6.284 -0.6007 -0.5808 -0.2172
15943SOL    HW148407   8.220   8.454   6.198 -0.8705 -1.6693 -0.5285
15943SOL    HW248408   8.248   8.394   6.334 -0.0879  0.8567  0.4815
15944SOL     OW48409   8.733   9.945   6.754 -0.2782  0.3674  0.2259
15944SOL    HW148410   8.712   9.977   6.666  0.9924 -0.1597 -0.3095
15944SOL    HW248411   8.798  10.007   6.787 -0.6201  0.4627  0.7246
15945SOL     OW48412   5.690   6.471   7.102 -0.2630  0.4082  0.1183
15945SOL    HW148413   5.704   6.558   7.064  0.0582 -0.6797 -2.4779
15945SOL    HW248414   5.745   6.413   7.049 -0.0522 -1.3411  2.1172
15946SOL     OW48415   8.355   5.757   2.825 -0.4172 -0.0491 -0.6801
15946SOL    HW148416   8.414   5.768   2.900  0.3630  0.1813 -1.3101
15946SOL    HW248417   8.413   5.740   2.751 -1.1050  0.6357 -1.4059
15947SOL     OW48418   0.120   5.208   7.207 -0.2329 -0.3351 -0.1446
15947SOL    HW148419   0.057   5.182   7.275 -0.5566  0.2569 -0.2087
15947SOL    HW248420   0.087   5.292   7.175  1.6241  0.9873  1.1739
15948SOL     OW48421   8.797   4.302   3.972 -0.0137 -0.4034  0.4892
15948SOL    HW148422   8.878   4.320   4.020 -1.5345  2.7110  2.2093
15948SOL    HW248423   8.801   4.360   3.896 -0.9289  0.4239  1.0442
15949SOL     OW48424   9.259   3.260   6.623 -0.5097  0.2812  1.2461
15949SOL    HW148425   9.297   3.261   6.536  1.8044  1.8075  2.1768
15949SOL    HW248426   9.259   3.168   6.648  0.9073  0.0373  0.4649
15950SOL     OW48427   6.249   6.181   5.085  0.1604  0.1442  0.3179
15950SOL    HW148428   6.322   6.198   5.026 -0.2206 -0.1526 -0.2423
15950SOL    HW248429   6.222   6.091   5.065 -0.3028  0.2230  0.5778
15951SOL     OW48430   0.328   3.234   0.082  0.1513 -0.5272 -0.0842
15951SOL    HW148431   0.317   3.325   0.055  0.3110 -0.4861 -0.0119
15951SOL    HW248432   0.383   3.196   0.015 -0.6524 -0.8071 -0.5986
15952SOL     OW48433   5.056   6.887   6.845 -0.2742 -0.5403 -0.6756
15952SOL    HW148434   5.058   6.885   6.749  0.4680 -0.6858 -0.6596
15952SOL    HW248435   4.981   6.833   6.868 -1.6140  0.9861 -1.2117
15953SOL     OW48436   8.183   8.824   2.083  0.0873  0.5234  0.3109
15953SOL    HW148437   8.143   8.858   2.003 -2.5357 -1.7649  0.5346
15953SOL    HW248438   8.262   8.878   2.094 -1.4549  3.4715 -1.6757
15954SOL     OW48439   0.402   9.562   2.383  0.0216 -0.4916  0.1031
15954SOL    HW148440   0.355   9.574   2.465 -0.5649 -0.0143 -0.2970
15954SOL    HW248441   0.333   9.551   2.317  0.4432 -3.2723 -0.0024
15955SOL     OW48442   8.761   9.337   9.364 -0.3846 -0.2850 -0.3629
15955SOL    HW148443   8.739   9.245   9.354 -0.5421 -0.4292  1.0905
15955SOL    HW248444   8.677   9.383   9.365 -1.0425 -0.8505  5.3481
15956SOL     OW48445   9.705   0.729   9.233  0.2688  0.0173  0.0026
15956SOL    HW148446   9.718   0.708   9.326 -0.9587  0.3287  0.2729
15956SOL    HW248447   9.656   0.654   9.199 -0.3272  0.4435 -0.0943
15957SOL     OW48448   3.157   2.218   4.737 -0.4798 -0.1256  0.0852
15957SOL    HW148449   3.077   2.267   4.753 -0.3474  0.2862 -0.4647
15957SOL    HW248450   3.190   2.196   4.824  0.1933  1.9814  0.4321
15958SOL     OW48451   9.252   1.075   6.460 -0.5205 -0.7731 -0.2167
15958SOL    HW148452   9.316   1.133   6.500 -0.6441 -0.1566 -0.8789
15958SOL    HW248453   9.236   1.007   6.525  0.4867 -0.6970  0.1194
15959SOL     OW48454   9.701   5.350   6.990 -0.4567 -0.0468  0.3179
15959SOL    HW148455   9.643   5.398   7.049  2.1824  0.7929  2.4718
15959SOL    HW248456   9.710   5.264   7.029  1.3861  0.5446  1.3150
15960SOL     OW48457   5.664   3.887   1.205  0.3563  0.5225  0.4281
15960SOL    HW148458   5.651   3.855   1.116  2.1038  1.2344 -0.1467
15960SOL    HW248459   5.583   3.934   1.226 -1.1075 -1.7867  0.2354
15961SOL     OW48460   2.064   0.580   6.989 -0.1491  0.1176  0.1824
15961SOL    HW148461   2.026   0.512   6.933  0.0851 -0.6625  0.9482
15961SOL    HW248462   1.988   0.629   7.021 -0.3314  0.1305 -0.2563
15962SOL     OW48463   5.269   0.247   6.500  0.3366 -0.1020 -0.0765
15962SOL    HW148464   5.259   0.196   6.581 -0.6752 -0.5482 -0.4731
15962SOL    HW248465   5.268   0.181   6.431 -0.3347  0.4017 -0.5529
15963SOL     OW48466   2.143   0.645   1.868  0.3298 -0.5117 -0.2761
15963SOL    HW148467   2.205   0.614   1.801  1.3980  3.0214 -1.1691
15963SOL    HW248468   2.059   0.648   1.822  0.3247 -1.4206 -0.3454
15964SOL     OW48469   6.908   6.651   6.564  0.3483 -0.0632 -0.5886
15964SOL    HW148470   6.977   6.668   6.629 -0.0052 -1.1099  0.0761
15964SOL    HW248471   6.952   6.662   6.480  1.1140  0.1069 -0.1765
15965SOL     OW48472   8.736   8.509   2.065  0.0294 -0.1255 -0.1646
15965SOL    HW148473   8.781   8.473   1.988  0.1639 -0.1021 -0.0970
15965SOL    HW248474   8.807   8.539   2.122  0.1094 -2.8843  1.3503
15966SOL     OW48475   2.463   7.957   3.361 -0.0272 -0.1583  0.1595
15966SOL    HW148476   2.547   7.993   3.390  0.1532 -0.6106  0.2113
15966SOL    HW248477   2.398   8.005   3.412  0.1529  0.7194 -0.4150
15967SOL     OW48478   4.738   8.333   1.764  0.0897 -0.2470 -0.2129
15967SOL    HW148479   4.733   8.381   1.681  2.0643  0.7891  0.2121
15967SOL    HW248480   4.699   8.391   1.828 -0.4674 -0.6084 -0.2126
15968SOL     OW48481   3.724   6.909   3.323  0.1086  1.0357  0.2895
15968SOL    HW148482   3.702   6.998   3.295 -1.7548  1.2593  2.2391
15968SOL    HW248483   3.651   6.856   3.292 -0.0297  0.6335  1.2721
15969SOL     OW48484   5.213   1.314   0.414  0.0569  0.1099  0.1771
15969SOL    HW148485   5.271   1.288   0.344  0.6903  0.7057  0.4658
15969SOL    HW248486   5.171   1.394   0.382 -0.1628  0.0080  0.2060
15970SOL     OW48487   1.328   8.306   6.950  0.1042  0.4307 -0.0068
15970SOL    HW148488   1.406   8.256   6.974  0.0260 -0.3602 -1.3590
15970SOL    HW248489   1.279   8.248   6.893 -1.6964  0.7673  1.1247
15971SOL     OW48490   0.783   1.848   2.647  0.4145  0.0065  0.4919
15971SOL    HW148491   0.867   1.827   2.607  1.1418 -2.4274  2.9714
15971SOL    HW248492   0.718   1.823   2.581  1.5539  1.3174 -1.2019
15972SOL     OW48493   4.439   7.756   0.350 -0.1938 -0.0672 -0.2175
15972SOL    HW148494   4.350   7.736   0.378 -0.5917  1.4431 -0.2801
15972SOL    HW248495   4.430   7.834   0.295  1.0573 -0.5054 -1.0874
15973SOL     OW48496   0.476   0.047   0.884  1.0130  0.0620 -0.1895
15973SOL    HW148497   0.457  -0.030   0.937 -1.1219  0.6609  0.0159
15973SOL    HW248498   0.441   0.026   0.797  1.9216  0.1876 -0.6021
15974SOL     OW48499   9.687   8.552   2.754 -0.2171 -0.3119  0.1886
15974SOL    HW148500   9.598   8.573   2.725  0.1955  0.1792 -0.7823
15974SOL    HW248501   9.741   8.570   2.678  0.6900 -0.8387  0.6987
15975SOL     OW48502   5.255   3.076   7.259 -0.0168 -0.1589 -0.5041
15975SOL    HW148503   5.199   3.122   7.196  0.1339  3.4762  1.7005
15975SOL    HW248504   5.343   3.108   7.238  0.5898 -1.9211 -0.7811
15976SOL     OW48505   2.788   8.883   2.516  0.1297 -0.0405  0.0448
15976SOL    HW148506   2.749   8.914   2.434 -0.1883  1.1649  0.6298
15976SOL    HW248507   2.839   8.806   2.491 -0.7380 -0.2551 -1.1221
15977SOL     OW48508   4.547   9.087   3.547  0.1373 -0.3857  0.3095
15977SOL    HW148509   4.507   9.051   3.467 -0.8866 -0.2221  0.7296
15977SOL    HW248510   4.473   9.098   3.607  0.6591  0.9231  0.7492
15978SOL     OW48511   5.078   9.067   4.389  0.2861 -0.2905 -0.2779
15978SOL    HW148512   5.018   9.121   4.337 -0.3155 -0.3254  0.3590
15978SOL    HW248513   5.144   9.036   4.327  0.3517  0.7641 -0.7499
15979SOL     OW48514   1.231   5.770   6.083  0.0711 -0.3929  0.1185
15979SOL    HW148515   1.259   5.858   6.108  0.2611 -0.6197  0.7233
15979SOL    HW248516   1.172   5.784   6.008  0.9225  0.1685 -0.4702
15980SOL     OW48517   3.668   7.881   1.374 -0.6325  0.2446  0.4647
15980SOL    HW148518   3.693   7.963   1.332 -0.9530  1.3424  2.2983
15980SOL    HW248519   3.735   7.818   1.347 -0.4750  1.0460 -1.1046
15981SOL     OW48520   5.632   5.320   3.459  0.7573 -0.4034 -0.0323
15981SOL    HW148521   5.674   5.238   3.435  0.7149 -0.1631 -0.9437
15981SOL    HW248522   5.690   5.388   3.425 -0.7085 -0.0608 -1.9918
15982SOL     OW48523   6.150   8.261   7.088 -0.5514  0.0831  0.1320
15982SOL    HW148524   6.219   8.209   7.130  0.2770  0.5388 -0.6234
15982SOL    HW248525   6.162   8.350   7.123 -2.0463 -0.2285  1.5212
15983SOL     OW48526   8.674   2.802   7.280 -0.4058 -0.2554 -0.1809
15983SOL    HW148527   8.702   2.852   7.204 -1.2092  1.4884  0.6026
15983SOL    HW248528   8.745   2.739   7.295  1.2492  1.4255 -0.5290
15984SOL     OW48529   2.612   7.476   5.089  0.3050  0.9670  0.0667
15984SOL    HW148530   2.517   7.473   5.091  0.3238 -1.4623  0.5802
15984SOL    HW248531   2.633   7.517   5.005 -1.1829  1.1123 -0.2550
15985SOL     OW48532   5.609   8.374   6.698 -0.2765  0.3365  0.3935
15985SOL    HW148533   5.630   8.465   6.681 -0.8899  0.2996 -0.5916
15985SOL    HW248534   5.514   8.371   6.707 -0.2939 -0.2488  0.1076
15986SOL     OW48535   4.251   2.533   9.819 -0.2395  0.2021  0.3411
15986SOL    HW148536   4.239   2.439   9.806  0.6544 -0.0498  1.2214
15986SOL    HW248537   4.319   2.558   9.758  1.2865 -0.2403  1.7869
15987SOL     OW48538   2.770   4.278   2.685  0.6742  0.5352 -0.2157
15987SOL    HW148539   2.751   4.189   2.654  0.3102  1.2053 -2.0351
15987SOL    HW248540   2.706   4.333   2.641  1.0012  1.7342  0.7572
15988SOL     OW48541   8.866   2.917   6.784  0.1603 -0.2553 -0.0504
15988SOL    HW148542   8.934   2.850   6.789  1.7930  1.4102  2.5172
15988SOL    HW248543   8.887   2.966   6.704 -0.4794 -2.1203 -1.4273
15989SOL     OW48544   6.371   9.957   6.419  0.7594 -1.1928  0.0694
15989SOL    HW148545   6.407   9.891   6.479 -0.8883 -0.5212  1.9020
15989SOL    HW248546   6.307   9.908   6.367  0.7618 -1.3892  0.2458
15990SOL     OW48547   0.289   9.518   2.643  0.2631  0.3181  0.1485
15990SOL    HW148548   0.218   9.459   2.619  0.4858 -0.3269  0.9967
15990SOL    HW248549   0.349   9.464   2.695  1.3864  0.8404 -0.5451
15991SOL     OW48550   2.520   3.613   7.340  0.1693 -0.3196  0.2314
15991SOL    HW148551   2.480   3.651   7.261 -1.4591 -2.0920  0.1447
15991SOL    HW248552   2.486   3.667   7.412  2.0965  1.6585 -0.2188
15992SOL     OW48553   5.790   3.886   8.172 -0.2885 -0.4329 -0.3484
15992SOL    HW148554   5.780   3.839   8.090  0.3518 -1.1880 -0.0072
15992SOL    HW248555   5.873   3.934   8.163 -0.4017 -0.2247 -0.2868
15993SOL     OW48556   5.185   7.007   7.271  0.3772  0.0364  0.0752
15993SOL    HW148557   5.224   6.961   7.197  0.0160 -0.9350  0.4704
15993SOL    HW248558   5.099   7.035   7.239  0.1554 -0.5239  0.1749
15994SOL     OW48559   2.697   0.736   3.494  0.2722 -0.0950  0.0545
15994SOL    HW148560   2.728   0.650   3.467 -0.6414 -0.3177 -0.2892
15994SOL    HW248561   2.627   0.719   3.556 -0.5270  0.3809 -0.6982
15995SOL     OW48562   9.054   6.558   6.772 -0.1518  0.3504  0.6068
15995SOL    HW148563   9.116   6.507   6.824  0.4347  1.1566  0.7253
15995SOL    HW248564   9.110   6.611   6.715 -0.7438  0.7731  0.4176
15996SOL     OW48565   4.720   6.770   1.059  0.3364  0.2032 -0.2669
15996SOL    HW148566   4.704   6.750   0.967  1.7982 -1.3349 -0.2343
15996SOL    HW248567   4.745   6.863   1.060  1.8051 -0.1407 -1.6502
15997SOL     OW48568   4.765   6.949   0.433 -0.1127 -0.2744  0.0236
15997SOL    HW148569   4.851   6.933   0.394 -0.4250  0.1879 -0.8669
15997SOL    HW248570   4.773   7.035   0.474 -0.2407 -0.0937 -0.3272
15998SOL     OW48571   0.688   0.801   2.355 -0.3455  0.2570  0.1888
15998SOL    HW148572   0.595   0.785   2.371 -0.1349 -0.8513  0.3758
15998SOL    HW248573   0.722   0.717   2.323  0.8333  0.2931  1.2660
15999SOL     OW48574   1.302   5.161   1.750 -0.1758 -0.2060  0.1514
15999SOL    HW148575   1.293   5.184   1.658 -0.9697 -2.6131 -0.4694
15999SOL    HW248576   1.370   5.218   1.783  1.7144 -0.7187 -2.5088
16000SOL     OW48577   2.267   1.420   5.909  1.0499 -0.0027 -0.4675
16000SOL    HW148578   2.221   1.443   5.828  1.6518  0.9831 -0.5445
16000SOL    HW248579   2.276   1.503   5.956  0.5558 -0.5927  0.7027
16001SOL     OW48580   0.852   7.787   8.245  0.0947 -0.3634  0.0437
16001SOL    HW148581   0.944   7.813   8.250 -0.0583  0.1500  0.2134
16001SOL    HW248582   0.807   7.864   8.208 -0.6553  0.3365  2.2628
16002SOL     OW48583   2.081   9.584   0.771 -0.1515  0.4138 -0.1779
16002SOL    HW148584   1.991   9.608   0.747 -0.8235 -1.8240 -0.1295
16002SOL    HW248585   2.108   9.523   0.702  0.3211 -1.0015  1.2153
16003SOL     OW48586   5.004   2.518   0.634 -0.0194  0.0005  0.4404
16003SOL    HW148587   5.084   2.491   0.679  1.1461  1.1484 -0.8643
16003SOL    HW248588   4.947   2.441   0.639  0.7682 -0.5294  2.2201
16004SOL     OW48589   4.380   7.293   6.835 -0.1721  0.6093 -0.6995
16004SOL    HW148590   4.409   7.248   6.914 -3.5135  1.4495  1.2213
16004SOL    HW248591   4.447   7.360   6.819  1.9243 -1.2662 -0.2653
16005SOL     OW48592   6.827   9.764   6.434  0.1596  0.2851  0.1102
16005SOL    HW148593   6.900   9.825   6.443  0.2004  0.1790  0.4926
16005SOL    HW248594   6.815   9.726   6.521 -0.7363  0.7361  0.1934
16006SOL     OW48595   2.013   3.930   9.736 -0.3075  0.1274 -0.0128
16006SOL    HW148596   1.986   4.018   9.763 -0.5421 -0.0913  0.4876
16006SOL    HW248597   2.064   3.944   9.656  1.3197  0.9200  1.0923
16007SOL     OW48598   2.699   4.456   2.184  0.6460  0.2091 -0.4674
16007SOL    HW148599   2.736   4.513   2.117  1.9008  0.7974  0.6754
16007SOL    HW248600   2.636   4.512   2.231  1.5040  0.5383  0.3272
16008SOL     OW48601   0.049   9.141   9.859  0.3293 -0.0879  0.8723
16008SOL    HW148602   0.105   9.206   9.901  1.0862 -0.8485  1.0520
16008SOL    HW248603   0.098   9.059   9.865 -0.8950 -0.8188  1.2346
16009SOL     OW48604   4.495   7.551   9.014  0.3155 -0.5546 -0.1208
16009SOL    HW148605   4.462   7.515   8.932 -0.7713 -0.4876  0.2686
16009SOL    HW248606   4.532   7.636   8.990  1.2784 -1.1353 -0.7523
16010SOL     OW48607   3.843   3.887   9.695 -0.0645 -0.2129 -0.8684
16010SOL    HW148608   3.806   3.815   9.747 -1.4458  0.7747 -0.4300
16010SOL    HW248609   3.905   3.929   9.755  0.7816 -1.0388 -1.1399
16011SOL     OW48610   2.506   2.902   2.262 -0.1287  0.0463  0.7820
16011SOL    HW148611   2.484   2.851   2.184  1.8622  0.7698 -0.3147
16011SOL    HW248612   2.540   2.838   2.323 -0.5376 -0.3554  0.5997
16012SOL     OW48613   5.428   7.725   1.483 -0.0745 -0.5823  0.2841
16012SOL    HW148614   5.405   7.815   1.457 -1.3201 -0.8596  0.3550
16012SOL    HW248615   5.502   7.736   1.542  0.4026  0.3339 -0.4570
16013SOL     OW48616   2.394   1.089   6.590  0.0022  0.2786  0.2764
16013SOL    HW148617   2.389   1.184   6.584  0.8492  0.6312  3.4932
16013SOL    HW248618   2.304   1.061   6.606  0.0536  0.7854  1.5234
16014SOL     OW48619   4.706   3.161   0.380 -0.4905 -0.4298 -0.0275
16014SOL    HW148620   4.774   3.111   0.426  0.4204  0.7205 -0.0690
16014SOL    HW248621   4.624   3.126   0.412  0.1252 -1.4561  0.4758
16015SOL     OW48622   0.864   2.577   3.218 -0.5395  0.2761 -0.3787
16015SOL    HW148623   0.885   2.598   3.127 -0.6486  1.7416 -0.0975
16015SOL    HW248624   0.945   2.543   3.255  0.0623  1.5174 -0.5222
16016SOL     OW48625   9.223   4.774   6.722  0.1700  0.2853 -0.1386
16016SOL    HW148626   9.278   4.742   6.651 -0.0750  0.0661 -0.2325
16016SOL    HW248627   9.183   4.854   6.686  0.0548  0.1813 -0.2445
16017SOL     OW48628   5.814   7.465   1.408  0.5419  0.3042 -0.2520
16017SOL    HW148629   5.767   7.459   1.325  2.2431  0.2638 -1.2559
16017SOL    HW248630   5.836   7.375   1.430 -1.3822  0.1293  1.1833
16018SOL     OW48631   3.655   9.328   9.675 -0.2817 -0.5268  1.0574
16018SOL    HW148632   3.566   9.336   9.640  0.4675 -0.9068 -1.0704
16018SOL    HW248633   3.707   9.390   9.624  1.0035 -1.5238  1.1060
16019SOL     OW48634   5.848   6.236   1.783  0.4547  0.3695 -0.7730
16019SOL    HW148635   5.908   6.225   1.710  1.8700 -2.0331  0.5888
16019SOL    HW248636   5.824   6.147   1.808  1.1231  0.9757  2.4923
16020SOL     OW48637   8.682   1.321   7.376  0.4461  0.4601 -0.0275
16020SOL    HW148638   8.606   1.371   7.403  0.3899  1.5087 -1.9604
16020SOL    HW248639   8.654   1.275   7.297  1.8001  0.9239 -0.8188
16021SOL     OW48640   5.127   8.699   0.359  0.5409  0.1084  0.2869
16021SOL    HW148641   5.106   8.639   0.287 -1.0612  1.4244 -0.3842
16021SOL    HW248642   5.091   8.656   0.437  1.3336 -0.8043  0.1734
16022SOL     OW48643   1.217   9.660   0.393  0.3208 -0.0420  0.4116
16022SOL    HW148644   1.216   9.751   0.364 -2.2432 -0.0941  0.0298
16022SOL    HW248645   1.242   9.610   0.315 -0.4250  0.2278 -0.0171
16023SOL     OW48646   2.699   2.783   1.725  0.0084  0.1754  0.1509
16023SOL    HW148647   2.777   2.755   1.678  0.6511  4.4306 -1.7547
16023SOL    HW248648   2.628   2.731   1.687  1.1533  0.3867 -2.4782
16024SOL     OW48649   3.848   9.376   7.780  0.0478  0.2389 -0.0316
16024SOL    HW148650   3.912   9.445   7.767  0.2085  0.0038 -0.5103
16024SOL    HW248651   3.852   9.357   7.874  0.6469  0.2611 -0.0462
16025SOL     OW48652   3.387   0.928   1.842 -0.1557 -0.1710  0.6823
16025SOL    HW148653   3.300   0.960   1.817 -0.5846 -1.0551  0.9694
16025SOL    HW248654   3.374   0.890   1.929  1.0753  1.8696  1.8043
16026SOL     OW48655   1.058   9.050   5.880 -0.3502 -0.2056 -0.1135
16026SOL    HW148656   1.049   8.988   5.808 -1.2927 -0.3315  0.0976
16026SOL    HW248657   1.126   9.012   5.936 -0.4278 -0.6916 -0.3420
16027SOL     OW48658   4.457   1.331   3.795 -0.0844  0.1334  0.2404
16027SOL    HW148659   4.439   1.424   3.784 -0.0413  0.1923  0.6345
16027SOL    HW248660   4.536   1.315   3.743  1.4718  0.8902  2.2202
16028SOL     OW48661   2.988   3.954   0.966 -0.5208  0.3938 -0.3985
16028SOL    HW148662   2.924   3.960   0.895 -1.1017 -0.4938  0.0268
16028SOL    HW248663   3.064   4.003   0.934 -1.5896  1.9246 -0.6849
16029SOL     OW48664   3.051   8.733   7.616  0.2085 -0.4462 -0.0419
16029SOL    HW148665   3.037   8.648   7.575 -2.5638 -0.5705  0.9490
16029SOL    HW248666   3.003   8.729   7.698 -0.5318  2.2371 -0.2235
16030SOL     OW48667   4.432   1.260   7.180 -0.4305  0.0259  0.0680
16030SOL    HW148668   4.477   1.185   7.220  1.2006  0.1720 -1.3504
16030SOL    HW248669   4.483   1.336   7.209 -0.0558  0.2489 -1.1011
16031SOL     OW48670   2.982   7.737   8.768  0.1885 -0.0165 -0.1733
16031SOL    HW148671   2.999   7.644   8.756 -0.4197  0.0801 -2.0863
16031SOL    HW248672   3.046   7.781   8.712 -0.8051  0.6245 -0.8452
16032SOL     OW48673   0.614   3.868   4.648  0.6588 -0.1244  0.1637
16032SOL    HW148674   0.568   3.886   4.566 -0.8374  0.4428  1.0721
16032SOL    HW248675   0.707   3.874   4.626  0.2955 -0.2013 -1.5189
16033SOL     OW48676   4.189   1.995   3.414  0.4292 -0.0299  0.1011
16033SOL    HW148677   4.229   2.064   3.362  2.6362 -0.8461  0.6113
16033SOL    HW248678   4.135   1.946   3.351  1.5286  0.1436 -1.0203
16034SOL     OW48679   4.652   4.270   3.181  0.0875 -0.5914  0.2970
16034SOL    HW148680   4.581   4.318   3.138 -0.3039 -1.4990 -0.0931
16034SOL    HW248681   4.714   4.338   3.209 -0.1223  0.0833 -0.8378
16035SOL     OW48682   5.637   4.372   8.877 -1.0511  0.2078 -0.0839
16035SOL    HW148683   5.704   4.320   8.833 -1.1633 -1.7137  1.8606
16035SOL    HW248684   5.607   4.434   8.810  0.8043 -0.6088 -1.7748
16036SOL     OW48685   4.500   5.002   9.703 -0.5804 -0.4427 -0.0950
16036SOL    HW148686   4.480   4.918   9.744 -0.8567  0.2438  1.2169
16036SOL    HW248687   4.593   5.015   9.721 -0.0652 -1.2551 -1.8366
16037SOL     OW48688   6.724   2.857   6.958  0.3416  0.0877  0.2958
16037SOL    HW148689   6.709   2.904   7.041 -2.9611  0.5159 -0.3725
16037SOL    HW248690   6.677   2.774   6.970  0.4473 -0.1539 -0.8925
16038SOL     OW48691   7.380   8.005   8.009 -0.2551 -0.1525 -0.2047
16038SOL    HW148692   7.328   7.990   7.929  1.0539 -1.7818 -0.8230
16038SOL    HW248693   7.356   7.931   8.066 -0.5405  0.5342  0.5812
16039SOL     OW48694   4.109   8.572   1.933 -0.4880  0.0759 -0.0026
16039SOL    HW148695   4.109   8.523   1.851  0.5250  0.8310 -0.4908
16039SOL    HW248696   4.191   8.621   1.930  0.0861 -0.6797  1.9518
16040SOL     OW48697   8.569   1.495   9.941 -0.2209  0.0741 -0.0056
16040SOL    HW148698   8.533   1.445   9.867  0.6100 -1.8140  0.7990
16040SOL    HW248699   8.493   1.538   9.979 -1.4249 -2.3986  0.5858
16041SOL     OW48700   7.100   8.987   3.921 -0.6975 -0.5394  0.3211
16041SOL    HW148701   7.011   8.966   3.893 -1.0432 -0.1170  1.0701
16041SOL    HW248702   7.150   8.908   3.905 -0.9421 -0.4171 -1.1974
16042SOL     OW48703   1.218   5.514   0.448  0.8563  0.2505 -0.0881
16042SOL    HW148704   1.185   5.604   0.458  0.2034 -0.0336  0.4158
16042SOL    HW248705   1.232   5.484   0.538  3.2530  0.6055 -0.2770
16043SOL     OW48706   9.530   1.395   2.487  0.2606 -0.4599 -0.4394
16043SOL    HW148707   9.472   1.340   2.541 -0.7789  0.5730 -0.4764
16043SOL    HW248708   9.592   1.432   2.550 -1.7583  1.7986  0.3569
16044SOL     OW48709   7.617   4.752   6.852  0.2542 -0.3737  0.2586
16044SOL    HW148710   7.702   4.732   6.892 -0.7760 -2.6784  1.5276
16044SOL    HW248711   7.560   4.682   6.884 -2.0120  0.8545 -0.9281
16045SOL     OW48712   6.113   8.759   6.616 -0.7597 -0.0076  0.1486
16045SOL    HW148713   6.120   8.828   6.682  0.7957 -1.4854  1.6243
16045SOL    HW248714   6.032   8.713   6.639 -1.3317  0.7426 -0.2985
16046SOL     OW48715   9.070   4.721   8.484 -0.8283  0.4515  0.1617
16046SOL    HW148716   9.021   4.784   8.431 -1.4958 -0.1747  0.0205
16046SOL    HW248717   9.004   4.675   8.535 -0.5712 -1.3316 -1.0063
16047SOL     OW48718   3.292   9.508   6.517 -0.7536  0.4408 -0.9105
16047SOL    HW148719   3.354   9.435   6.521 -0.0005  1.1101  0.0140
16047SOL    HW248720   3.339   9.582   6.556 -1.5041  1.4296 -1.8377
16048SOL     OW48721   6.663   8.041   6.753  0.5089  0.5056  0.1124
16048SOL    HW148722   6.588   8.046   6.812  0.3435  2.7802 -0.2017
16048SOL    HW248723   6.632   7.990   6.678 -0.1867  0.0405  0.7073
16049SOL     OW48724   2.061   3.677   9.909 -0.3090 -0.1974 -0.3274
16049SOL    HW148725   1.987   3.686   9.970 -0.5884  0.3625 -0.7426
16049SOL    HW248726   2.062   3.759   9.860  0.4465 -0.3036 -0.4919
16050SOL     OW48727   3.004   1.809   0.638 -0.7703 -0.5766 -0.0969
16050SOL    HW148728   2.942   1.822   0.566  0.7835 -0.1150 -1.4223
16050SOL    HW248729   3.072   1.875   0.624 -0.8787  0.1684  2.3789
16051SOL     OW48730   4.108   6.831   8.513 -0.2850  0.4602 -0.5046
16051SOL    HW148731   4.136   6.814   8.423 -1.4777 -2.1841 -0.4619
16051SOL    HW248732   4.015   6.809   8.514  0.1777 -1.9113  1.8697
16052SOL     OW48733   8.933   1.198   9.439  0.4808  0.3415 -0.4769
16052SOL    HW148734   8.997   1.191   9.368  1.7955  0.5878  0.6357
16052SOL    HW248735   8.921   1.292   9.452  1.1508  0.3225  0.3810
16053SOL     OW48736   8.912   6.961   0.370 -0.2273  0.3212  0.1457
16053SOL    HW148737   8.999   6.922   0.381 -0.2775 -0.6293 -2.2985
16053SOL    HW248738   8.929   7.049   0.336 -0.2188  0.3021  0.1009
16054SOL     OW48739   9.687   6.287   1.676  0.1358 -0.4912  0.2252
16054SOL    HW148740   9.716   6.361   1.730  0.0252 -1.1395  1.2043
16054SOL    HW248741   9.761   6.268   1.619  0.1234  0.4384 -0.1134
16055SOL     OW48742   5.702   0.513   7.503 -0.3030  0.0251 -0.4403
16055SOL    HW148743   5.661   0.514   7.416  3.7396 -0.6580 -2.5707
16055SOL    HW248744   5.706   0.420   7.526 -0.9418  0.1755  0.3287
16056SOL     OW48745   6.314   4.222   0.305  0.1341  0.0480  0.4788
16056SOL    HW148746   6.248   4.279   0.267  2.3865  2.6309  0.1683
16056SOL    HW248747   6.360   4.185   0.230 -0.7215 -1.5806  0.6978
16057SOL     OW48748   4.230   1.214   8.719  0.4173  0.0686  0.1309
16057SOL    HW148749   4.252   1.293   8.767  1.2019 -0.2483  0.3077
16057SOL    HW248750   4.134   1.213   8.717  0.3942  1.5269 -0.7446
16058SOL     OW48751   5.501   4.940   9.830 -0.4166  0.2955 -0.7223
16058SOL    HW148752   5.501   4.845   9.818  1.9158  0.3980 -2.0482
16058SOL    HW248753   5.584   4.959   9.873 -1.9832  1.5548  2.0380
16059SOL     OW48754   6.586   9.186   0.239 -0.2340 -0.4065 -0.1127
16059SOL    HW148755   6.523   9.201   0.169  2.1499 -1.5200 -2.6928
16059SOL    HW248756   6.648   9.258   0.232 -0.8038  0.3551  1.9934
16060SOL     OW48757   3.092   0.795   1.413  0.1174 -0.0874  0.4076
16060SOL    HW148758   3.023   0.748   1.366  0.1717  0.5401 -0.3209
16060SOL    HW248759   3.171   0.776   1.362  0.2829  0.1077  0.5938
16061SOL     OW48760   7.707   2.915   4.064 -0.1219 -0.0358  0.6291
16061SOL    HW148761   7.710   2.832   4.016  0.2929 -0.0516  0.6812
16061SOL    HW248762   7.717   2.890   4.155 -0.4345  0.0373  0.6859
16062SOL     OW48763   3.322   3.719   2.087  0.7219 -0.3178 -0.3481
16062SOL    HW148764   3.337   3.772   2.165  0.7362  0.0549 -0.6012
16062SOL    HW248765   3.331   3.629   2.117 -1.0904 -0.2632  0.4814
16063SOL     OW48766   2.534   8.649   0.463 -0.1166  0.4023 -0.2070
16063SOL    HW148767   2.478   8.662   0.540  0.0520  0.5816 -0.1165
16063SOL    HW248768   2.621   8.675   0.491  0.2049 -0.7714 -0.0586
16064SOL     OW48769   1.891   8.288   9.370  0.4226 -0.9060  0.3604
16064SOL    HW148770   1.921   8.264   9.283  1.2397 -0.8972  0.6336
16064SOL    HW248771   1.919   8.379   9.382  0.5124 -0.9747  0.7081
16065SOL     OW48772   8.200   1.553   7.524 -0.1202  0.2655  0.3729
16065SOL    HW148773   8.267   1.498   7.566  0.0747  0.3609  0.1914
16065SOL    HW248774   8.199   1.633   7.577 -0.6212 -0.0341  0.8203
16066SOL     OW48775   8.985   3.466   6.366  0.5028 -0.5888  0.2372
16066SOL    HW148776   9.063   3.450   6.419  0.8983 -0.2570 -0.2344
16066SOL    HW248777   8.933   3.528   6.417  1.5863  0.9054 -0.4171
16067SOL     OW48778   4.085   2.136   1.519  0.7191  0.0779 -0.0028
16067SOL    HW148779   4.113   2.219   1.559  0.8391 -0.3663  0.8529
16067SOL    HW248780   4.016   2.103   1.576 -0.2625  0.2155 -1.0583
16068SOL     OW48781   1.942   1.068   4.601  0.2235 -0.5879  0.0060
16068SOL    HW148782   1.891   1.021   4.667 -0.9725 -0.9070 -1.0888
16068SOL    HW248783   1.894   1.149   4.587  0.9402 -0.1384  0.1417
16069SOL     OW48784   4.096   4.302   0.312 -0.5231  0.3796 -0.5887
16069SOL    HW148785   4.169   4.248   0.342 -2.7124 -2.7251 -0.3800
16069SOL    HW248786   4.084   4.278   0.220 -1.2404  0.8646 -0.6292
16070SOL     OW48787   4.043   2.764   2.231  0.1033  0.1649  0.1849
16070SOL    HW148788   4.019   2.754   2.139  2.4156  2.2950 -0.7664
16070SOL    HW248789   4.017   2.682   2.272 -1.9858 -0.4412 -2.0937
16071SOL     OW48790   8.409   6.487   8.765  0.1099 -0.2028  0.3372
16071SOL    HW148791   8.453   6.452   8.843  1.0358  0.0965 -0.0410
16071SOL    HW248792   8.474   6.543   8.724 -0.5290  0.0015 -0.4168
16072SOL     OW48793   3.310   2.215   8.433  0.2489  0.4858 -0.1438
16072SOL    HW148794   3.353   2.196   8.349 -3.1056  0.6922 -2.1036
16072SOL    HW248795   3.243   2.146   8.442 -0.0974  1.0181  1.9180
16073SOL     OW48796   3.245   0.477   7.601 -0.3319  0.0767 -0.2441
16073SOL    HW148797   3.313   0.535   7.635 -0.8656  1.6765 -1.6996
16073SOL    HW248798   3.280   0.389   7.611  0.2514  0.5350  2.6718
16074SOL     OW48799   8.285   4.780   6.920  0.6159 -0.3046 -0.7715
16074SOL    HW148800   8.271   4.873   6.899  0.8440 -0.7754 -3.1745
16074SOL    HW248801   8.336   4.782   7.002  0.6636  1.6836 -0.8030
16075SOL     OW48802   6.234   4.609   5.066 -0.8355 -0.5911 -0.4811
16075SOL    HW148803   6.261   4.695   5.034 -1.3377  0.0465  0.7180
16075SOL    HW248804   6.186   4.570   4.994  1.4937 -0.9434 -1.9548
16076SOL     OW48805   5.961   7.523   7.877  0.0013 -0.2005  0.1610
16076SOL    HW148806   6.032   7.586   7.870 -0.4402  0.4477  1.3433
16076SOL    HW248807   5.922   7.520   7.789  0.8628  0.1675 -0.2376
16077SOL     OW48808   7.435   0.812   6.587  0.4099  0.3047  0.0399
16077SOL    HW148809   7.374   0.741   6.607  1.2283 -0.3190  0.4146
16077SOL    HW248810   7.441   0.862   6.668  1.2116 -0.2805  0.3571
16078SOL     OW48811   8.627   1.844   1.739 -0.1283  0.0027  0.6502
16078SOL    HW148812   8.619   1.784   1.813  0.6609  1.2647  1.8115
16078SOL    HW248813   8.712   1.823   1.700 -0.2441 -0.2162  0.5148
16079SOL     OW48814   4.526   7.509   6.731  0.1788  0.0236  0.2207
16079SOL    HW148815   4.526   7.583   6.669  0.3226 -0.2320 -0.0892
16079SOL    HW248816   4.547   7.433   6.677 -2.1229 -0.6071  0.0930
16080SOL     OW48817   2.781   8.560   8.292  0.5694  0.2209 -0.4237
16080SOL    HW148818   2.861   8.585   8.247  1.0390  0.2151  0.3943
16080SOL    HW248819   2.733   8.642   8.304  0.8176  0.3388 -0.2226
16081SOL     OW48820   3.098   0.712   6.102  0.1998  0.5194  0.4153
16081SOL    HW148821   3.077   0.779   6.167 -1.7851  0.0920  0.2795
16081SOL    HW248822   3.138   0.761   6.029 -0.8545  1.5331  0.4778
16082SOL     OW48823   1.919   5.683   6.428  0.0576  0.1500  0.0360
16082SOL    HW148824   1.978   5.608   6.422  0.9691  0.8045  0.5689
16082SOL    HW248825   1.842   5.657   6.378  1.3337 -0.2360 -1.8462
16083SOL     OW48826   8.547   5.181   3.869  0.0964 -0.4860  0.4725
16083SOL    HW148827   8.572   5.270   3.894  1.3104  0.0078 -2.1543
16083SOL    HW248828   8.451   5.183   3.867  0.0907  0.5762  1.0092
16084SOL     OW48829   0.900   2.949   7.447  0.1885 -0.7667  0.0077
16084SOL    HW148830   0.985   2.991   7.430  0.7716 -2.1932 -0.7911
16084SOL    HW248831   0.891   2.952   7.542 -0.3111  2.0713 -0.0313
16085SOL     OW48832   9.621   5.717   8.847  0.6246 -0.3384  0.6023
16085SOL    HW148833   9.553   5.651   8.834  1.0899 -1.0668  1.6979
16085SOL    HW248834   9.696   5.669   8.882  0.8517  0.8033  1.7801
16086SOL     OW48835   4.225   3.306   7.815 -0.4827 -0.6655  0.4242
16086SOL    HW148836   4.160   3.335   7.751 -2.0781 -0.2403  2.1457
16086SOL    HW248837   4.298   3.367   7.804 -1.4610  0.4978  0.1827
16087SOL     OW48838   0.370   9.085   4.127 -0.0967  1.1490 -0.8002
16087SOL    HW148839   0.453   9.039   4.122 -0.2368  0.8611 -0.5166
16087SOL    HW248840   0.353   9.115   4.038 -0.3640  0.0328 -1.1310
16088SOL     OW48841   1.398   2.996   5.991 -0.1378 -0.0369  0.2293
16088SOL    HW148842   1.362   2.952   6.068  0.0043  1.7080  1.3480
16088SOL    HW248843   1.353   2.955   5.917 -1.3511 -0.7715  1.3258
16089SOL     OW48844   5.472   2.795   1.569 -0.3808 -0.0707  0.4298
16089SOL    HW148845   5.472   2.844   1.652 -0.3419 -0.2169  0.5157
16089SOL    HW248846   5.400   2.833   1.519  1.0772  1.6774 -0.4586
16090SOL     OW48847   9.859   0.627   1.744  0.3436  0.1620  0.0696
16090SOL    HW148848   9.949   0.637   1.777  1.1623  1.6654 -2.3205
16090SOL    HW248849   9.806   0.677   1.806  1.2031 -0.2876  1.2229
16091SOL     OW48850   6.723   6.625   1.160 -0.3905 -0.0924  0.1638
16091SOL    HW148851   6.783   6.667   1.099 -0.7370  1.1156  0.6240
16091SOL    HW248852   6.751   6.533   1.161  2.1055  0.5911  1.1119
16092SOL     OW48853   1.650   7.059   5.342  0.1652  0.4493 -0.9620
16092SOL    HW148854   1.564   7.020   5.359  0.1856 -0.0109 -1.8610
16092SOL    HW248855   1.633   7.128   5.278  0.6325 -0.5287 -2.1764
16093SOL     OW48856   0.234   3.064   8.602 -0.3967 -0.1711 -0.4792
16093SOL    HW148857   0.303   3.086   8.665  0.0033 -0.5230 -0.7846
16093SOL    HW248858   0.275   3.001   8.542 -0.8534 -0.0549 -0.9278
16094SOL     OW48859   6.609   5.859   0.340  0.0949  0.1776 -0.3905
16094SOL    HW148860   6.671   5.932   0.346 -0.2775  0.6397 -1.8015
16094SOL    HW248861   6.586   5.840   0.431 -0.2954  2.2567 -0.0065
16095SOL     OW48862   2.107   8.424   9.605 -0.4560 -0.1045 -0.4413
16095SOL    HW148863   2.023   8.398   9.642 -1.0821  0.9801 -1.0491
16095SOL    HW248864   2.127   8.508   9.647 -0.0608  0.0192 -0.8657
16096SOL     OW48865   6.146   0.817   6.755 -0.3959  0.1188 -0.0741
16096SOL    HW148866   6.206   0.771   6.813 -0.7091 -0.4922 -0.2246
16096SOL    HW248867   6.172   0.909   6.761  0.4526 -0.1190 -0.0344
16097SOL     OW48868   0.824   7.039   8.063  0.2984 -0.2414 -0.3568
16097SOL    HW148869   0.842   7.066   8.153 -0.8012 -1.1685  0.1541
16097SOL    HW248870   0.752   7.095   8.035 -0.0626 -0.6770 -0.2970
16098SOL     OW48871   8.839   1.420   4.707 -0.0226 -0.0706  0.3272
16098SOL    HW148872   8.784   1.408   4.630  0.5662 -0.3824 -0.0511
16098SOL    HW248873   8.928   1.405   4.676  0.3774  1.3161  0.7245
16099SOL     OW48874   1.721   5.072   5.758 -0.2805 -0.0647 -0.5148
16099SOL    HW148875   1.645   5.025   5.792 -0.0331 -0.0157  0.1324
16099SOL    HW248876   1.713   5.067   5.663 -0.5141 -0.9968 -0.4508
16100SOL     OW48877   7.659   0.775   2.450  0.4812 -0.3450 -0.3276
16100SOL    HW148878   7.752   0.756   2.454  0.5223 -0.4580 -1.5404
16100SOL    HW248879   7.625   0.720   2.379 -0.3635  0.2317 -0.3968
16101SOL     OW48880   6.533   0.117   8.209 -0.0765  0.1872 -0.0899
16101SOL    HW148881   6.540   0.061   8.286  0.0637  0.2336 -0.0686
16101SOL    HW248882   6.502   0.201   8.242  1.6833  0.7696  0.1776
16102SOL     OW48883   2.724   7.437   3.780 -0.2658 -0.4646 -0.0354
16102SOL    HW148884   2.736   7.505   3.714  0.9163  0.9803  1.5751
16102SOL    HW248885   2.812   7.421   3.814 -0.8368 -1.1362  1.2012
16103SOL     OW48886   8.672   8.626   3.863  0.6558  0.1528  0.2125
16103SOL    HW148887   8.717   8.710   3.870  0.7474  0.1814 -0.7211
16103SOL    HW248888   8.603   8.640   3.798 -0.5539  0.0323  1.4006
16104SOL     OW48889   7.659   1.077   9.189 -0.0094  0.3320 -0.1399
16104SOL    HW148890   7.650   0.998   9.242  3.4354  0.2642  0.5217
16104SOL    HW248891   7.661   1.045   9.099 -2.6352  0.1626 -0.2351
16105SOL     OW48892   2.083   7.901   4.136  0.0882 -0.1653  0.0761
16105SOL    HW148893   2.002   7.903   4.086  0.6233  0.4378 -0.7924
16105SOL    HW248894   2.093   7.810   4.162 -1.6447  0.0036  1.5213
16106SOL     OW48895   4.017   6.825   9.780  0.5526 -0.2114  0.1334
16106SOL    HW148896   4.085   6.844   9.715  0.0061 -0.4303 -0.5101
16106SOL    HW248897   4.011   6.905   9.832  1.4744 -0.2728  0.3644
16107SOL     OW48898   2.130   5.212   3.569  0.1071  0.0175  0.1425
16107SOL    HW148899   2.127   5.123   3.605  0.0103  0.1103  0.3713
16107SOL    HW248900   2.217   5.245   3.593  0.3572 -0.2133 -0.4339
16108SOL     OW48901   0.648   1.483   0.930  0.4372 -0.3763 -0.4111
16108SOL    HW148902   0.667   1.493   0.836  0.4172 -1.9991 -0.6223
16108SOL    HW248903   0.734   1.482   0.972  0.4516  0.2214 -0.4180
16109SOL     OW48904   9.129   0.228   4.878 -0.1352 -0.5595  0.2067
16109SOL    HW148905   9.044   0.246   4.919 -0.6781 -2.2157 -0.0926
16109SOL    HW248906   9.127   0.278   4.796  0.4245  1.7398  1.5230
16110SOL     OW48907   6.849   7.990   9.475  0.7127 -0.0812  0.3939
16110SOL    HW148908   6.825   8.000   9.567  0.7909  0.2941  0.3769
16110SOL    HW248909   6.813   7.905   9.450 -0.0482  0.1884  0.5354
16111SOL     OW48910   2.159   5.165   9.408 -0.0929 -0.3842 -0.2672
16111SOL    HW148911   2.225   5.162   9.338  0.9935 -0.2352  0.7148
16111SOL    HW248912   2.196   5.226   9.472 -1.2665 -0.1987  0.2445
16112SOL     OW48913   2.081   8.794   5.577 -0.4007 -0.4050  0.0695
16112SOL    HW148914   1.987   8.795   5.560 -0.2628 -1.5712 -0.9615
16112SOL    HW248915   2.115   8.728   5.516  1.0442 -0.2130  0.6320
16113SOL     OW48916   1.769   5.253   0.091  0.3168 -0.1131  0.4535
16113SOL    HW148917   1.824   5.234   0.167  0.6627 -1.0151 -0.0084
16113SOL    HW248918   1.693   5.195   0.100  0.1515  0.0764  0.3207
16114SOL     OW48919   9.599   9.534   5.076  0.1439  0.0215  0.5299
16114SOL    HW148920   9.636   9.477   5.143  0.4973 -0.1808  0.1710
16114SOL    HW248921   9.599   9.621   5.117  0.1271 -0.1396  0.8780
16115SOL     OW48922   4.482   3.382   7.875  0.3167 -0.0365  0.0013
16115SOL    HW148923   4.528   3.359   7.795 -2.1295  2.8234 -2.4592
16115SOL    HW248924   4.524   3.463   7.905  0.0161 -0.0823  0.5733
16116SOL     OW48925   7.127   0.880   0.594 -0.3038 -0.6763  0.2710
16116SOL    HW148926   7.195   0.887   0.661 -1.4490 -3.3081  1.8799
16116SOL    HW248927   7.148   0.799   0.547 -2.4981 -1.8427  1.1429
16117SOL     OW48928   3.335   2.651   0.376 -0.0642 -0.0097  0.4656
16117SOL    HW148929   3.299   2.592   0.310 -1.1940  0.3771  0.7086
16117SOL    HW248930   3.411   2.605   0.410  0.0894 -0.5555 -0.5560
16118SOL     OW48931   5.717   3.929   4.642 -0.1415  0.1110 -0.2740
16118SOL    HW148932   5.727   3.930   4.547 -0.1813 -1.1700 -0.3122
16118SOL    HW248933   5.622   3.927   4.656 -0.1257 -0.8306 -0.2474
16119SOL     OW48934   8.603   2.822   9.515  0.3360 -0.5411  0.1658
16119SOL    HW148935   8.518   2.789   9.486 -1.0062  2.2717  0.4985
16119SOL    HW248936   8.659   2.814   9.438 -1.5263  1.4257 -1.5401
16120SOL     OW48937   2.483   5.256   4.572 -0.1176  0.4120  0.4185
16120SOL    HW148938   2.535   5.335   4.585 -2.2576  1.9065  0.4931
16120SOL    HW248939   2.541   5.185   4.597  1.8550  1.9484  0.5077
16121SOL     OW48940   2.160   3.430   9.839 -0.1687 -0.3138  0.0704
16121SOL    HW148941   2.118   3.513   9.862 -0.1980 -1.1145  3.4572
16121SOL    HW248942   2.100   3.363   9.872  0.6618 -1.6679 -1.0642
16122SOL     OW48943   3.975   7.549   5.425  0.5808  1.2029 -0.5387
16122SOL    HW148944   4.064   7.542   5.461  0.4388  1.0722 -0.2108
16122SOL    HW248945   3.918   7.544   5.502  0.0333 -3.0141 -0.9876
16123SOL     OW48946   8.551   3.052   4.711 -0.0359  0.5265 -0.0286
16123SOL    HW148947   8.578   3.050   4.619  1.5015 -0.3594  0.4049
16123SOL    HW248948   8.457   3.064   4.708  0.2302  2.7752 -1.6648
16124SOL     OW48949   7.721   6.590   6.693  0.7657 -0.1635 -0.4770
16124SOL    HW148950   7.795   6.588   6.753  0.9425  0.8020 -0.6562
16124SOL    HW248951   7.757   6.618   6.609  0.0654  1.2426 -0.3381
16125SOL     OW48952   0.778   5.088   4.066  0.6174  0.4299 -0.2191
16125SOL    HW148953   0.754   5.120   3.979 -0.5365  0.6492  0.1616
16125SOL    HW248954   0.727   5.008   4.076 -0.1206  0.9972  0.6816
16126SOL     OW48955   1.057   4.138   1.714 -0.0792  0.1610  0.0759
16126SOL    HW148956   0.999   4.067   1.742 -0.3711  0.6236  0.6633
16126SOL    HW248957   1.142   4.115   1.751  0.1426 -0.5327 -0.8100
16127SOL     OW48958   5.436   7.880   7.364 -0.0791  0.4225  0.2153
16127SOL    HW148959   5.425   7.969   7.329 -0.3852  0.0276 -0.7424
16127SOL    HW248960   5.380   7.826   7.308  2.3535 -0.8291 -1.1364
16128SOL     OW48961   4.619   0.448   9.019  0.4985  0.0251 -0.4484
16128SOL    HW148962   4.647   0.455   9.110  0.9161  2.1021 -0.6815
16128SOL    HW248963   4.562   0.525   9.005 -0.2061 -0.6819 -1.7241
16129SOL     OW48964   5.361   4.975   4.044  0.2378  0.1410  0.2484
16129SOL    HW148965   5.439   5.020   4.013  0.5241 -0.0282  0.7084
16129SOL    HW248966   5.393   4.918   4.114 -0.2021 -0.4031  0.0071
16130SOL     OW48967   2.915   8.682   2.384  0.0689  0.6795 -0.5936
16130SOL    HW148968   2.936   8.667   2.292  0.1194  1.4509 -0.7107
16130SOL    HW248969   3.000   8.693   2.427  0.0189  1.1223 -0.5998
16131SOL     OW48970   3.501   5.846   3.982 -0.4943  0.4079  0.6273
16131SOL    HW148971   3.566   5.862   4.051  0.3270  0.2481 -0.0992
16131SOL    HW248972   3.447   5.925   3.981  0.0288  0.7746  0.8628
16132SOL     OW48973   7.164   6.760   8.757 -0.1242  0.7959  0.2695
16132SOL    HW148974   7.255   6.747   8.730 -0.7889 -0.3956 -1.7009
16132SOL    HW248975   7.165   6.838   8.811  2.0571  0.8273  0.2727
16133SOL     OW48976   0.805   4.863   2.589  0.1359 -0.3349 -0.5968
16133SOL    HW148977   0.819   4.851   2.683  0.1058 -0.5633 -0.6227
16133SOL    HW248978   0.822   4.778   2.550 -1.4229 -0.6686 -0.6137
16134SOL     OW48979   1.061   2.047   6.937  0.2674  0.0577 -0.3590
16134SOL    HW148980   1.011   2.018   7.014 -0.1951  1.0338 -0.2729
16134SOL    HW248981   0.998   2.044   6.865 -0.2406  2.1549 -0.0866
16135SOL     OW48982   9.614   4.730   0.363 -0.5371 -0.1880  0.1518
16135SOL    HW148983   9.669   4.761   0.291 -1.3680 -0.5590 -0.6614
16135SOL    HW248984   9.676   4.698   0.428  0.2159 -1.2581 -1.0388
16136SOL     OW48985   1.113   8.696   9.137 -0.2039  0.2601 -0.3037
16136SOL    HW148986   1.106   8.742   9.053  0.5226 -0.2708 -0.6607
16136SOL    HW248987   1.205   8.703   9.161 -0.0417 -1.1436 -0.4512
16137SOL     OW48988   1.315   0.660   1.191 -0.5857 -0.7546  0.0862
16137SOL    HW148989   1.225   0.630   1.178 -0.9050 -0.0791  0.6577
16137SOL    HW248990   1.346   0.611   1.266 -1.3242  0.7228  1.4245
16138SOL     OW48991   0.378   7.323   4.645 -0.3661 -0.1315 -0.5471
16138SOL    HW148992   0.442   7.327   4.717  1.3493 -0.5784 -1.9748
16138SOL    HW248993   0.362   7.230   4.632  0.5825 -0.1618 -1.7355
16139SOL     OW48994   1.480   0.178   4.901 -0.0353  0.2530  0.1184
16139SOL    HW148995   1.454   0.217   4.818 -2.1028 -0.4461  0.3626
16139SOL    HW248996   1.474   0.084   4.886  0.0601  0.1125  0.9036
16140SOL     OW48997   9.833   7.579   0.456  0.5569  0.6790  0.6586
16140SOL    HW148998   9.824   7.567   0.361 -0.2503  3.1564  0.3615
16140SOL    HW248999   9.910   7.528   0.479  0.3921 -0.5195 -1.2101
16141SOL     OW49000   2.955   4.097   2.087 -0.2171  0.1170 -0.2376
16141SOL    HW149001   3.020   4.048   2.137  0.3689 -0.6602 -1.6921
16141SOL    HW249002   2.905   4.145   2.153 -0.0940 -1.5715  1.1452
16142SOL     OW49003   3.756   3.164   2.368  0.3520  0.2841 -0.6347
16142SOL    HW149004   3.727   3.121   2.448  1.4231  2.2239  0.8859
16142SOL    HW249005   3.849   3.181   2.382 -0.0107  3.1397 -1.0479
16143SOL     OW49006   0.225   2.533   0.483  0.0256 -0.9477 -0.3548
16143SOL    HW149007   0.316   2.553   0.460 -0.0724 -1.1423 -0.9309
16143SOL    HW249008   0.174   2.566   0.409 -0.2264 -2.3887 -0.8497
16144SOL     OW49009   5.735   3.090   2.580  0.7191  0.2528 -0.2017
16144SOL    HW149010   5.648   3.118   2.608 -0.3707 -1.0975 -1.9973
16144SOL    HW249011   5.748   3.134   2.496  1.1702 -0.6072 -0.5885
16145SOL     OW49012   2.248   8.769   5.789 -0.4922 -0.1695  0.3886
16145SOL    HW149013   2.299   8.847   5.812 -2.2775  0.5345  2.3273
16145SOL    HW249014   2.204   8.793   5.707 -0.7723  0.7535  0.7979
16146SOL     OW49015   2.256   4.852   1.550  0.3836  0.1605  0.0513
16146SOL    HW149016   2.227   4.811   1.631  1.1244 -0.7019 -0.1075
16146SOL    HW249017   2.246   4.784   1.483  1.4252  0.2930 -0.2551
16147SOL     OW49018   7.517   6.774   9.412 -0.5393  0.7559 -0.0965
16147SOL    HW149019   7.463   6.699   9.437 -1.6301  1.9704  1.3793
16147SOL    HW249020   7.581   6.738   9.351 -0.3575 -1.5678  1.3662
16148SOL     OW49021   9.920   4.176   0.765  0.0131 -0.3214  0.2337
16148SOL    HW149022   9.844   4.231   0.745 -0.3216 -0.6109  0.7116
16148SOL    HW249023   9.993   4.238   0.772 -0.3720  0.0756  0.8416
16149SOL     OW49024   3.932   2.199   6.792 -0.5309 -0.1451 -0.3369
16149SOL    HW149025   3.852   2.156   6.761 -1.8592  2.3520 -0.6425
16149SOL    HW249026   3.996   2.185   6.722 -0.8348 -1.7444 -0.3197
16150SOL     OW49027   0.343   1.585   7.041  0.9956  0.3376 -0.4187
16150SOL    HW149028   0.314   1.499   7.012 -0.8365  0.0259  2.0368
16150SOL    HW249029   0.321   1.644   6.968 -2.4106 -0.5403 -0.2629
16151SOL     OW49030   8.606   9.068   0.357  0.1577 -0.1829 -0.4389
16151SOL    HW149031   8.617   9.159   0.384  0.5166 -0.4322  0.2600
16151SOL    HW249032   8.543   9.032   0.419  0.6303 -0.6341 -0.2179
16152SOL     OW49033   9.411   2.576   9.066  0.4616 -0.4202 -0.5986
16152SOL    HW149034   9.342   2.610   9.008  0.3064 -2.6598 -1.8448
16152SOL    HW249035   9.365   2.518   9.126  0.9355  0.1684  0.3459
16153SOL     OW49036   7.600   5.906   3.679 -0.5836 -0.0433 -0.1100
16153SOL    HW149037   7.555   5.822   3.667 -2.3213  0.9053 -0.5666
16153SOL    HW249038   7.552   5.967   3.624 -1.1161  1.8646  2.3059
16154SOL     OW49039   4.807   4.662   9.196  0.2547 -0.4333  0.1420
16154SOL    HW149040   4.747   4.639   9.266  1.0042  2.6495  2.0047
16154SOL    HW249041   4.888   4.615   9.217 -0.3181 -1.5712 -0.1715
16155SOL     OW49042   2.510   0.650   4.726  0.3368 -0.3036  0.4767
16155SOL    HW149043   2.582   0.698   4.684  0.3369  0.2149  1.0336
16155SOL    HW249044   2.514   0.679   4.818 -0.2720 -0.6499  0.6161
16156SOL     OW49045   7.448   5.545   6.946 -0.0874 -0.4196  0.4518
16156SOL    HW149046   7.510   5.590   6.889 -1.5073  1.4813  0.3166
16156SOL    HW249047   7.365   5.590   6.932 -1.0194 -1.4536  2.2541
16157SOL     OW49048   8.385   0.037   7.410  0.1535 -0.5373 -0.2192
16157SOL    HW149049   8.477   0.032   7.435  0.1923  0.5128 -0.1248
16157SOL    HW249050   8.344  -0.038   7.454  1.3166 -2.3087 -1.9486
16158SOL     OW49051   0.711   0.186   2.364  0.4655 -0.3267 -0.0155
16158SOL    HW149052   0.785   0.155   2.416 -1.0233 -1.9314  1.2347
16158SOL    HW249053   0.660   0.108   2.344 -0.3788  0.6052 -1.7357
16159SOL     OW49054   3.953   6.082   4.539  0.4219  0.2761 -0.0048
16159SOL    HW149055   4.046   6.098   4.522 -0.0018  0.9674 -1.9004
16159SOL    HW249056   3.924   6.161   4.585  1.2085 -0.8889  2.6686
16160SOL     OW49057   3.116   3.129   4.914  0.3705  0.0663 -0.2898
16160SOL    HW149058   3.166   3.072   4.855  0.0662 -0.3044 -0.1936
16160SOL    HW249059   3.107   3.077   4.994  1.3878  0.8315  0.3483
16161SOL     OW49060   2.320   1.394   0.067 -0.8008  0.1674 -0.0601
16161SOL    HW149061   2.257   1.425   0.002 -0.3282  0.8571 -0.1897
16161SOL    HW249062   2.301   1.300   0.075 -0.9606  0.1042 -1.0790
16162SOL     OW49063   0.828   8.839   1.288  0.0762  0.5190  0.3980
16162SOL    HW149064   0.884   8.828   1.365  0.0569 -0.0930  0.3302
16162SOL    HW249065   0.788   8.926   1.300  0.6592  0.7500  0.6873
16163SOL     OW49066   5.094   5.951   5.030 -0.3905  0.5306  0.6462
16163SOL    HW149067   5.002   5.931   5.013  0.2277 -0.9456 -1.3018
16163SOL    HW249068   5.133   5.957   4.943  1.2856  1.5832  1.4338
16164SOL     OW49069   8.829   0.771   0.546 -0.6552  0.2793 -0.2072
16164SOL    HW149070   8.812   0.824   0.468  1.8660  1.4943 -0.0390
16164SOL    HW249071   8.864   0.689   0.511  2.6194  1.6237 -0.5186
16165SOL     OW49072   1.688   9.408   1.970  0.4076 -0.0911  0.6702
16165SOL    HW149073   1.737   9.347   1.915 -0.0532 -1.1556  1.4093
16165SOL    HW249074   1.756   9.460   2.015  0.8430 -0.9093  0.9720
16166SOL     OW49075   9.123   6.647   9.834 -0.1297  0.5307 -0.6892
16166SOL    HW149076   9.067   6.578   9.798  1.7483 -0.2175 -2.3563
16166SOL    HW249077   9.088   6.662   9.921 -1.2162 -1.8450 -0.6193
16167SOL     OW49078   9.016   1.073   6.796  0.3388 -0.2442 -0.3444
16167SOL    HW149079   9.019   1.164   6.767  0.6287 -1.2503 -3.9083
16167SOL    HW249080   9.106   1.041   6.788  0.2531 -0.8981  0.9029
16168SOL     OW49081   5.749   6.480   9.246 -0.2907  0.2718  0.1600
16168SOL    HW149082   5.799   6.418   9.299 -1.2309 -0.8539 -0.2248
16168SOL    HW249083   5.704   6.425   9.181 -0.1347  1.4894 -1.0160
16169SOL     OW49084   8.287   7.695   3.233  0.4475  0.3721  0.5667
16169SOL    HW149085   8.321   7.614   3.195 -1.5315 -0.9007  1.3016
16169SOL    HW249086   8.304   7.762   3.167  0.2817 -1.0682 -1.0173
16170SOL     OW49087   0.717   2.941   4.381  0.1313 -0.2159  0.5503
16170SOL    HW149088   0.759   3.009   4.329  1.6211 -1.5125 -0.0425
16170SOL    HW249089   0.635   2.922   4.336 -0.3542  1.2261  0.7891
16171SOL     OW49090   1.447   8.036   3.827  0.1972  0.4142  0.6035
16171SOL    HW149091   1.490   8.117   3.854 -0.3944  1.4977 -1.4532
16171SOL    HW249092   1.355   8.050   3.848  0.3585 -0.5808  2.0661
16172SOL     OW49093   8.385   3.750   9.621  0.2918  0.0459 -0.0384
16172SOL    HW149094   8.295   3.780   9.604  0.9113  1.0004 -1.7995
16172SOL    HW249095   8.374   3.660   9.651 -1.2351 -0.0660 -0.8049
16173SOL     OW49096   3.408   0.016   5.369  0.4013  0.5178 -0.5989
16173SOL    HW149097   3.342   0.084   5.359 -0.5281 -0.1358  0.7149
16173SOL    HW249098   3.383  -0.030   5.450  0.8442 -1.5140 -1.5317
16174SOL     OW49099   8.467   0.326   9.500 -0.7288 -0.0458 -0.2394
16174SOL    HW149100   8.529   0.390   9.467  0.8363 -2.0212 -1.3172
16174SOL    HW249101   8.387   0.342   9.450 -1.1793  2.5279  1.1670
16175SOL     OW49102   6.131   4.343   7.310 -0.1419  0.1307 -0.0017
16175SOL    HW149103   6.044   4.383   7.314 -0.5773 -0.7752  0.0283
16175SOL    HW249104   6.192   4.416   7.301 -1.0413  0.6839 -2.1359
16176SOL     OW49105   7.726   2.559   9.421 -0.7982  0.0536  0.8862
16176SOL    HW149106   7.662   2.586   9.487 -1.8261  1.6036 -0.6402
16176SOL    HW249107   7.688   2.589   9.338  2.5749  2.4566  0.0042
16177SOL     OW49108   6.509   0.305   2.815 -0.0958  0.1324 -0.0117
16177SOL    HW149109   6.521   0.239   2.747  0.5195 -0.9362  1.0963
16177SOL    HW249110   6.483   0.256   2.893 -0.3749  1.2759  0.6513
16178SOL     OW49111   3.269   7.900   3.750  0.3880  0.3493  0.4739
16178SOL    HW149112   3.301   7.983   3.714  0.3845  0.3499  0.4724
16178SOL    HW249113   3.348   7.848   3.764  0.3067 -0.1651 -0.7879
16179SOL     OW49114   3.392   2.554   9.650  0.4702  0.1266 -0.2530
16179SOL    HW149115   3.304   2.589   9.640  1.1094  1.9937  0.2276
16179SOL    HW249116   3.445   2.630   9.675  2.2983 -0.8678 -0.9441
16180SOL     OW49117   2.840   3.812   4.443 -0.0224 -0.5604 -0.4369
16180SOL    HW149118   2.935   3.818   4.444  0.0132 -0.7511  1.7134
16180SOL    HW249119   2.810   3.887   4.495 -1.0276 -0.6815 -0.8108
16181SOL     OW49120   7.210   3.602   1.781 -0.0016 -0.1563  0.0364
16181SOL    HW149121   7.235   3.693   1.799  0.6572 -0.2568 -0.3436
16181SOL    HW249122   7.139   3.584   1.842  1.2202 -0.0481  1.5417
16182SOL     OW49123   7.625   6.442   9.040  0.1059 -0.0703 -0.4587
16182SOL    HW149124   7.641   6.519   8.986  0.7814  0.8442  0.9996
16182SOL    HW249125   7.580   6.381   8.981  0.7503  0.8982 -2.0268
16183SOL     OW49126   3.978   2.492   4.446  0.1167  0.4506  0.3983
16183SOL    HW149127   3.977   2.545   4.525 -1.5267  0.9845  0.0596
16183SOL    HW249128   3.987   2.402   4.478  1.6200  0.8126  1.0491
16184SOL     OW49129   7.859   3.390  -0.005 -0.2638 -0.8800 -0.8342
16184SOL    HW149130   7.871   3.312   0.049  1.5980 -0.4565 -0.5372
16184SOL    HW249131   7.778   3.430   0.027  1.3280  0.0272  2.6313
16185SOL     OW49132   3.847   5.651   1.824 -0.3605 -0.5952  0.5009
16185SOL    HW149133   3.873   5.611   1.741  0.9936  0.0918  0.5754
16185SOL    HW249134   3.859   5.581   1.889  0.0815 -0.6715  0.3413
16186SOL     OW49135   9.237   6.960   0.195 -0.4621 -0.3088 -0.0287
16186SOL    HW149136   9.224   7.052   0.174 -0.2137 -0.3695 -0.4589
16186SOL    HW249137   9.300   6.929   0.129  2.9125  0.2822  2.6099
16187SOL     OW49138   0.264   3.309   1.751 -0.3692 -0.0342  0.0545
16187SOL    HW149139   0.305   3.393   1.729 -0.7256 -0.0110 -0.5236
16187SOL    HW249140   0.192   3.331   1.810 -0.0717  0.0011  0.4112
16188SOL     OW49141   3.870   9.151   7.011  0.1691  0.3079 -0.0343
16188SOL    HW149142   3.896   9.084   7.075  0.2093  0.2436 -0.1166
16188SOL    HW249143   3.779   9.131   6.991  0.2871  0.0444 -0.3396
16189SOL     OW49144   5.389   8.516   5.574  0.0335  0.8453 -0.0064
16189SOL    HW149145   5.450   8.500   5.503  0.7147  3.9170 -0.2476
16189SOL    HW249146   5.443   8.548   5.646 -0.9221  0.1545  1.0569
16190SOL     OW49147   0.668   2.870   0.264  0.1405  0.1934 -0.5303
16190SOL    HW149148   0.735   2.880   0.196 -1.0476 -1.1435 -1.9579
16190SOL    HW249149   0.681   2.781   0.297 -0.2249  0.3252 -0.0336
16191SOL     OW49150   5.179   5.434   9.532 -0.6233  0.0984 -0.1842
16191SOL    HW149151   5.099   5.387   9.512 -0.2497 -1.1033  1.0106
16191SOL    HW249152   5.240   5.410   9.462 -1.3937  1.3975 -1.3709
16192SOL     OW49153   5.723   8.758   9.604 -0.2375  0.4261  0.2062
16192SOL    HW149154   5.814   8.789   9.605 -0.1053  0.1867 -1.8967
16192SOL    HW249155   5.674   8.829   9.648  0.5344  2.1249 -1.5196
16193SOL     OW49156   9.013   2.269   1.431  0.1420 -0.0517  0.7342
16193SOL    HW149157   9.050   2.206   1.370  0.4658  0.0344  0.8422
16193SOL    HW249158   9.006   2.350   1.380 -1.0903 -0.3799  0.3225
16194SOL     OW49159   1.560   1.453  -0.010 -0.4339  0.3198 -0.3245
16194SOL    HW149160   1.621   1.504   0.044  0.8568  0.5715 -1.9459
16194SOL    HW249161   1.490   1.429   0.050  2.2967 -1.9321  2.2813
16195SOL     OW49162   7.090   9.019   0.719 -0.1230  0.7850  0.2977
16195SOL    HW149163   7.127   9.093   0.672  0.7700  1.1959  1.5933
16195SOL    HW249164   7.161   8.956   0.726 -0.7434 -0.0238 -0.3792
16196SOL     OW49165   3.042   4.104   2.510  0.7696  0.0611 -0.2179
16196SOL    HW149166   2.948   4.093   2.493  0.4070 -3.1752  2.7479
16196SOL    HW249167   3.047   4.175   2.573  0.1865 -0.3324  0.2841
16197SOL     OW49168   7.278   9.384   5.045 -0.0294 -0.2248 -0.1166
16197SOL    HW149169   7.209   9.318   5.044  0.3124 -0.6400 -2.4705
16197SOL    HW249170   7.359   9.335   5.060 -0.0212 -0.0214  0.5129
16198SOL     OW49171   1.779   8.536   4.164  0.0249  0.2356  0.0661
16198SOL    HW149172   1.849   8.583   4.118  0.2988 -0.1486  0.0920
16198SOL    HW249173   1.757   8.593   4.238 -2.2590  2.2081 -1.9188
16199SOL     OW49174   9.037   9.603   3.927  0.2171 -0.0810  0.6393
16199SOL    HW149175   9.008   9.535   3.988  0.8858 -0.5554  0.4392
16199SOL    HW249176   9.131   9.589   3.919  0.1444  0.0094 -0.4587
16200SOL     OW49177   2.683   8.575   4.143 -0.4388 -0.2822 -0.0243
16200SOL    HW149178   2.738   8.625   4.083  0.3278 -0.5523  0.4416
16200SOL    HW249179   2.634   8.642   4.192 -0.0518 -0.0101  0.0014
16201SOL     OW49180   1.437   5.215   0.623 -0.4511  0.0674 -0.2666
16201SOL    HW149181   1.424   5.122   0.644  1.0610 -0.0832  0.0684
16201SOL    HW249182   1.494   5.214   0.546  0.8407  0.7251  0.6602
16202SOL     OW49183   3.490   8.778   5.264  0.2675 -0.0517  0.3030
16202SOL    HW149184   3.484   8.692   5.306  1.5500  0.0371  0.7118
16202SOL    HW249185   3.564   8.770   5.204 -1.5431 -0.1893 -2.0385
16203SOL     OW49186   7.376   8.944   4.952  0.5881  0.0902  0.7145
16203SOL    HW149187   7.383   8.878   4.883 -0.4012  1.6612 -0.9794
16203SOL    HW249188   7.310   8.909   5.012 -1.0882  0.1642 -0.9891
16204SOL     OW49189   6.826   4.628   2.930 -0.9282 -0.0051 -0.0801
16204SOL    HW149190   6.770   4.608   3.005 -0.1683  0.8264  0.7367
16204SOL    HW249191   6.765   4.649   2.860 -1.6487 -0.1518  0.4848
16205SOL     OW49192   4.702   7.789   6.000 -0.1341  0.3351  0.4564
16205SOL    HW149193   4.730   7.713   5.949  0.8289  1.2629 -0.4355
16205SOL    HW249194   4.607   7.792   5.990 -0.0087  0.2056 -0.8591
16206SOL     OW49195   2.286   0.512   4.665  0.1433 -0.2029 -0.5683
16206SOL    HW149196   2.370   0.555   4.682 -0.7817  2.3537 -1.9308
16206SOL    HW249197   2.240   0.515   4.749 -0.2566  2.5134 -0.8005
16207SOL     OW49198   9.462   5.518   5.593 -0.0895  0.0874  0.4630
16207SOL    HW149199   9.396   5.488   5.656 -0.3274  1.0595  0.6925
16207SOL    HW249200   9.462   5.613   5.601  1.3182  0.1153  0.4319
16208SOL     OW49201   7.703   4.040   4.084 -0.2373 -0.2476 -0.1725
16208SOL    HW149202   7.782   3.988   4.069  2.0056  3.0816 -0.8460
16208SOL    HW249203   7.703   4.105   4.014 -2.9042  0.7205  0.6074
16209SOL     OW49204   2.238   6.339   1.520 -0.5776  0.3501  0.1903
16209SOL    HW149205   2.185   6.258   1.514 -0.6967  0.5005 -1.1204
16209SOL    HW249206   2.186   6.404   1.472 -0.1725  1.0410  0.6865
16210SOL     OW49207   8.617   4.508   6.263  0.5931  0.9331  0.2446
16210SOL    HW149208   8.602   4.463   6.347  1.2324 -0.0122 -0.1244
16210SOL    HW249209   8.655   4.440   6.207 -1.6959  0.9607 -1.4726
16211SOL     OW49210   3.734   7.232   4.018  0.5111  0.1449  0.2218
16211SOL    HW149211   3.688   7.164   3.970  1.4890  0.2386 -0.9120
16211SOL    HW249212   3.698   7.314   3.985 -0.6629  0.2148  1.5821
16212SOL     OW49213   1.805   5.761   2.689  0.3043  0.3130 -0.3455
16212SOL    HW149214   1.710   5.773   2.692  0.2991  0.0849  2.0789
16212SOL    HW249215   1.817   5.680   2.640 -0.9283 -0.8277  1.1467
16213SOL     OW49216   6.069   2.687   6.317  0.3814 -0.0312  0.3302
16213SOL    HW149217   6.017   2.726   6.247  2.6115  0.5323 -1.1109
16213SOL    HW249218   6.160   2.701   6.291  1.3260 -2.7737  1.6869
16214SOL     OW49219   1.324   0.084   2.931  0.5084  0.4405 -0.1335
16214SOL    HW149220   1.296   0.137   2.857 -0.1170  1.6926  0.9530
16214SOL    HW249221   1.419   0.075   2.920  0.3741  0.2700 -1.2637
16215SOL     OW49222   9.707   4.163   2.055  0.4241  0.1499  0.1991
16215SOL    HW149223   9.734   4.253   2.076 -0.2794  0.5263 -0.4615
16215SOL    HW249224   9.614   4.171   2.033  0.4988 -0.6486 -0.4385
16216SOL     OW49225   2.284   8.331   3.735 -0.2130  0.1552 -0.5255
16216SOL    HW149226   2.203   8.369   3.699  0.3315  1.2669 -0.6387
16216SOL    HW249227   2.353   8.390   3.705  0.5679 -0.4164  0.1061
16217SOL     OW49228   9.078   5.709   9.302 -0.4852 -0.3348 -0.3439
16217SOL    HW149229   8.991   5.748   9.298 -0.8170 -1.0437 -0.2554
16217SOL    HW249230   9.119   5.730   9.218 -0.5996  0.3132 -0.2400
16218SOL     OW49231   2.994   6.284   9.415  0.5267 -0.2050  0.5901
16218SOL    HW149232   3.036   6.260   9.497 -0.8223 -0.0889  1.3414
16218SOL    HW249233   3.040   6.363   9.387  1.7439 -0.8786  0.6270
16219SOL     OW49234   0.028   1.602   6.724 -0.4765 -0.0173  0.2367
16219SOL    HW149235   0.060   1.692   6.717 -0.6448  0.0847  0.7827
16219SOL    HW249236  -0.058   1.610   6.764 -1.1307 -0.3034 -1.0562
16220SOL     OW49237   0.846   5.818   8.807 -0.0500  0.0060  0.1738
16220SOL    HW149238   0.759   5.780   8.792 -0.0295  0.4697 -1.2427
16220SOL    HW249239   0.833   5.879   8.879 -0.9712  0.2811 -0.2084
16221SOL     OW49240   8.974   6.919   0.033  0.4146  0.0888 -0.1264
16221SOL    HW149241   8.944   6.833   0.062  0.8966 -0.1358 -0.2864
16221SOL    HW249242   9.051   6.937   0.087 -0.2134  0.8380  0.5594
16222SOL     OW49243   3.832   9.481   6.538 -0.1357 -0.3733  0.2056
16222SOL    HW149244   3.771   9.507   6.469 -0.4688  1.0264  0.9882
16222SOL    HW249245   3.831   9.554   6.600  2.6716 -0.0774  0.0408
16223SOL     OW49246   3.990   9.400   9.884  0.0193 -0.2746 -0.0304
16223SOL    HW149247   4.039   9.483   9.883  0.9222 -0.6592  2.6460
16223SOL    HW249248   3.999   9.366   9.796  2.0302  1.1532 -0.4608
16224SOL     OW49249   0.617   4.872   4.012 -0.2164 -0.0023 -0.1492
16224SOL    HW149250   0.584   4.892   3.924  0.7902  0.5328 -0.4134
16224SOL    HW249251   0.637   4.778   4.009  0.0700  0.0701 -0.5739
16225SOL     OW49252   5.519   7.964   7.961 -0.3109 -0.3857  0.7038
16225SOL    HW149253   5.537   7.915   8.041  0.1894 -0.5702  0.4836
16225SOL    HW249254   5.582   7.931   7.898 -0.8788 -0.4314  0.1503
16226SOL     OW49255   1.980   2.163   5.533  0.6225 -0.2239 -0.2796
16226SOL    HW149256   1.936   2.244   5.508  0.2874 -0.4746 -0.5147
16226SOL    HW249257   1.927   2.094   5.493 -0.5234 -0.7089  1.9204
16227SOL     OW49258   4.980   9.129   6.279 -0.7378 -0.0606  0.9632
16227SOL    HW149259   4.983   9.038   6.250  0.4331  0.3473 -0.2837
16227SOL    HW249260   5.051   9.137   6.343  0.8805  0.5471 -0.8160
16228SOL     OW49261   6.004   3.967   4.586  0.1734 -0.4792  0.2828
16228SOL    HW149262   5.923   4.005   4.621  0.6751  0.2287  0.7138
16228SOL    HW249263   6.039   3.915   4.658  0.2293 -0.5754  0.1860
16229SOL     OW49264   3.033   4.461   1.582 -0.0169  0.2210  0.0182
16229SOL    HW149265   3.051   4.383   1.635 -0.3550  0.1798  0.0753
16229SOL    HW249266   3.011   4.426   1.495  1.9109  0.3342 -0.5721
16230SOL     OW49267   1.750   2.759   8.524 -0.1044  0.1210 -0.3146
16230SOL    HW149268   1.829   2.778   8.473  0.2381 -0.5487 -0.0334
16230SOL    HW249269   1.768   2.796   8.610  1.0358 -2.3678  0.5974
16231SOL     OW49270   0.951   5.874   5.991 -0.0720  0.0841  0.1660
16231SOL    HW149271   0.856   5.883   5.995 -0.2282 -1.2737 -0.2267
16231SOL    HW249272   0.980   5.955   5.947 -1.0332  0.4994  0.2682
16232SOL     OW49273   8.274   6.000   1.118 -0.8141 -0.6317  0.0212
16232SOL    HW149274   8.285   5.925   1.060  0.1704 -0.4909  0.0021
16232SOL    HW249275   8.307   6.074   1.068 -1.9612 -0.1382 -0.0340
16233SOL     OW49276   3.645   2.451   3.949  0.1804 -0.1559  0.4972
16233SOL    HW149277   3.592   2.529   3.964  1.9438  1.1649  0.1686
16233SOL    HW249278   3.701   2.445   4.027  1.7716  0.3961 -0.5467
16234SOL     OW49279   0.863   1.502   9.030  0.0710 -0.3492  0.0752
16234SOL    HW149280   0.928   1.444   9.071 -0.8306 -1.5490 -0.1394
16234SOL    HW249281   0.814   1.445   8.971 -2.1779  0.1425  1.3590
16235SOL     OW49282   5.337   9.100   6.253 -0.9224  0.3869 -0.3311
16235SOL    HW149283   5.357   9.116   6.345 -1.6909 -0.3635 -0.0174
16235SOL    HW249284   5.311   9.008   6.250  1.1666 -0.2359 -1.6638
16236SOL     OW49285   6.031   4.146   7.072 -0.0236  0.1479  0.2905
16236SOL    HW149286   6.026   4.231   7.115  0.3686 -0.6083  1.9427
16236SOL    HW249287   6.010   4.083   7.142  1.4957 -1.2041 -0.4037
16237SOL     OW49288   6.670   7.082   9.350 -0.0625  0.0130 -0.0922
16237SOL    HW149289   6.617   7.147   9.304 -0.6519  0.5387  1.2867
16237SOL    HW249290   6.606   7.032   9.402  0.6513 -0.1600  0.6315
16238SOL     OW49291   5.946   2.582   4.954  0.1891 -0.1877 -0.1277
16238SOL    HW149292   5.872   2.549   4.903  0.1636 -1.1687  0.5279
16238SOL    HW249293   5.925   2.557   5.044 -0.3087  2.4263  0.5854
16239SOL     OW49294   9.332   8.710   5.468 -0.8276 -0.4027  0.3568
16239SOL    HW149295   9.278   8.671   5.398 -0.2516 -0.1794 -0.2254
16239SOL    HW249296   9.416   8.728   5.425 -1.0473  1.4211  0.6170
16240SOL     OW49297   7.203   3.491   5.958 -0.3368  0.6971  0.0880
16240SOL    HW149298   7.184   3.412   5.907  0.6337  0.7945 -0.4309
16240SOL    HW249299   7.270   3.464   6.020 -0.6837  0.8808  0.5521
16241SOL     OW49300   5.964   1.375   6.645 -0.3247 -0.2231 -0.3109
16241SOL    HW149301   5.887   1.394   6.700 -0.2165 -2.3036  0.6302
16241SOL    HW249302   5.998   1.461   6.622 -2.6375  0.7651 -0.3404
16242SOL     OW49303   3.442   7.808   1.224  0.1336 -0.3637 -0.4970
16242SOL    HW149304   3.363   7.780   1.270 -0.3087 -0.2663 -1.1847
16242SOL    HW249305   3.514   7.778   1.279 -0.3920  0.8887  0.9359
16243SOL     OW49306   7.556   0.569   0.231  0.3621  0.7201  0.4274
16243SOL    HW149307   7.486   0.509   0.257 -1.2513  2.1601 -0.3615
16243SOL    HW249308   7.603   0.588   0.312 -0.0761 -0.3703  0.9544
16244SOL     OW49309   1.811   6.821   8.406  0.1216  0.2324 -0.4297
16244SOL    HW149310   1.903   6.829   8.429  0.9232 -1.7427 -2.5332
16244SOL    HW249311   1.782   6.910   8.388  2.2840  0.7130 -1.8875
16245SOL     OW49312   3.517   3.815   2.973  0.0893 -0.1647  0.3387
16245SOL    HW149313   3.603   3.820   3.014  0.4593  0.7628 -0.5080
16245SOL    HW249314   3.475   3.898   2.995 -1.0073 -0.9946  1.5778
16246SOL     OW49315   2.911   1.829   1.641 -0.0116 -0.5061  0.3105
16246SOL    HW149316   2.852   1.859   1.710 -0.3801  0.9718 -0.5977
16246SOL    HW249317   2.999   1.845   1.676 -0.1743 -0.6854  0.8086
16247SOL     OW49318   8.567   0.107   9.951 -0.3927 -0.7416 -0.7040
16247SOL    HW149319   8.528   0.192   9.928 -0.5665 -0.2598  1.1956
16247SOL    HW249320   8.649   0.105   9.901 -1.1161 -0.1692 -1.9776
16248SOL     OW49321   5.923   4.761   4.905  0.1412  0.3140 -0.1665
16248SOL    HW149322   5.845   4.785   4.855 -1.1405 -1.2081  0.9784
16248SOL    HW249323   5.974   4.706   4.846 -1.1555 -1.1435  0.0108
16249SOL     OW49324   4.400   8.752   8.143  0.1694  0.2014  0.0431
16249SOL    HW149325   4.390   8.789   8.230 -1.0035 -0.5325  0.2496
16249SOL    HW249326   4.407   8.828   8.085 -2.3037  0.8150  0.4308
16250SOL     OW49327   6.582   0.499   3.759 -0.1767 -0.2071 -0.2344
16250SOL    HW149328   6.527   0.573   3.732  0.5412 -0.3530 -2.2285
16250SOL    HW249329   6.574   0.436   3.688 -0.0051 -1.6607  0.9941
16251SOL     OW49330   9.942   8.020   9.272  0.3204 -0.5570  0.6630
16251SOL    HW149331   9.933   8.105   9.229  1.4763 -0.8972 -0.3087
16251SOL    HW249332   9.894   8.029   9.354  1.1543  1.3216  0.9860
16252SOL     OW49333   0.169   6.859   8.665  0.0940  0.1692 -0.8084
16252SOL    HW149334   0.250   6.895   8.629 -0.0493  2.0371  0.5991
16252SOL    HW249335   0.195   6.818   8.748  0.1093 -2.3746 -1.9692
16253SOL     OW49336   6.001   5.868   0.229 -0.1921 -0.2799  0.1006
16253SOL    HW149337   5.915   5.835   0.203 -0.3128  0.5881 -0.6664
16253SOL    HW249338   6.006   5.852   0.323 -1.4314  0.1568  0.2565
16254SOL     OW49339   6.681   0.694   5.224  0.5599 -1.0055 -0.4518
16254SOL    HW149340   6.664   0.701   5.130 -2.2414 -1.1771 -0.0294
16254SOL    HW249341   6.675   0.784   5.256 -1.6374 -1.2492 -0.0328
16255SOL     OW49342   8.388   0.648   9.503  0.3666 -0.0678  0.3138
16255SOL    HW149343   8.454   0.678   9.565  0.4094 -1.2885  0.8854
16255SOL    HW249344   8.338   0.727   9.481  1.1630  0.6172  0.9084
16256SOL     OW49345   3.996   2.459   7.830 -0.2728  0.3264  0.1853
16256SOL    HW149346   4.062   2.489   7.893 -0.7402 -0.4883  1.0770
16256SOL    HW249347   4.042   2.393   7.777 -0.4857 -0.5891  1.1154
16257SOL     OW49348   5.539   5.944   9.354 -1.1165 -0.4354  0.3879
16257SOL    HW149349   5.574   5.961   9.266 -1.7374 -0.8362  0.0597
16257SOL    HW249350   5.467   6.006   9.363 -0.7119 -0.0241  0.8296
16258SOL     OW49351   3.066   7.621   3.589  0.6251  0.4280 -0.3741
16258SOL    HW149352   3.000   7.552   3.580 -0.3714  1.1649  0.9899
16258SOL    HW249353   3.079   7.653   3.500 -0.5326 -0.0417 -0.7348
16259SOL     OW49354   9.220   8.689   1.993 -0.0423  0.0208 -0.6317
16259SOL    HW149355   9.225   8.625   2.064 -1.2302 -0.0090 -0.5508
16259SOL    HW249356   9.297   8.745   2.005 -0.3507  0.1744  0.8447
16260SOL     OW49357   8.027   5.817   9.251  0.8830 -0.5979 -0.0901
16260SOL    HW149358   8.098   5.825   9.315  0.0263  0.0524  0.8197
16260SOL    HW249359   7.978   5.899   9.259 -0.5998 -1.4541  0.0883
16261SOL     OW49360   2.432   5.502   2.782  0.2730  0.4655  0.6560
16261SOL    HW149361   2.434   5.598   2.780 -0.1277  0.4727  0.0897
16261SOL    HW249362   2.500   5.477   2.844  0.6936  1.1085  0.4673
16262SOL     OW49363   2.674   2.917   0.919 -0.2543 -0.4030 -0.3629
16262SOL    HW149364   2.738   2.887   0.854  0.1150  0.4250 -0.3883
16262SOL    HW249365   2.673   3.012   0.909 -1.4049 -0.3983 -0.2753
16263SOL     OW49366   3.745   0.018   6.123 -0.2011 -0.5974  0.6527
16263SOL    HW149367   3.822  -0.037   6.116 -0.2114 -0.6274  0.7695
16263SOL    HW249368   3.764   0.094   6.068 -0.0645 -0.5777  0.7262
16264SOL     OW49369   4.716   8.952   3.846  0.4126 -0.2597 -0.0372
16264SOL    HW149370   4.730   8.989   3.933  3.1921 -1.5883  0.1787
16264SOL    HW249371   4.702   9.028   3.790  0.7414  0.7711  1.2080
16265SOL     OW49372   6.169   8.552   7.613  0.1815 -0.0946  0.4051
16265SOL    HW149373   6.177   8.457   7.606  1.7416  0.0501 -0.2579
16265SOL    HW249374   6.206   8.585   7.531  1.5505  1.1335  1.4721
16266SOL     OW49375   2.731   5.967   5.194  0.1083 -0.0484  0.3150
16266SOL    HW149376   2.660   5.997   5.251 -1.0462 -3.1499  0.6730
16266SOL    HW249377   2.688   5.915   5.126  1.8432  0.1065 -0.9665
16267SOL     OW49378   5.685   9.650   0.367  0.0045 -0.1048  0.3194
16267SOL    HW149379   5.728   9.666   0.283  0.5993  0.8701  0.7906
16267SOL    HW249380   5.622   9.580   0.349 -0.4489  0.6332 -1.1222
16268SOL     OW49381   7.907   2.580   5.668 -0.0231  0.2787  0.5774
16268SOL    HW149382   7.828   2.634   5.671  0.5133  1.1936 -1.0771
16268SOL    HW249383   7.935   2.582   5.577  2.3350  0.5528  1.2500
16269SOL     OW49384   0.947   6.867   4.691  0.6169  0.0404 -0.7642
16269SOL    HW149385   0.908   6.954   4.691  1.7010  0.5766  0.8784
16269SOL    HW249386   1.034   6.879   4.730  0.6008 -1.8549 -0.0148
16270SOL     OW49387   5.772   4.153   3.172 -0.9045 -0.0845  0.4127
16270SOL    HW149388   5.714   4.089   3.214 -0.1649 -0.8842  0.2481
16270SOL    HW249389   5.833   4.100   3.121 -0.6405  0.7912 -0.1967
16271SOL     OW49390   4.179   8.294   7.587 -0.0160 -0.1036  0.0678
16271SOL    HW149391   4.101   8.243   7.564 -0.2842  0.2957  0.0920
16271SOL    HW249392   4.181   8.292   7.683  0.4394 -0.7620  0.0578
16272SOL     OW49393   0.833   9.742   2.527  0.0448 -0.3276  0.2016
16272SOL    HW149394   0.872   9.687   2.595 -0.2504 -1.3305 -0.4088
16272SOL    HW249395   0.907   9.767   2.471  0.1573 -0.2701  0.3776
16273SOL     OW49396   6.112   0.096   1.644 -0.3324  0.0441  0.6908
16273SOL    HW149397   6.200   0.131   1.636 -0.5420  0.3443 -0.4380
16273SOL    HW249398   6.121   0.003   1.625 -0.1574 -0.0628  1.2748
16274SOL     OW49399   6.285   2.281   9.905 -0.4041 -0.4888  0.0766
16274SOL    HW149400   6.237   2.218   9.852  1.0513 -1.0147 -0.6454
16274SOL    HW249401   6.349   2.229   9.953  0.0570  0.3049  0.3427
16275SOL     OW49402   6.437   0.521   6.207 -0.0646 -0.0387 -0.0371
16275SOL    HW149403   6.425   0.493   6.116 -1.5304 -0.1268  0.1646
16275SOL    HW249404   6.425   0.441   6.258 -1.4684  0.3914  0.3581
16276SOL     OW49405   8.928   3.394   0.102  0.7311 -0.5187 -0.2995
16276SOL    HW149406   8.935   3.465   0.038  0.2221  1.7743  2.0056
16276SOL    HW249407   9.016   3.389   0.142  0.0601  0.8975  1.5018
16277SOL     OW49408   7.400   9.556   6.770  0.1473  0.3105  0.2661
16277SOL    HW149409   7.306   9.544   6.763  0.1138  0.9462 -0.4642
16277SOL    HW249410   7.411   9.627   6.833  0.1727 -0.1715  0.8201
16278SOL     OW49411   9.348   1.401   6.461 -0.0710 -0.2584 -0.1820
16278SOL    HW149412   9.428   1.449   6.441  0.2796 -1.6146 -2.3883
16278SOL    HW249413   9.338   1.409   6.556  1.3608  1.9209 -0.1547
16279SOL     OW49414   2.861   9.124   7.297  0.6070 -0.5823 -0.7913
16279SOL    HW149415   2.844   9.162   7.382 -0.8279 -1.8021 -0.4885
16279SOL    HW249416   2.808   9.175   7.236  1.9852  0.5850 -1.0640
16280SOL     OW49417   2.168   2.759   5.357 -0.5460  0.3994 -0.0069
16280SOL    HW149418   2.202   2.819   5.424 -0.3943 -0.0539  0.3302
16280SOL    HW249419   2.238   2.695   5.346 -1.1700 -0.3892  0.4958
16281SOL     OW49420   7.909   5.149   8.962  0.3732  0.0904 -0.0201
16281SOL    HW149421   7.824   5.156   9.005  0.0471 -1.0920 -0.4357
16281SOL    HW249422   7.965   5.209   9.011 -0.6536  0.7656  0.3635
16282SOL     OW49423   3.009   5.829   1.958  0.1376 -0.3034 -0.2824
16282SOL    HW149424   2.982   5.763   2.022 -1.9263  0.7042 -0.0295
16282SOL    HW249425   2.939   5.894   1.960  1.2814  1.0494 -1.7449
16283SOL     OW49426   8.929   4.232   1.210 -0.1611 -0.5440 -0.2730
16283SOL    HW149427   8.895   4.195   1.292  1.7171 -1.5366  0.1077
16283SOL    HW249428   8.930   4.326   1.225  1.0027 -0.7617  1.2228
16284SOL     OW49429   7.137   0.269   9.874  0.0759  0.5305 -0.2414
16284SOL    HW149430   7.098   0.223   9.949 -0.4599 -0.7480 -1.2651
16284SOL    HW249431   7.213   0.216   9.851 -0.6423  0.0182 -1.5406
16285SOL     OW49432   0.042   0.351   0.141 -0.0304 -0.2123 -0.0151
16285SOL    HW149433   0.027   0.267   0.099 -1.5543 -0.1191  0.2862
16285SOL    HW249434   0.004   0.342   0.228  1.0105  0.3572  0.5209
16286SOL     OW49435   8.692   6.408   8.521 -0.6218  0.1111 -0.3097
16286SOL    HW149436   8.780   6.444   8.510 -1.0810  1.5673  0.5788
16286SOL    HW249437   8.686   6.338   8.456  1.2284 -0.0975 -0.2969
16287SOL     OW49438   8.123   0.622   7.485  0.1272  0.5646  0.0269
16287SOL    HW149439   8.211   0.647   7.455  0.0739  2.1369  1.0832
16287SOL    HW249440   8.072   0.614   7.404  1.5565 -1.9124 -0.7445
16288SOL     OW49441   1.048   7.150   8.227 -0.0708 -1.1297  0.1334
16288SOL    HW149442   1.116   7.120   8.167 -0.0307 -2.0186  0.5942
16288SOL    HW249443   1.063   7.099   8.307 -0.0080  0.1507  0.9731
16289SOL     OW49444   5.881   4.875   8.978  0.6602 -0.3857  0.5039
16289SOL    HW149445   5.820   4.854   8.908  0.5634 -0.1519  0.5159
16289SOL    HW249446   5.837   4.846   9.058  1.2614 -1.7254  0.3803
16290SOL     OW49447   0.980   9.976   0.793 -0.2539  0.5642  0.0886
16290SOL    HW149448   1.021   9.903   0.745 -0.7904  0.0378  0.4285
16290SOL    HW249449   1.013  10.055   0.748  0.0113  0.1090 -0.5345
16291SOL     OW49450   7.784   4.709   7.367 -0.4256  0.0628 -0.8681
16291SOL    HW149451   7.757   4.798   7.345 -1.2620 -0.1066 -0.5729
16291SOL    HW249452   7.827   4.677   7.288  0.3315  0.8869 -0.8121
16292SOL     OW49453   9.178   4.407   8.521 -0.4472 -0.1004 -0.0816
16292SOL    HW149454   9.110   4.434   8.459 -0.9072 -0.9125  0.0509
16292SOL    HW249455   9.133   4.352   8.584 -0.0552  1.0419  1.2312
16293SOL     OW49456   4.243   8.381   9.116 -0.2979 -0.1524 -0.4728
16293SOL    HW149457   4.154   8.404   9.143 -0.3710 -0.6382 -0.2915
16293SOL    HW249458   4.286   8.352   9.196 -0.2194 -0.6704 -0.7038
16294SOL     OW49459   9.537   3.197   7.484 -0.3105 -0.2096 -0.4008
16294SOL    HW149460   9.607   3.148   7.439  0.4792 -0.4701  1.0379
16294SOL    HW249461   9.458   3.147   7.467 -0.1323 -0.0159 -1.9164
16295SOL     OW49462   7.606   1.525   6.850  0.1305  0.2016 -0.3386
16295SOL    HW149463   7.586   1.618   6.839  2.1761  0.6561 -0.7408
16295SOL    HW249464   7.702   1.522   6.854  0.1897 -2.0553 -1.8894
16296SOL     OW49465   7.923   6.929   5.667  0.0390  0.4464 -0.1923
16296SOL    HW149466   7.996   6.984   5.696 -0.7146  0.5913  1.5601
16296SOL    HW249467   7.939   6.844   5.709  0.5155 -0.3184 -1.8546
16297SOL     OW49468   4.120   4.250   0.050 -0.2628  0.0344  0.2371
16297SOL    HW149469   4.054   4.215  -0.009 -0.4605  0.9414 -0.0981
16297SOL    HW249470   4.202   4.247  -0.000 -0.5449  1.4015 -0.3420
16298SOL     OW49471   3.951   7.100   5.008 -0.0508 -0.2167 -0.1249
16298SOL    HW149472   3.886   7.066   4.947  0.8048  0.5361 -1.4891
16298SOL    HW249473   3.939   7.046   5.087 -1.6701 -0.7192 -0.6652
16299SOL     OW49474   5.328   7.253   6.961  0.5786 -0.4608 -0.0376
16299SOL    HW149475   5.394   7.212   7.017 -0.4192 -0.7954  0.9190
16299SOL    HW249476   5.258   7.188   6.954  0.3252 -0.1016 -1.0208
16300SOL     OW49477   6.321   4.591   3.779 -0.4461 -0.0482  0.1696
16300SOL    HW149478   6.391   4.637   3.731 -0.9504 -0.0732 -0.6189
16300SOL    HW249479   6.261   4.562   3.710 -0.9599 -0.4879  0.7969
16301SOL     OW49480   7.707   7.162   3.636 -0.5740 -0.0298  0.1302
16301SOL    HW149481   7.631   7.113   3.667 -0.2557 -0.4299  0.2858
16301SOL    HW249482   7.781   7.106   3.656 -0.2207  0.4386  0.1406
16302SOL     OW49483   3.815   4.608   9.608 -0.4975  0.1126  0.0142
16302SOL    HW149484   3.832   4.563   9.525 -0.3155  0.3301 -0.0687
16302SOL    HW249485   3.878   4.681   9.609  1.4787 -1.5005  1.6106
16303SOL     OW49486   8.629   5.853   7.903  0.8666  0.0612 -0.2311
16303SOL    HW149487   8.575   5.929   7.883 -1.8476 -1.1920  1.6436
16303SOL    HW249488   8.632   5.803   7.822  1.4456  1.4076 -1.0679
16304SOL     OW49489   8.093   8.567   5.545  0.2507 -0.1509  0.1100
16304SOL    HW149490   8.043   8.637   5.503  0.0837 -0.4819 -0.2479
16304SOL    HW249491   8.107   8.502   5.476  0.2555 -0.5519  0.4847
16305SOL     OW49492   3.894   1.841   5.034 -0.0818  0.1950 -0.5593
16305SOL    HW149493   3.952   1.885   5.096  0.1653  0.5100 -1.0086
16305SOL    HW249494   3.872   1.908   4.970 -0.6350 -0.0295 -0.6137
16306SOL     OW49495   3.343   0.187   3.869 -0.8862  0.6947 -0.5074
16306SOL    HW149496   3.376   0.277   3.868 -1.8963  1.0666 -1.4349
16306SOL    HW249497   3.416   0.135   3.904 -0.5355  1.9527  0.7234
16307SOL     OW49498   2.857   4.068   1.417 -0.3619 -0.1226 -0.0850
16307SOL    HW149499   2.768   4.034   1.424 -1.2828  2.1448  0.2084
16307SOL    HW249500   2.879   4.097   1.505 -0.8249  2.6470 -0.7912
16308SOL     OW49501   8.597   0.929   2.879  0.1392  0.6588 -0.0718
16308SOL    HW149502   8.611   0.838   2.905 -1.1969  0.5881  0.4590
16308SOL    HW249503   8.653   0.979   2.938  1.4056  0.1690 -0.8088
16309SOL     OW49504   8.422   3.368   9.216  0.3235  0.1361 -0.8386
16309SOL    HW149505   8.422   3.458   9.248 -0.4882  0.0815 -0.6654
16309SOL    HW249506   8.432   3.314   9.294  0.3406  0.0569 -0.8951
16310SOL     OW49507   3.146   6.858   3.763  0.2622 -0.4054 -0.3982
16310SOL    HW149508   3.130   6.815   3.847  1.5312  1.0947  0.6676
16310SOL    HW249509   3.225   6.815   3.730 -1.1795 -2.2015 -1.7433
16311SOL     OW49510   9.149   8.911   7.754 -0.0876  0.2539  0.1062
16311SOL    HW149511   9.132   8.960   7.673  0.5027  0.9168  0.3664
16311SOL    HW249512   9.226   8.858   7.734  0.5833  1.0659  0.4892
16312SOL     OW49513   2.121   5.734   2.352 -0.0337 -0.1693 -0.0070
16312SOL    HW149514   2.167   5.656   2.383  2.1827  0.3081 -1.8452
16312SOL    HW249515   2.149   5.804   2.411  1.1427 -0.0163 -0.7196
16313SOL     OW49516   6.892   7.811   2.688 -0.2335  0.1540  0.4896
16313SOL    HW149517   6.977   7.767   2.676 -0.9462 -0.7271 -1.8703
16313SOL    HW249518   6.863   7.782   2.774  1.3550 -0.4113  0.8773
16314SOL     OW49519   2.145   0.288   4.806  0.4193 -0.0185  0.2560
16314SOL    HW149520   2.223   0.321   4.851  0.8328 -1.1992  0.4244
16314SOL    HW249521   2.165   0.299   4.713  0.2359  0.8990  0.3138
16315SOL     OW49522   6.734   1.804   0.462  0.0511 -0.1401  0.4771
16315SOL    HW149523   6.811   1.861   0.469 -0.2869  0.3370  0.3033
16315SOL    HW249524   6.771   1.719   0.437  0.5594 -0.0103  0.7568
16316SOL     OW49525   4.064   0.938   9.052  0.6794  0.4615 -0.1799
16316SOL    HW149526   4.136   0.877   9.071 -0.2581 -1.1649 -1.5630
16316SOL    HW249527   3.987   0.882   9.042 -0.5713  2.0568  0.0798
16317SOL     OW49528   1.065   3.011   1.125 -0.1996 -0.2838  0.0444
16317SOL    HW149529   1.137   3.043   1.179 -0.2090 -1.0370  0.5218
16317SOL    HW249530   0.989   3.059   1.156 -0.4112 -1.4709  1.4768
16318SOL     OW49531   7.369   3.152   7.165  0.0727  0.0485  0.4273
16318SOL    HW149532   7.314   3.230   7.170  0.8183  0.5928  0.1630
16318SOL    HW249533   7.457   3.182   7.185  0.5058 -0.5671 -0.4763
16319SOL     OW49534   8.638   1.476   2.617  0.0451 -0.2908  0.4410
16319SOL    HW149535   8.710   1.450   2.560  1.6981  0.5669  2.0324
16319SOL    HW249536   8.680   1.496   2.701 -2.1700 -0.6088  1.6976
16320SOL     OW49537   8.010   8.417   2.316  0.1137 -0.5270 -0.2984
16320SOL    HW149538   8.033   8.360   2.390  0.4942  0.5424  0.4314
16320SOL    HW249539   8.065   8.494   2.327  1.6517 -1.1539 -2.8371
16321SOL     OW49540   3.311   8.060   1.817 -0.1106 -0.2205 -0.0213
16321SOL    HW149541   3.252   8.057   1.743 -0.2058 -0.9180  0.0733
16321SOL    HW249542   3.360   8.141   1.806 -0.6217  0.0317 -0.4551
16322SOL     OW49543   5.406   0.098   3.153  0.6916 -0.0434 -0.2028
16322SOL    HW149544   5.427   0.171   3.095  1.5776  0.5124  0.7828
16322SOL    HW249545   5.369   0.031   3.095  1.8527  0.3572 -1.4741
16323SOL     OW49546   8.776   4.429   4.889  0.4732  0.2230  0.0715
16323SOL    HW149547   8.773   4.520   4.858  1.3774  0.4594  0.6590
16323SOL    HW249548   8.802   4.435   4.980  1.1742 -0.6678 -0.0530
16324SOL     OW49549   1.872   6.986   0.223 -0.6128 -0.1885  0.2442
16324SOL    HW149550   1.879   7.080   0.212 -1.9630 -0.0457  0.3849
16324SOL    HW249551   1.962   6.953   0.217 -0.3012  0.8811 -1.7184
16325SOL     OW49552   1.902   2.993   2.349 -0.3784  0.0822 -0.5350
16325SOL    HW149553   1.927   2.945   2.428  1.1381 -0.0076 -1.0315
16325SOL    HW249554   1.890   2.924   2.283 -0.7265  0.2194 -0.6167
16326SOL     OW49555   8.048   1.971   0.505 -0.2189 -0.3694 -0.0943
16326SOL    HW149556   7.961   1.947   0.538  0.0009  0.2410  0.9611
16326SOL    HW249557   8.044   1.949   0.411 -1.3018 -0.9068  0.0524
16327SOL     OW49558   2.565   2.117   0.807 -0.3016  0.3400 -0.2142
16327SOL    HW149559   2.547   2.163   0.724 -0.3391  0.2328 -0.2652
16327SOL    HW249560   2.481   2.115   0.852 -0.7060 -1.2020 -0.9682
16328SOL     OW49561   5.857   6.913   9.472 -0.3491  0.0070 -0.0275
16328SOL    HW149562   5.945   6.875   9.469  0.4655  1.7167  0.8602
16328SOL    HW249563   5.799   6.837   9.466  1.1640 -1.1653 -0.7088
16329SOL     OW49564   9.351   5.591   2.480  0.0708  0.5923 -0.3987
16329SOL    HW149565   9.418   5.652   2.448 -0.2414  0.4437 -1.3931
16329SOL    HW249566   9.400   5.518   2.517  0.4480  1.3008  0.5437
16330SOL     OW49567   5.718   6.494   0.475  0.4101 -0.1348 -0.0804
16330SOL    HW149568   5.712   6.520   0.567 -1.5528  1.6055 -0.6361
16330SOL    HW249569   5.721   6.576   0.426  1.0921 -1.0242 -1.6178
16331SOL     OW49570   3.953   0.959   8.588 -0.2570  0.0682 -0.1032
16331SOL    HW149571   4.017   0.912   8.641 -1.6604 -0.0940  1.5331
16331SOL    HW249572   3.969   1.052   8.608  0.8571  0.1795 -1.3862
16332SOL     OW49573   0.912   1.088   4.944  0.3335 -0.2386  0.0062
16332SOL    HW149574   0.958   1.144   4.881 -0.6861 -1.3681 -1.8147
16332SOL    HW249575   0.977   1.070   5.012  1.7508  0.3248 -1.1526
16333SOL     OW49576   7.525   1.103   6.352  0.0011  0.4972  0.2850
16333SOL    HW149577   7.459   1.158   6.393 -0.7701 -0.7009  0.7086
16333SOL    HW249578   7.586   1.082   6.422  0.4318  1.0011  0.0661
16334SOL     OW49579   2.322   8.940   1.334 -0.0780 -0.0220 -0.0364
16334SOL    HW149580   2.373   9.018   1.356 -0.8403  1.1244 -1.9706
16334SOL    HW249581   2.332   8.932   1.239 -1.0150 -1.5900 -0.0367
16335SOL     OW49582   6.162   5.443   8.399 -0.2560  0.2935  0.3394
16335SOL    HW149583   6.141   5.385   8.326  1.2759  0.8208 -0.5502
16335SOL    HW249584   6.217   5.390   8.457  1.8375  1.0307 -0.8794
16336SOL     OW49585   3.603   0.173   3.074 -0.6609 -0.3894  0.1446
16336SOL    HW149586   3.623   0.217   3.156  0.2323 -1.0620  0.3031
16336SOL    HW249587   3.668   0.103   3.067  0.0026  0.3464 -1.7026
16337SOL     OW49588   0.125   9.354   2.498 -0.2803 -0.3429  0.3830
16337SOL    HW149589   0.099   9.277   2.549  0.3179 -0.4885  0.4801
16337SOL    HW249590   0.044   9.384   2.457 -0.6616 -0.5657  0.9617
16338SOL     OW49591   3.014   5.561   4.877  0.4298  0.5224  0.3554
16338SOL    HW149592   2.956   5.596   4.945  0.6479  0.8943  0.3587
16338SOL    HW249593   3.005   5.623   4.805  0.6453  0.4543  0.2703
16339SOL     OW49594   6.066   4.530   8.129 -0.0057 -0.1914  0.4302
16339SOL    HW149595   6.000   4.460   8.137 -0.9356  0.7206  0.9324
16339SOL    HW249596   6.020   4.610   8.154  0.4598  0.9533 -2.0566
16340SOL     OW49597   3.809   8.506   8.678 -0.2105 -0.2332  0.0148
16340SOL    HW149598   3.892   8.481   8.637 -0.0924  0.1116  0.0411
16340SOL    HW249599   3.766   8.563   8.614  0.8118  1.8597  1.0823
16341SOL     OW49600   0.986   8.694   3.599 -0.3428 -0.0356 -0.2240
16341SOL    HW149601   1.059   8.731   3.648 -0.5118 -0.9398  0.7417
16341SOL    HW249602   1.027   8.640   3.531 -0.0900 -0.6115  0.3695
16342SOL     OW49603   5.108   7.559   5.119 -0.4525  0.0570  0.3846
16342SOL    HW149604   5.012   7.561   5.113 -0.3599  0.2955 -1.6205
16342SOL    HW249605   5.135   7.504   5.046  0.8974 -1.8249  2.1954
16343SOL     OW49606   8.374   6.011   4.607 -0.0092 -0.1255 -0.2086
16343SOL    HW149607   8.335   6.089   4.648  1.7284  0.1283  1.0938
16343SOL    HW249608   8.447   6.046   4.556  0.8553 -0.9073  0.4823
16344SOL     OW49609   5.812   8.248   4.405 -0.4124 -0.0516  0.2543
16344SOL    HW149610   5.799   8.174   4.465 -1.3412 -1.5855 -1.7319
16344SOL    HW249611   5.730   8.253   4.356 -0.1687  2.0210 -0.0204
16345SOL     OW49612   2.278   6.645   5.978 -0.6858 -0.2763  0.8664
16345SOL    HW149613   2.253   6.723   6.027 -1.0656  0.4916 -0.5152
16345SOL    HW249614   2.372   6.636   5.994 -0.2023  1.6578 -0.5360
16346SOL     OW49615   6.754   8.843   7.862  0.2853  0.8877 -0.7745
16346SOL    HW149616   6.845   8.866   7.880  1.2047 -0.9502 -2.6546
16346SOL    HW249617   6.758   8.751   7.835 -2.0529  0.9719 -1.5455
16347SOL     OW49618   1.519   5.152   3.370 -0.5055  0.0975 -0.3312
16347SOL    HW149619   1.605   5.170   3.407  0.1170 -0.9959 -1.1599
16347SOL    HW249620   1.485   5.080   3.423 -0.0070 -0.8445 -1.2348
16348SOL     OW49621   0.147   6.789   9.073  0.3515 -0.1776 -0.3657
16348SOL    HW149622   0.215   6.736   9.030 -1.4303 -1.4200 -1.8303
16348SOL    HW249623   0.195   6.848   9.130  2.6166 -1.4925 -0.7848
16349SOL     OW49624   3.164   9.959   7.193 -0.3167  0.4835  0.4880
16349SOL    HW149625   3.230   9.986   7.256 -0.1734 -0.4603  0.7607
16349SOL    HW249626   3.171   9.863   7.190  0.2103  0.5332 -1.5245
16350SOL     OW49627   7.958   7.510   8.601  0.5732  0.1035 -0.5293
16350SOL    HW149628   7.865   7.520   8.582  0.3886 -0.1204  0.2346
16350SOL    HW249629   7.970   7.416   8.614  0.8368  0.1664 -0.2988
16351SOL     OW49630   6.325   8.483   2.104 -0.0744 -0.5568  0.6541
16351SOL    HW149631   6.347   8.409   2.047 -0.3749 -0.9718  1.0680
16351SOL    HW249632   6.316   8.444   2.191  0.7868  0.1292  1.0731
16352SOL     OW49633   8.075   3.047   5.876  0.6590 -0.4170 -0.3512
16352SOL    HW149634   8.133   3.123   5.881 -1.7432  1.4370  1.9225
16352SOL    HW249635   8.092   2.997   5.956  0.2267 -0.7065 -0.4337
16353SOL     OW49636   6.527   1.551   4.887 -0.5970  0.0541 -0.3055
16353SOL    HW149637   6.559   1.632   4.926 -0.1123 -0.3955  0.2505
16353SOL    HW249638   6.607   1.500   4.870 -0.7680  0.3357 -2.1288
16354SOL     OW49639   6.815   5.057   1.153  0.2484  0.1352  0.1141
16354SOL    HW149640   6.728   5.081   1.186  0.9281  0.4262  1.7648
16354SOL    HW249641   6.867   5.039   1.231  1.3978 -1.0809 -0.8855
16355SOL     OW49642   9.338   9.991   6.530  0.2854 -0.1282  0.1624
16355SOL    HW149643   9.287   9.910   6.524 -0.6497  0.3650  0.9965
16355SOL    HW249644   9.362  10.012   6.440 -0.4815 -0.7029 -0.1875
16356SOL     OW49645   8.443   8.650   2.658  0.6391  0.3015  0.2077
16356SOL    HW149646   8.365   8.655   2.603 -0.5198 -2.4946  1.4489
16356SOL    HW249647   8.471   8.741   2.668 -1.0815  1.1802 -2.1484
16357SOL     OW49648   1.671   1.732   7.051 -0.0698  0.4095 -0.3329
16357SOL    HW149649   1.579   1.738   7.026 -0.2419  0.1765  0.2273
16357SOL    HW249650   1.670   1.693   7.138  0.5729  0.2200 -0.4035
16358SOL     OW49651   4.024   8.463   3.907 -0.3370 -0.4484  0.0518
16358SOL    HW149652   4.066   8.389   3.950 -0.1608 -0.1478  0.3944
16358SOL    HW249653   4.045   8.539   3.961 -0.3970 -0.1207 -0.3731
16359SOL     OW49654   9.515   7.392   7.524 -1.0074  0.4115  0.5470
16359SOL    HW149655   9.515   7.467   7.583 -0.1808 -0.8725  2.2850
16359SOL    HW249656   9.485   7.319   7.579  0.0235 -0.8860 -0.5494
16360SOL     OW49657   5.898   1.097   2.526  0.0549 -0.4261 -0.2258
16360SOL    HW149658   5.913   1.024   2.466 -1.2376 -0.7532 -0.1815
16360SOL    HW249659   5.864   1.055   2.606  2.5063 -0.1053  1.1071
16361SOL     OW49660   0.886   3.465   5.695  0.8318  0.7542  0.3061
16361SOL    HW149661   0.941   3.477   5.618 -0.5556  0.1787 -0.8233
16361SOL    HW249662   0.830   3.543   5.697  1.2134  1.0246  1.0665
16362SOL     OW49663   6.448   4.906   4.120 -0.1502 -0.0101 -0.0187
16362SOL    HW149664   6.372   4.889   4.064  0.0514 -1.0446  0.0097
16362SOL    HW249665   6.497   4.824   4.120  0.4978  0.3655  0.6923
16363SOL     OW49666   1.804   5.537   2.069  0.3146 -0.4390  0.0270
16363SOL    HW149667   1.776   5.575   2.152 -1.0921 -0.6555 -0.3267
16363SOL    HW249668   1.881   5.588   2.044 -0.5761  1.1194  0.3505
16364SOL     OW49669   2.957   7.339   7.256  0.2626  0.2101  0.6409
16364SOL    HW149670   2.949   7.434   7.267  0.1277  0.1000  1.5256
16364SOL    HW249671   2.897   7.302   7.320  1.1320 -0.4887  1.0640
16365SOL     OW49672   4.249   3.489   9.067 -1.1455  0.5830 -0.3284
16365SOL    HW149673   4.343   3.477   9.061 -1.0649  1.4645 -1.0252
16365SOL    HW249674   4.225   3.455   9.153  0.0301  1.7107  0.4727
16366SOL     OW49675   4.269   0.225   6.707 -0.3999 -0.5421  0.0259
16366SOL    HW149676   4.341   0.287   6.697  1.1280 -2.1870  0.3731
16366SOL    HW249677   4.284   0.184   6.792 -1.0419 -1.7408 -0.4071
16367SOL     OW49678   1.716   9.258   7.400 -0.2863 -0.1348  0.1918
16367SOL    HW149679   1.805   9.287   7.381  0.0272 -0.5791  0.9470
16367SOL    HW249680   1.675   9.249   7.314  0.7050 -0.8598 -0.2291
16368SOL     OW49681   9.551   1.336   3.598  0.0314 -0.5646  0.1288
16368SOL    HW149682   9.506   1.282   3.664  0.5704  0.1069  1.0699
16368SOL    HW249683   9.495   1.330   3.521 -0.8541 -1.0139  0.7788
16369SOL     OW49684   4.342   0.950   8.744  0.4316  0.2831  0.0200
16369SOL    HW149685   4.426   0.944   8.791  0.1070 -0.6899  0.5067
16369SOL    HW249686   4.320   1.043   8.746  2.1977  0.7988 -1.3675
16370SOL     OW49687   2.009   7.014   8.494  0.8888 -0.6964 -0.6466
16370SOL    HW149688   2.094   7.014   8.537  1.6633 -0.3785 -2.1302
16370SOL    HW249689   1.962   7.086   8.535  1.4590 -0.6409 -0.0740
16371SOL     OW49690   9.761   9.514   9.140  0.6937 -0.5809  0.3937
16371SOL    HW149691   9.854   9.527   9.159  0.3263  0.0343  1.8713
16371SOL    HW249692   9.719   9.595   9.169 -0.1763 -0.3683 -1.3458
16372SOL     OW49693   5.391   5.203   1.734 -0.1076 -0.2121  0.5896
16372SOL    HW149694   5.385   5.282   1.681  0.2009 -0.2783  0.4522
16372SOL    HW249695   5.312   5.204   1.788 -0.5411 -0.2792 -0.0465
16373SOL     OW49696   1.984   8.948   2.721 -0.7872 -0.0967 -0.2298
16373SOL    HW149697   1.902   8.929   2.676  0.6079 -1.4891 -2.3697
16373SOL    HW249698   2.047   8.963   2.650  0.7078  1.5072  1.3467
16374SOL     OW49699   9.814   1.398   7.309  0.3671 -0.2986  0.1544
16374SOL    HW149700   9.863   1.466   7.263 -1.2906 -0.5069 -2.0345
16374SOL    HW249701   9.736   1.442   7.341  0.4173 -0.6783  0.8158
16375SOL     OW49702   0.834   3.188   4.301  0.6649 -0.5693 -0.0790
16375SOL    HW149703   0.918   3.218   4.335  0.7918  1.7333 -2.1571
16375SOL    HW249704   0.773   3.258   4.323 -0.4501 -1.5987  0.2158
16376SOL     OW49705   0.967   0.109   5.966 -0.0706  0.4186 -0.0094
16376SOL    HW149706   0.949   0.159   5.886 -0.7434 -0.0406 -0.1505
16376SOL    HW249707   0.978   0.018   5.935  1.1993  0.4631  0.2326
16377SOL     OW49708   0.101   7.240   5.279  0.5449 -0.5055  0.4246
16377SOL    HW149709   0.156   7.296   5.334 -0.6635 -0.6528  1.8397
16377SOL    HW249710   0.015   7.282   5.280  0.4351 -0.6262 -1.2290
16378SOL     OW49711   7.325   7.069   3.737  0.2515  0.5125  0.0455
16378SOL    HW149712   7.237   7.034   3.754  0.0810  1.1768  0.5603
16378SOL    HW249713   7.310   7.162   3.719  0.6417  0.2564 -1.7971
16379SOL     OW49714   4.835   5.095   5.395 -0.0467 -0.5741  0.3311
16379SOL    HW149715   4.853   5.169   5.454 -0.4110  0.7110 -1.0994
16379SOL    HW249716   4.810   5.136   5.312 -1.1619 -2.3090 -0.2554
16380SOL     OW49717   0.423   5.318   1.656 -0.3962 -0.3538 -0.0803
16380SOL    HW149718   0.422   5.398   1.603 -1.0740 -0.0054  0.4354
16380SOL    HW249719   0.513   5.310   1.685 -0.2795  0.1247 -0.2927
16381SOL     OW49720   8.138   0.890   3.304 -0.0889  0.5310  0.4576
16381SOL    HW149721   8.173   0.828   3.241 -3.0147  0.5612 -1.4057
16381SOL    HW249722   8.170   0.976   3.275 -1.0446  0.4930 -0.7563
16382SOL     OW49723   4.507   1.847   3.156  0.2579 -0.5226 -0.2257
16382SOL    HW149724   4.567   1.819   3.087  2.1836  2.6597 -0.0506
16382SOL    HW249725   4.452   1.914   3.115  0.1260  0.0312  0.8088
16383SOL     OW49726   7.011   7.770   5.085 -0.3087  0.1589  0.2443
16383SOL    HW149727   7.049   7.758   5.172 -4.1481 -1.7936  1.8915
16383SOL    HW249728   7.030   7.688   5.039 -3.0032 -1.2362  1.4174
16384SOL     OW49729   5.847   8.428   1.968  0.0436  0.3213  0.2146
16384SOL    HW149730   5.802   8.406   2.049 -0.6878  1.8522  0.2559
16384SOL    HW249731   5.915   8.489   1.994 -1.5172  2.4845 -0.5116
16385SOL     OW49732   5.553   4.443   9.117 -0.2310 -0.6233 -0.4437
16385SOL    HW149733   5.586   4.419   9.031  0.9690 -0.1660 -0.1212
16385SOL    HW249734   5.463   4.472   9.101 -0.5767 -2.0758 -1.3047
16386SOL     OW49735   5.469   4.834   4.274 -0.0245  0.8527  0.0483
16386SOL    HW149736   5.453   4.914   4.324  1.1844  0.6733  0.7574
16386SOL    HW249737   5.491   4.769   4.340 -0.3217  0.0949 -0.5810
16387SOL     OW49738   2.257   8.027   1.893 -0.1044  0.7628  0.3035
16387SOL    HW149739   2.346   8.038   1.925 -1.1253 -0.7670  4.3654
16387SOL    HW249740   2.255   7.938   1.858 -0.2447  0.3478  1.3240
16388SOL     OW49741   9.941   6.846   3.125  0.8886  0.3175 -0.0393
16388SOL    HW149742   9.925   6.756   3.154  0.4213  0.5647  0.4733
16388SOL    HW249743   9.881   6.859   3.052  1.7305 -0.1451 -0.8417
16389SOL     OW49744   5.955   2.172   2.361  0.2612 -0.1034 -0.0777
16389SOL    HW149745   5.872   2.138   2.395 -0.5775  0.4545 -1.4831
16389SOL    HW249746   5.980   2.241   2.423  1.1073 -2.0121  1.8474
16390SOL     OW49747   3.665   5.134   9.791 -0.0024  0.4950  0.2545
16390SOL    HW149748   3.580   5.091   9.801  0.0419  0.5161  0.7481
16390SOL    HW249749   3.727   5.062   9.785 -0.2839  0.3481 -2.9549
16391SOL     OW49750   2.321   1.748   8.388 -0.1585 -0.1600  0.0313
16391SOL    HW149751   2.275   1.664   8.391  1.0764 -0.9039 -0.8648
16391SOL    HW249752   2.283   1.793   8.313  0.5161 -0.7732 -0.7059
16392SOL     OW49753   5.191   1.134   9.654  0.0852  0.2072  0.8943
16392SOL    HW149754   5.272   1.179   9.628  0.7673 -1.0118  0.8231
16392SOL    HW249755   5.165   1.177   9.735 -1.2305  3.0450 -0.8593
16393SOL     OW49756   0.130   0.645   6.718  0.1424  0.2802 -0.0599
16393SOL    HW149757   0.086   0.629   6.634  0.2166  1.8433 -0.4423
16393SOL    HW249758   0.205   0.699   6.695  0.7878 -0.1810  0.9039
16394SOL     OW49759   6.274   3.604   7.731 -0.2541 -0.3097  0.1113
16394SOL    HW149760   6.230   3.623   7.814  0.5142  1.7552  0.1112
16394SOL    HW249761   6.361   3.574   7.757 -0.6292 -1.4806  0.0594
16395SOL     OW49762   5.425   7.188   4.119  0.3273 -0.1601 -0.1129
16395SOL    HW149763   5.338   7.180   4.078  0.4226  0.7865 -0.5155
16395SOL    HW249764   5.414   7.253   4.188  0.7575  0.1107 -0.2938
16396SOL     OW49765   2.717   2.149   4.901  0.7006 -0.2485 -0.3438
16396SOL    HW149766   2.755   2.190   4.979  0.6788 -0.4056 -0.2506
16396SOL    HW249767   2.638   2.200   4.884  0.3485 -0.6283  0.1275
16397SOL     OW49768   6.466   2.762   7.094 -0.8289 -0.0278  0.5716
16397SOL    HW149769   6.453   2.784   7.002  1.3016  1.1599  0.4762
16397SOL    HW249770   6.507   2.675   7.092 -0.6710  0.0495  0.3842
16398SOL     OW49771   1.528   4.999   1.433  0.1427 -0.0884  0.2040
16398SOL    HW149772   1.536   4.937   1.360 -0.0852  1.0054 -0.7736
16398SOL    HW249773   1.615   5.040   1.438  1.0279 -1.9775  2.2889
16399SOL     OW49774   4.129   9.814   0.371 -0.0333 -0.3294  0.2680
16399SOL    HW149775   4.194   9.800   0.302  0.9315  1.5758  0.7421
16399SOL    HW249776   4.171   9.781   0.450 -0.4383 -0.8871  0.2558
16400SOL     OW49777   4.223   0.571   3.695 -0.6397 -0.0783 -0.5477
16400SOL    HW149778   4.177   0.650   3.723  1.5716  1.7441 -1.7424
16400SOL    HW249779   4.196   0.558   3.604 -0.7618 -0.5237 -0.4495
16401SOL     OW49780   5.857   6.834   3.138  0.0214 -0.0130  0.4290
16401SOL    HW149781   5.879   6.743   3.122  0.6468  0.2217 -0.0899
16401SOL    HW249782   5.908   6.858   3.215 -1.4074 -0.5549  1.5905
16402SOL     OW49783   2.788   5.149   3.666 -0.6568  0.0352  0.0255
16402SOL    HW149784   2.731   5.146   3.589  0.2752 -0.4819 -0.6583
16402SOL    HW249785   2.875   5.132   3.632 -0.1950  0.0249  1.1740
16403SOL     OW49786   0.965   0.079   2.492  0.6697  0.1306 -0.1844
16403SOL    HW149787   1.004   0.006   2.443  1.9538  0.7717 -0.1671
16403SOL    HW249788   1.003   0.072   2.579 -1.7231 -1.0916  0.8471
16404SOL     OW49789   6.819   8.171   9.016  0.3075  0.1120  0.1265
16404SOL    HW149790   6.828   8.076   9.016  0.4994  0.0963 -1.6425
16404SOL    HW249791   6.754   8.190   9.084 -0.8096 -1.3980 -0.4752
16405SOL     OW49792   1.537   8.137   7.007 -0.3255 -0.0451  0.2790
16405SOL    HW149793   1.541   8.134   6.911  1.7063 -0.7683  0.3346
16405SOL    HW249794   1.467   8.076   7.030 -1.5770  0.9389 -0.7461
16406SOL     OW49795   0.704   1.312   1.873  0.3697  0.0661 -0.1172
16406SOL    HW149796   0.680   1.332   1.963  1.9014 -0.4205  0.4275
16406SOL    HW249797   0.767   1.240   1.880  0.7947  0.2624 -1.5400
16407SOL     OW49798   5.579   7.689   1.838  0.0654  0.1920 -0.7281
16407SOL    HW149799   5.522   7.730   1.903  1.9576  1.5568  0.1380
16407SOL    HW249800   5.586   7.754   1.767  0.8695  0.2198 -0.6296
16408SOL     OW49801   1.702   8.774   0.907 -0.7082  0.5965  0.1379
16408SOL    HW149802   1.717   8.723   0.828 -0.4473  0.1656  0.4642
16408SOL    HW249803   1.628   8.731   0.950 -1.6101  1.5163 -0.4441
16409SOL     OW49804   1.318   6.342   7.255 -0.3667  0.4517 -0.0772
16409SOL    HW149805   1.413   6.348   7.262 -0.5015  1.6284  0.9551
16409SOL    HW249806   1.285   6.376   7.338 -1.7231  1.6775 -1.0592
16410SOL     OW49807   5.879   8.045   8.777 -0.0478  0.0534 -0.6387
16410SOL    HW149808   5.840   7.959   8.787 -1.1120  0.4876 -0.9181
16410SOL    HW249809   5.918   8.063   8.862  1.2949 -1.2160 -0.9546
16411SOL     OW49810   5.258   4.782   7.559  0.0184 -0.2902  0.2263
16411SOL    HW149811   5.188   4.801   7.496 -0.7474 -0.6800  0.9325
16411SOL    HW249812   5.310   4.862   7.561 -1.2722  0.5787  0.7629
16412SOL     OW49813   4.816   1.971   6.667 -0.0657 -0.4868  0.2796
16412SOL    HW149814   4.849   1.983   6.578  2.6667 -1.3304  1.0703
16412SOL    HW249815   4.809   1.876   6.676 -0.0648 -0.4181  1.0228
16413SOL     OW49816   2.032   3.140   0.666 -0.4450 -0.2991 -1.0061
16413SOL    HW149817   2.010   3.142   0.573 -1.7325 -0.8379 -0.7234
16413SOL    HW249818   1.978   3.070   0.702  0.4670 -0.4860  0.0532
16414SOL     OW49819   2.075   2.247   0.401 -0.2870  0.8651  0.3656
16414SOL    HW149820   2.083   2.341   0.417 -0.6732  0.5232  2.9652
16414SOL    HW249821   2.136   2.207   0.463 -0.5042 -0.6192 -0.3506
16415SOL     OW49822   1.495   7.792   4.554 -0.0010  0.0985 -0.1156
16415SOL    HW149823   1.401   7.792   4.534 -0.5655 -3.0916  1.7693
16415SOL    HW249824   1.529   7.717   4.505  0.7607 -0.9649  1.9030
16416SOL     OW49825   6.733   4.620   2.221 -0.0025  0.5431 -0.0289
16416SOL    HW149826   6.735   4.651   2.131  0.7011 -1.7784 -0.9057
16416SOL    HW249827   6.645   4.641   2.252 -1.0557 -0.5500 -2.0594
16417SOL     OW49828   9.274   6.731   7.610 -0.1074  0.0283  0.5449
16417SOL    HW149829   9.273   6.818   7.571 -0.9157 -0.2438 -0.0674
16417SOL    HW249830   9.364   6.720   7.641  0.1218  0.8976  0.2247
16418SOL     OW49831   7.679   2.631   1.695  0.7171  0.2520  0.1259
16418SOL    HW149832   7.631   2.604   1.773  1.2336 -1.1214  0.0015
16418SOL    HW249833   7.752   2.569   1.689  0.6550  0.2858 -1.4860
16419SOL     OW49834   6.032   7.818   8.548 -0.5457  0.5466  0.1570
16419SOL    HW149835   5.957   7.809   8.606 -1.0464  1.9860 -0.2109
16419SOL    HW249836   6.054   7.911   8.552  2.2641 -0.0708  1.4980
16420SOL     OW49837   2.703   9.296   0.192 -0.2677  0.6721  0.0807
16420SOL    HW149838   2.730   9.204   0.191 -0.8894  0.4913 -0.4575
16420SOL    HW249839   2.641   9.301   0.265 -2.0486  0.1122 -1.3180
16421SOL     OW49840   6.023   1.490   4.783 -0.2079 -0.3059  0.3021
16421SOL    HW149841   6.052   1.407   4.822  1.0720  0.3110  0.7228
16421SOL    HW249842   5.928   1.482   4.779 -0.1453 -1.6057  0.7739
16422SOL     OW49843   7.997   3.824   8.850 -0.4732 -0.1760  0.2273
16422SOL    HW149844   8.067   3.789   8.794  0.4865 -0.4627  1.5348
16422SOL    HW249845   7.935   3.751   8.858 -0.2280 -0.3938  0.1670
16423SOL     OW49846   3.094   7.778   2.310  0.3968 -0.2128 -0.2134
16423SOL    HW149847   3.098   7.691   2.349  0.4381 -0.4925 -0.8413
16423SOL    HW249848   3.130   7.767   2.222 -0.0357  0.3396 -0.4634
16424SOL     OW49849   1.274   3.612   7.080 -0.0227 -0.1357 -0.3914
16424SOL    HW149850   1.205   3.546   7.085 -0.7554  0.6470  0.5207
16424SOL    HW249851   1.272   3.643   6.990 -1.3702  0.3675 -0.2059
16425SOL     OW49852   5.379   3.412   9.406  0.3288  0.4527  0.2161
16425SOL    HW149853   5.453   3.364   9.369  0.7091 -0.0036  1.5029
16425SOL    HW249854   5.417   3.462   9.478 -0.1168  2.5119 -0.9127
16426SOL     OW49855   3.642   8.292   0.402 -0.2055 -0.3950  0.1628
16426SOL    HW149856   3.730   8.260   0.381 -0.4004 -1.6578  1.1413
16426SOL    HW249857   3.656   8.366   0.460  0.2277 -0.1218 -0.2870
16427SOL     OW49858   8.489   9.728   1.368 -0.1363  0.1089  0.2639
16427SOL    HW149859   8.527   9.805   1.410 -2.7371  0.9902  1.1509
16427SOL    HW249860   8.540   9.717   1.288  0.9926  2.0844  0.6591
16428SOL     OW49861   4.092   0.118   7.860  0.1521  0.1099 -0.1154
16428SOL    HW149862   4.083   0.152   7.771  0.4176  0.8470  0.1350
16428SOL    HW249863   4.179   0.147   7.888 -0.6059  1.4091  1.0271
16429SOL     OW49864   0.075   1.342   1.632 -0.0901  0.3053  0.0169
16429SOL    HW149865   0.142   1.310   1.693 -1.2024 -1.5262  0.3552
16429SOL    HW249866   0.111   1.425   1.598  2.3437 -0.6127  0.1422
16430SOL     OW49867   3.769   4.398   3.293  0.0882  0.9324  0.7470
16430SOL    HW149868   3.788   4.433   3.206  1.2609 -1.1355  0.1117
16430SOL    HW249869   3.682   4.359   3.284 -0.0216  1.1930  0.6628
16431SOL     OW49870   6.668   7.098   6.189  0.4211 -0.8331  0.5630
16431SOL    HW149871   6.575   7.082   6.171  0.4230 -1.8272  1.3406
16431SOL    HW249872   6.670   7.180   6.237  0.1169  0.1050 -0.9692
16432SOL     OW49873   0.051   7.176   7.859  0.2850 -0.1041  0.1939
16432SOL    HW149874   0.134   7.143   7.823 -0.3606 -1.8889  0.2203
16432SOL    HW249875   0.069   7.192   7.951  1.0637  1.2786 -0.1750
16433SOL     OW49876   7.776   5.824   1.309  0.2594  0.0456  0.2462
16433SOL    HW149877   7.816   5.760   1.368 -0.1364  0.2279  0.7180
16433SOL    HW249878   7.848   5.879   1.281  0.4633 -0.0957  0.4907
16434SOL     OW49879   8.598   7.290   7.150 -0.0056 -0.9779  0.3772
16434SOL    HW149880   8.567   7.215   7.100  0.6894 -0.4642 -0.8675
16434SOL    HW249881   8.521   7.345   7.163 -0.4213 -1.6654  0.8920
16435SOL     OW49882   0.990   3.712   3.081 -0.0557  0.4562 -0.4352
16435SOL    HW149883   0.925   3.713   3.010 -0.9062  0.1750  0.3214
16435SOL    HW249884   0.991   3.621   3.111  0.0170  0.6462  0.1522
16436SOL     OW49885   0.335   5.245   5.749  0.2299 -0.2319  0.3619
16436SOL    HW149886   0.414   5.202   5.716  1.4584  1.3906  1.0470
16436SOL    HW249887   0.339   5.233   5.844  0.1723  0.6767  0.4875
16437SOL     OW49888   7.690   3.183   7.572 -0.1216 -0.9781 -0.0771
16437SOL    HW149889   7.681   3.093   7.540 -0.7398 -1.4687  1.3860
16437SOL    HW249890   7.608   3.199   7.620  1.5509 -1.0833  3.0733
16438SOL     OW49891   1.100   5.069   7.568 -0.0432 -0.1421  0.0667
16438SOL    HW149892   1.048   5.032   7.638  0.6826  2.7424  2.3273
16438SOL    HW249893   1.041   5.129   7.523  0.6204  1.4299  1.1988
16439SOL     OW49894   0.043   4.108   2.370 -0.1077  0.2440 -0.1843
16439SOL    HW149895   0.009   4.184   2.416 -0.4668 -0.6727  1.1102
16439SOL    HW249896  -0.000   4.110   2.284  0.8745  2.1931 -0.6846
16440SOL     OW49897   2.842   4.857   2.658 -0.2314  0.2151  0.0633
16440SOL    HW149898   2.816   4.818   2.575 -1.5642  0.0995  0.5090
16440SOL    HW249899   2.935   4.837   2.666 -0.5748 -1.7573 -0.3246
16441SOL     OW49900   4.478   6.023   6.485 -0.0841  0.0038  0.4141
16441SOL    HW149901   4.423   6.096   6.511  0.3949 -0.1763  2.0382
16441SOL    HW249902   4.437   5.989   6.405  0.2324  2.5872 -0.9399
16442SOL     OW49903   5.515   9.267   4.615 -0.3974 -0.3848  0.3651
16442SOL    HW149904   5.436   9.320   4.625  0.3864  1.2921 -1.6121
16442SOL    HW249905   5.581   9.313   4.667 -0.0497 -0.1833 -0.2461
16443SOL     OW49906   4.542   1.986   5.222  0.2000  0.2912 -0.2872
16443SOL    HW149907   4.546   1.897   5.256 -0.3906  0.2779 -0.2421
16443SOL    HW249908   4.632   2.017   5.223  0.3415 -0.1373  0.1562
16444SOL     OW49909   7.644   5.141   1.332  0.7037  0.6752 -0.4686
16444SOL    HW149910   7.654   5.049   1.305  1.0659  0.7478 -0.5897
16444SOL    HW249911   7.567   5.141   1.388 -0.1776  0.5523 -1.6399
16445SOL     OW49912   9.902   2.064   5.814  0.3168  0.0511 -0.1617
16445SOL    HW149913   9.895   2.024   5.728  2.0190  1.4917 -1.0228
16445SOL    HW249914   9.819   2.042   5.857  0.7897 -3.5951 -0.8244
16446SOL     OW49915   2.790   4.031   4.577 -0.0249 -0.1735 -0.1402
16446SOL    HW149916   2.777   4.120   4.543 -1.6574  0.1135  1.1588
16446SOL    HW249917   2.795   4.042   4.672 -0.7969 -1.5342  0.0690
16447SOL     OW49918   1.728   4.048   6.311  0.2790  0.5601 -0.2327
16447SOL    HW149919   1.743   3.955   6.331  1.4734  0.1960 -2.4341
16447SOL    HW249920   1.636   4.062   6.332 -0.4400 -1.6408 -1.4766
16448SOL     OW49921   0.129   8.059   0.136  0.1204 -0.1369  0.0586
16448SOL    HW149922   0.095   7.973   0.112 -1.1990  0.1775  0.6818
16448SOL    HW249923   0.114   8.114   0.059 -1.2667  0.1072  0.4681
16449SOL     OW49924   9.470   1.825   8.544 -0.0150  0.3021 -0.3040
16449SOL    HW149925   9.411   1.754   8.519 -0.5057  0.0324  1.4603
16449SOL    HW249926   9.522   1.789   8.616  2.4165  0.5117 -1.8532
16450SOL     OW49927   6.841   1.330   5.257 -0.1523 -0.3429  0.1830
16450SOL    HW149928   6.910   1.374   5.308  0.8883  0.6104 -1.9184
16450SOL    HW249929   6.793   1.401   5.215 -1.8389 -1.0488  0.8276
16451SOL     OW49930   5.001   1.941   7.982  0.2077 -0.0139  0.8726
16451SOL    HW149931   5.026   2.011   8.042  1.4825  0.6996 -0.4188
16451SOL    HW249932   4.909   1.922   8.004 -1.4661  4.5357 -0.9117
16452SOL     OW49933   2.977   9.614   9.675 -0.1289 -0.2646 -0.3933
16452SOL    HW149934   3.010   9.699   9.703  1.3744 -0.3779 -1.6921
16452SOL    HW249935   2.896   9.634   9.628 -1.0370  0.1947  1.3055
16453SOL     OW49936   4.776   6.572   1.741  0.3096 -0.0227 -0.2845
16453SOL    HW149937   4.811   6.621   1.667 -0.0368  0.3027 -0.2366
16453SOL    HW249938   4.792   6.628   1.817 -0.0406 -0.0030 -0.2214
16454SOL     OW49939   5.068   8.445   3.595 -0.2351 -0.5703 -0.3259
16454SOL    HW149940   4.973   8.452   3.585  0.0198  1.9213 -1.7440
16454SOL    HW249941   5.104   8.479   3.513  1.9031 -0.4020  0.6066
16455SOL     OW49942   1.327   7.699   4.998  0.2770  0.1677 -0.3026
16455SOL    HW149943   1.317   7.775   4.941 -0.1002 -0.1825 -0.7083
16455SOL    HW249944   1.327   7.735   5.087 -1.5406  0.5154 -0.3957
16456SOL     OW49945   6.659   7.526   6.226 -0.4590 -0.0498  0.6201
16456SOL    HW149946   6.732   7.574   6.263 -0.2577  0.5874 -0.5424
16456SOL    HW249947   6.646   7.564   6.139 -1.5753 -0.7720  0.4353
16457SOL     OW49948   2.168   4.246   2.236 -0.8317  0.0407 -0.2651
16457SOL    HW149949   2.077   4.218   2.227 -1.2813  1.3993 -0.1218
16457SOL    HW249950   2.199   4.256   2.146 -0.5421 -1.2089 -0.3305
16458SOL     OW49951   4.002   1.022   5.547  0.3625  0.2292 -0.4119
16458SOL    HW149952   4.009   0.984   5.634 -0.6482  0.3563 -0.2595
16458SOL    HW249953   3.916   1.065   5.547  0.8386  1.2223 -1.0801
16459SOL     OW49954   0.526   8.309   5.375 -0.3324  0.0928  0.4054
16459SOL    HW149955   0.436   8.279   5.371  0.1992 -1.8203  1.5069
16459SOL    HW249956   0.571   8.244   5.429  1.9754  0.2864 -1.1296
16460SOL     OW49957   6.781   4.919   0.258 -0.3189  0.0922  0.4668
16460SOL    HW149958   6.812   5.000   0.218 -1.4410  2.0209  3.1536
16460SOL    HW249959   6.711   4.888   0.200  0.4632  0.7447 -0.8593
16461SOL     OW49960   0.300   6.816   6.491  0.3408 -0.0677  0.2630
16461SOL    HW149961   0.275   6.875   6.562 -1.5571 -0.6404  0.1206
16461SOL    HW249962   0.373   6.765   6.526 -0.5132 -0.2855  1.7827
16462SOL     OW49963   4.540   7.240   2.959 -0.0787 -0.2720  0.1560
16462SOL    HW149964   4.580   7.170   3.011 -0.0256  1.1524  2.1386
16462SOL    HW249965   4.447   7.216   2.955  0.2570 -1.5636 -1.1320
16463SOL     OW49966   6.481   7.098   5.060  0.1550  0.0142 -0.4288
16463SOL    HW149967   6.430   7.034   5.111  0.0305  0.3639 -0.1098
16463SOL    HW249968   6.452   7.183   5.093  0.2909  0.2367 -0.8822
16464SOL     OW49969   8.804   4.210   7.379 -0.4729 -0.4470 -0.0721
16464SOL    HW149970   8.793   4.155   7.301 -0.0281 -0.7704  0.0884
16464SOL    HW249971   8.751   4.168   7.446  1.9234 -2.2456  0.8232
16465SOL     OW49972   8.099   3.417   4.215  0.2425 -0.4491 -0.6864
16465SOL    HW149973   8.009   3.434   4.185 -0.1053 -0.7926  0.1321
16465SOL    HW249974   8.097   3.328   4.248 -0.1363  0.7045  2.8605
16466SOL     OW49975   5.388   3.589   9.610 -0.2117  0.4017 -0.3985
16466SOL    HW149976   5.298   3.623   9.619  0.0077  0.9983 -0.4239
16466SOL    HW249977   5.416   3.572   9.700 -0.2362  0.5024 -0.3726
16467SOL     OW49978   3.740   0.197   8.282 -0.0480 -0.2526  0.3239
16467SOL    HW149979   3.793   0.267   8.322  1.8904 -1.9758  0.9570
16467SOL    HW249980   3.793   0.168   8.208 -0.6984 -1.2292  0.2395
16468SOL     OW49981   7.644   9.076   2.574  0.1653  0.2293 -0.0448
16468SOL    HW149982   7.622   9.028   2.494 -3.7428  2.9523 -0.8978
16468SOL    HW249983   7.582   9.044   2.639  0.4126  1.0714  0.6255
16469SOL     OW49984   1.761   1.032   2.789 -0.0741  0.1341  0.7406
16469SOL    HW149985   1.820   1.068   2.723  0.3885 -1.2838  0.3368
16469SOL    HW249986   1.680   1.082   2.778  0.5306  1.0400  0.2302
16470SOL     OW49987   2.218   8.219   9.482 -1.1860  0.1642 -0.2626
16470SOL    HW149988   2.298   8.239   9.529 -0.7721  0.3092 -1.0199
16470SOL    HW249989   2.161   8.295   9.497 -0.9525  0.3322 -0.2254
16471SOL     OW49990   6.545   2.523   0.070  0.0016  0.3979  0.6990
16471SOL    HW149991   6.565   2.516  -0.023  0.0667  0.0950  0.7343
16471SOL    HW249992   6.475   2.588   0.075 -0.7253 -0.3409  0.3360
16472SOL     OW49993   4.134   6.477   4.496  0.5935 -0.0562  0.0222
16472SOL    HW149994   4.226   6.462   4.516  0.4040  1.3143  2.2633
16472SOL    HW249995   4.121   6.571   4.508 -0.7923  0.0502 -1.7968
16473SOL     OW49996   8.784   3.081   7.145  0.3425 -0.3328 -0.3089
16473SOL    HW149997   8.788   2.998   7.098 -1.3028  0.8513 -2.7397
16473SOL    HW249998   8.707   3.125   7.110 -1.2055  0.6206  3.7468
16474SOL     OW49999   4.323   4.379   1.788 -0.6035 -0.2576  0.1102
16474SOL    HW150000   4.285   4.301   1.829 -1.5730  0.2236  0.1609
16474SOL    HW250001   4.329   4.358   1.695  2.0445 -1.5360  0.4839
16475SOL     OW50002   5.495   3.219   8.770 -0.2297  0.2017 -0.3001
16475SOL    HW150003   5.467   3.199   8.681 -1.4099 -1.7843  0.4512
16475SOL    HW250004   5.557   3.292   8.761 -0.1431 -0.1239 -2.7308
16476SOL     OW50005   9.233   2.065   5.082 -0.3890 -0.1571  0.4006
16476SOL    HW150006   9.227   2.122   5.159 -0.9790 -0.3344  0.4906
16476SOL    HW250007   9.268   1.983   5.116  1.4839  0.4719  0.0921
16477SOL     OW50008   8.047   7.152   5.366  0.0594  0.4334  0.3119
16477SOL    HW150009   8.115   7.166   5.431 -0.9174 -0.1642  1.4897
16477SOL    HW250010   7.965   7.158   5.415 -0.7107  0.1113 -0.8906
16478SOL     OW50011   5.656   1.319   7.522 -0.4636 -0.6888  0.0210
16478SOL    HW150012   5.618   1.277   7.599  1.2005  0.0358  1.3130
16478SOL    HW250013   5.739   1.273   7.508  0.4535  0.8123  0.2518
16479SOL     OW50014   3.749   8.221   5.662  0.6102 -0.3949 -0.0360
16479SOL    HW150015   3.722   8.305   5.699  1.7207 -0.4941  1.0587
16479SOL    HW250016   3.777   8.170   5.738 -2.4302 -2.7430 -0.2616
16480SOL     OW50017   2.579   4.970   5.386 -0.1443 -0.2046  0.6276
16480SOL    HW150018   2.515   5.029   5.346  1.4186  0.2162 -1.4417
16480SOL    HW250019   2.591   5.005   5.474 -0.6637  1.4336  0.0891
16481SOL     OW50020   1.062   9.867   5.390  0.0543  0.2932 -0.6298
16481SOL    HW150021   0.998   9.839   5.324 -0.7692 -0.0950  0.3087
16481SOL    HW250022   1.047   9.961   5.400  0.9054  0.5746 -1.7360
16482SOL     OW50023   6.698   6.330   0.875 -0.1578 -0.1161 -0.1315
16482SOL    HW150024   6.648   6.255   0.842 -0.0878 -0.8992  1.4719
16482SOL    HW250025   6.682   6.399   0.811 -0.7884 -1.2831 -1.2809
16483SOL     OW50026   4.228   3.248   0.853  0.1336 -0.1003  0.4241
16483SOL    HW150027   4.253   3.298   0.930 -0.6841 -0.1077  0.7017
16483SOL    HW250028   4.237   3.309   0.780 -1.3503  0.6222  0.8198
16484SOL     OW50029   1.407   9.073   0.720  0.0702 -0.2680  0.1022
16484SOL    HW150030   1.472   9.087   0.651  0.8591 -0.3729  0.8088
16484SOL    HW250031   1.366   8.989   0.699 -0.1227 -0.0150 -0.5639
16485SOL     OW50032   7.141   3.247   2.285 -0.3170 -0.5185 -0.4432
16485SOL    HW150033   7.113   3.336   2.308  0.0628 -0.3207 -0.7261
16485SOL    HW250034   7.102   3.231   2.200 -0.8167 -0.8266 -0.1578
16486SOL     OW50035   0.700   6.593   6.660  0.5353 -0.6655  0.5078
16486SOL    HW150036   0.685   6.498   6.659 -1.0333 -0.5049 -2.3345
16486SOL    HW250037   0.777   6.605   6.604 -0.0305 -0.2158 -0.1950
16487SOL     OW50038   0.724   6.734   7.188  0.4066  0.5941  0.7461
16487SOL    HW150039   0.743   6.752   7.096  0.0006  0.4458  0.6326
16487SOL    HW250040   0.662   6.661   7.186  2.0278 -0.8654  1.1958
16488SOL     OW50041   9.864   4.311   5.818 -0.0086 -0.0736 -0.0849
16488SOL    HW150042   9.914   4.324   5.898  1.9467 -0.5404 -1.1586
16488SOL    HW250043   9.860   4.397   5.777 -0.5665  0.0639  0.2430
16489SOL     OW50044   1.437   1.856   3.378 -0.4575  0.3976  0.1551
16489SOL    HW150045   1.463   1.766   3.399 -0.5356  0.2862 -0.2332
16489SOL    HW250046   1.515   1.895   3.338 -0.7159  0.2197 -0.5337
16490SOL     OW50047   3.878   4.188   9.017  0.2220 -0.4198 -0.7652
16490SOL    HW150048   3.923   4.167   9.099  0.1939  0.0197 -0.6335
16490SOL    HW250049   3.944   4.175   8.949  1.0223  1.6517 -0.4535
16491SOL     OW50050   8.341   5.650   1.171 -0.5496 -0.0680  0.0431
16491SOL    HW150051   8.281   5.588   1.130  1.8088 -2.1581 -0.4903
16491SOL    HW250052   8.386   5.692   1.098  0.6207 -0.6606  0.3869
16492SOL     OW50053   0.344   3.795   8.814  0.0369 -0.1943  0.2337
16492SOL    HW150054   0.399   3.856   8.766 -0.5270  0.6678  0.6463
16492SOL    HW250055   0.401   3.760   8.882 -0.2971  1.9633  1.7418
16493SOL     OW50056   0.670   2.693   6.269  0.3407  0.3974 -0.5477
16493SOL    HW150057   0.626   2.766   6.311 -0.1473  0.1804 -0.6770
16493SOL    HW250058   0.646   2.700   6.177 -0.7889 -0.6812 -0.3572
16494SOL     OW50059   8.438   0.586   2.516  0.2348  0.1916 -0.3753
16494SOL    HW150060   8.438   0.490   2.507  0.7774  0.1616 -0.1014
16494SOL    HW250061   8.507   0.615   2.456  0.7117  0.3373  0.2379
16495SOL     OW50062   0.124   8.156   4.762 -0.2091 -0.3928  0.6037
16495SOL    HW150063   0.059   8.189   4.700  2.1455 -0.1701 -1.9282
16495SOL    HW250064   0.126   8.062   4.747  1.8260 -0.1122 -1.3004
16496SOL     OW50065   1.033   3.111   7.234  0.6079  0.0534 -0.1613
16496SOL    HW150066   1.061   3.021   7.247  0.4447  0.0733  0.3477
16496SOL    HW250067   1.068   3.135   7.148  0.6890 -0.4771 -0.2794
16497SOL     OW50068   5.493   1.691   0.843  0.0359 -0.1861 -0.4606
16497SOL    HW150069   5.567   1.665   0.899 -0.3278 -2.1985 -0.8328
16497SOL    HW250070   5.510   1.647   0.760 -0.0739  1.7660 -1.5749
16498SOL     OW50071   3.332   9.073   6.067 -0.6443  0.7898  0.8529
16498SOL    HW150072   3.255   9.033   6.028  0.5010 -0.2687 -0.4479
16498SOL    HW250073   3.363   9.008   6.131  0.3434  0.2130 -0.1652
16499SOL     OW50074   4.058   0.384   3.176 -0.7064  0.2103 -0.1058
16499SOL    HW150075   4.068   0.462   3.122  2.2092  0.5790  0.7895
16499SOL    HW250076   4.045   0.313   3.113 -1.3388  1.1090 -1.0258
16500SOL     OW50077   1.205   3.152   3.078 -0.1035 -0.6570  0.3082
16500SOL    HW150078   1.198   3.211   3.153  0.7830 -1.0703  0.7224
16500SOL    HW250079   1.144   3.081   3.098  0.1116 -0.7537  0.6302
16501SOL     OW50080   8.243   1.000   5.062 -0.1760  1.1308 -0.3131
16501SOL    HW150081   8.333   1.026   5.042 -0.5526  2.5457 -0.2872
16501SOL    HW250082   8.189   1.066   5.019 -1.2719 -0.3897 -1.4003
16502SOL     OW50083   8.894   1.997   8.703 -0.3538 -0.1108  0.7224
16502SOL    HW150084   8.908   2.087   8.672 -0.0534 -0.3485  0.1619
16502SOL    HW250085   8.963   1.983   8.768  1.6398 -1.0003 -1.4411
16503SOL     OW50086   1.506   2.637   1.067  0.0553 -0.0188  0.0122
16503SOL    HW150087   1.458   2.666   1.144 -3.2682 -2.1823 -1.0218
16503SOL    HW250088   1.441   2.593   1.012  3.0687 -2.5129 -2.0077
16504SOL     OW50089   6.333   1.959   9.358 -0.3944  0.3150 -0.5763
16504SOL    HW150090   6.266   2.026   9.374  0.9007  1.2208  1.6549
16504SOL    HW250091   6.394   2.000   9.297  0.2437  1.1215  0.5650
16505SOL     OW50092   5.003   6.755   2.228  0.0419 -0.0909  0.4709
16505SOL    HW150093   4.970   6.679   2.180  0.7034 -0.6760  0.9281
16505SOL    HW250094   5.026   6.721   2.314  2.4788  0.1048 -0.0153
16506SOL     OW50095   4.176   3.098   1.344 -0.7681 -0.1281 -0.6142
16506SOL    HW150096   4.142   3.013   1.315 -1.2045  0.2602 -1.2747
16506SOL    HW250097   4.155   3.101   1.437 -0.0364 -1.0774 -0.4013
16507SOL     OW50098   7.411   9.585   4.872  0.4468 -0.5713 -0.1125
16507SOL    HW150099   7.504   9.602   4.889  0.8147 -1.0069 -1.5652
16507SOL    HW250100   7.383   9.531   4.946  1.0032  0.6038  0.9939
16508SOL     OW50101   6.734   4.629   3.782  0.0579 -0.1906 -0.8639
16508SOL    HW150102   6.670   4.567   3.747  0.7288 -2.2473  1.2574
16508SOL    HW250103   6.788   4.652   3.707 -1.2843 -0.7959 -2.0741
16509SOL     OW50104   5.229   8.520   1.476 -0.3751  0.2099  0.1811
16509SOL    HW150105   5.264   8.551   1.392 -0.7674 -0.0956 -0.1009
16509SOL    HW250106   5.201   8.599   1.522  0.3312  0.4285  0.2506
16510SOL     OW50107   2.569   4.790   6.376 -0.4620 -0.1549  0.7761
16510SOL    HW150108   2.501   4.724   6.364  0.6933 -1.2917  0.2837
16510SOL    HW250109   2.594   4.815   6.287  0.0902 -0.0972  0.9446
16511SOL     OW50110   1.478   0.723   0.966 -0.2257  0.8946  0.2485
16511SOL    HW150111   1.567   0.741   0.999  0.8359 -2.3844 -0.4858
16511SOL    HW250112   1.429   0.697   1.044  0.2691  0.0471  0.2905
16512SOL     OW50113   9.884   4.855   9.070  0.7622  0.2599 -0.1923
16512SOL    HW150114   9.863   4.947   9.052  1.5274  0.2301 -1.3872
16512SOL    HW250115   9.969   4.858   9.114  0.8575  0.1234 -0.3647
16513SOL     OW50116   6.372   0.055   0.026  0.2914 -0.1805 -0.0064
16513SOL    HW150117   6.403   0.013   0.106  1.4804  1.2144  0.3075
16513SOL    HW250118   6.291   0.099   0.051  0.7200  0.3488  0.4771
16514SOL     OW50119   3.252   5.747   2.657 -0.0012 -0.3987  0.1784
16514SOL    HW150120   3.306   5.818   2.693  0.0951  0.0351 -0.8124
16514SOL    HW250121   3.310   5.701   2.596 -0.3895 -0.6710  0.0111
16515SOL     OW50122   6.332   0.561   5.238  0.4921  0.0811  0.5157
16515SOL    HW150123   6.399   0.518   5.291  0.7197 -0.2901 -0.0649
16515SOL    HW250124   6.360   0.653   5.233  1.1052 -0.1231  0.0623
16516SOL     OW50125   8.889   8.779   2.218 -0.1353 -0.2207 -0.4152
16516SOL    HW150126   8.861   8.836   2.289 -0.6149  0.4242 -1.0957
16516SOL    HW250127   8.870   8.690   2.248 -1.4636  0.1127 -0.2205
16517SOL     OW50128   8.178   9.591   9.785 -0.1133 -0.5458  0.3727
16517SOL    HW150129   8.247   9.549   9.836 -0.4298  0.9000  2.1028
16517SOL    HW250130   8.096   9.565   9.828 -0.8191 -2.8102 -2.0707
16518SOL     OW50131   9.381   2.073   1.578 -0.6031  0.4939  0.5024
16518SOL    HW150132   9.297   2.119   1.581 -0.6067  0.6799 -1.4519
16518SOL    HW250133   9.359   1.981   1.589 -0.8583  0.6839  1.7500
16519SOL     OW50134   1.560   0.364   5.788 -0.2224 -0.2854  0.6409
16519SOL    HW150135   1.592   0.389   5.701 -1.1282  1.1937  0.6912
16519SOL    HW250136   1.585   0.272   5.797 -0.5360 -0.6402 -1.3922
16520SOL     OW50137   8.049   0.034   2.965 -0.1390  0.0202  0.0869
16520SOL    HW150138   8.053   0.074   3.052 -0.5697 -0.1902  0.2057
16520SOL    HW250139   7.956   0.024   2.947 -0.0462 -1.2219  0.2035
16521SOL     OW50140   4.317   9.034   8.791 -0.1962  0.2544 -0.3174
16521SOL    HW150141   4.290   9.022   8.700  0.4074  1.0484 -0.6186
16521SOL    HW250142   4.410   9.055   8.785 -0.2105  0.5668  0.4618
16522SOL     OW50143   9.670   7.196   7.345  0.6356 -0.0004 -0.4630
16522SOL    HW150144   9.654   7.277   7.394 -0.7175 -0.1406 -0.6120
16522SOL    HW250145   9.737   7.150   7.395  1.2012  1.0645 -0.2075
16523SOL     OW50146   8.334   4.574   2.266  0.2165 -0.1420 -0.0795
16523SOL    HW150147   8.264   4.521   2.305 -0.7257  1.3721  0.3988
16523SOL    HW250148   8.414   4.540   2.303 -0.1248 -2.5850 -1.3845
16524SOL     OW50149   1.744   7.068   1.788 -0.6651  0.0702 -0.2934
16524SOL    HW150150   1.794   7.014   1.849  1.0889  2.2136  0.3168
16524SOL    HW250151   1.665   7.018   1.770 -0.6520 -1.2371  2.7085
16525SOL     OW50152   3.699   5.577   6.429  0.8716  0.3608 -0.5163
16525SOL    HW150153   3.697   5.597   6.523  1.5800  2.2453 -0.8601
16525SOL    HW250154   3.792   5.570   6.408  0.7313  0.3084 -1.1433
16526SOL     OW50155   7.479   9.595   4.574 -0.8487 -0.0334  0.4090
16526SOL    HW150156   7.437   9.633   4.651 -1.0217 -0.8294  0.7212
16526SOL    HW250157   7.455   9.653   4.502 -0.5558  0.8121  0.9717
16527SOL     OW50158   9.535   8.744   5.297  0.1574  0.3005  0.0333
16527SOL    HW150159   9.589   8.666   5.306 -0.8045 -0.5749 -1.2098
16527SOL    HW250160   9.559   8.779   5.211 -0.7662  0.2589 -0.2511
16528SOL     OW50161   4.460   1.402   9.002  0.3588 -0.1403  0.5286
16528SOL    HW150162   4.375   1.389   8.961  0.4207 -1.6762  0.8144
16528SOL    HW250163   4.446   1.380   9.094  1.3174 -1.7144  0.3357
16529SOL     OW50164   6.215   1.568   2.713 -0.0761 -0.1595  0.4746
16529SOL    HW150165   6.191   1.487   2.666  0.7806  0.6195 -1.4327
16529SOL    HW250166   6.177   1.558   2.800 -0.9101 -2.1438 -0.0648
16530SOL     OW50167   8.311   5.841   6.571  0.9996 -0.5213 -0.0100
16530SOL    HW150168   8.290   5.915   6.513 -0.0953 -0.6646  0.1864
16530SOL    HW250169   8.279   5.764   6.525  0.5506 -0.6861  0.5612
16531SOL     OW50170   0.224   3.019   0.773  0.0257  0.2518 -0.3015
16531SOL    HW150171   0.181   2.959   0.712  1.2459 -0.9274 -0.0542
16531SOL    HW250172   0.266   3.084   0.717 -0.4774  0.2984 -0.6266
16532SOL     OW50173   2.625   6.786   9.715 -0.5131  0.0184  0.0856
16532SOL    HW150174   2.695   6.725   9.691 -1.5037 -1.5981  1.0752
16532SOL    HW250175   2.586   6.747   9.794 -1.0617  2.0675  0.8882
16533SOL     OW50176   7.671   2.378   1.248  0.1773  0.1573  0.2124
16533SOL    HW150177   7.750   2.336   1.283 -0.0213  1.0013  1.7377
16533SOL    HW250178   7.599   2.320   1.275  0.0676  0.5819  0.8603
16534SOL     OW50179   7.257   4.216   3.496 -0.2023 -0.3839  0.2909
16534SOL    HW150180   7.212   4.237   3.578 -0.5442  0.8843 -0.2042
16534SOL    HW250181   7.302   4.297   3.472 -0.8688 -0.4564 -1.2599
16535SOL     OW50182   0.504   3.014   2.725  0.8400  0.0875 -0.0133
16535SOL    HW150183   0.413   3.014   2.756  0.5547  2.9032 -0.5356
16535SOL    HW250184   0.497   3.001   2.631  1.0065 -0.1815  0.0130
16536SOL     OW50185   5.069   8.541   7.145  0.3065 -0.3005  0.2550
16536SOL    HW150186   5.020   8.505   7.070  1.1582  2.4850 -1.7872
16536SOL    HW250187   5.017   8.616   7.174 -0.0937 -1.4171  2.6962
16537SOL     OW50188   3.113   9.936   1.107  0.1297  0.1130  0.6220
16537SOL    HW150189   3.159  10.015   1.135  0.6151  0.4146 -0.8991
16537SOL    HW250190   3.098   9.949   1.013  0.9403 -1.9346  0.1396
16538SOL     OW50191   0.831   6.042   1.800 -0.0035 -0.3540 -0.4704
16538SOL    HW150192   0.888   6.042   1.723 -1.6684 -2.4270 -1.7984
16538SOL    HW250193   0.885   6.008   1.870  1.3569  0.9661 -0.8126
16539SOL     OW50194   7.032   6.125   6.926  0.5822 -0.1894 -0.0793
16539SOL    HW150195   7.019   6.190   6.995 -1.1266  0.5086 -1.0022
16539SOL    HW250196   6.972   6.054   6.949 -0.3878  0.2809 -1.0972
16540SOL     OW50197   5.304   8.111   8.076  0.2434 -0.0831 -1.2976
16540SOL    HW150198   5.220   8.073   8.049 -0.7167  0.9252  0.1299
16540SOL    HW250199   5.370   8.052   8.040 -1.1416 -2.3922 -0.2330
16541SOL     OW50200   8.614   1.658   1.926  0.3145 -0.0343  0.2055
16541SOL    HW150201   8.705   1.660   1.955  0.0677  0.4277  0.9696
16541SOL    HW250202   8.592   1.565   1.924  1.8325 -0.4878 -3.4061
16542SOL     OW50203   6.360   4.922   0.440  0.0558 -0.0054  0.0845
16542SOL    HW150204   6.345   5.016   0.454 -2.9540 -0.3854  0.0866
16542SOL    HW250205   6.455   4.912   0.448  0.4842  3.0051  0.1753
16543SOL     OW50206   8.625   7.590   9.865  0.0037  0.2203 -0.3274
16543SOL    HW150207   8.714   7.617   9.888 -0.3852  0.4494  0.9975
16543SOL    HW250208   8.593   7.660   9.807  0.5687  0.2917 -0.5614
16544SOL     OW50209   5.577   0.638   8.330  0.1167  0.3524  0.3585
16544SOL    HW150210   5.555   0.603   8.417  0.9280  0.4899  0.6303
16544SOL    HW250211   5.663   0.678   8.342 -0.1070  1.0520 -0.3316
16545SOL     OW50212   5.131   1.424   6.968 -0.1449 -0.7152  0.1390
16545SOL    HW150213   5.224   1.405   6.982 -0.3532 -1.3625  0.7316
16545SOL    HW250214   5.089   1.394   7.049 -0.8053  0.0528  0.0827
16546SOL     OW50215   3.652   7.002   6.243  0.0466  0.2012 -0.2365
16546SOL    HW150216   3.654   6.960   6.329  0.3925 -2.3286 -1.3693
16546SOL    HW250217   3.744   7.007   6.217 -0.1517 -1.7221 -1.5612
16547SOL     OW50218   9.553   6.184   6.896  0.1217 -0.0443  0.4442
16547SOL    HW150219   9.642   6.220   6.893 -0.3626  1.2143  0.5023
16547SOL    HW250220   9.549   6.138   6.980  1.0621 -1.1039 -0.0593
16548SOL     OW50221   2.924   0.311   8.844 -0.2183 -0.1513  0.1978
16548SOL    HW150222   2.863   0.275   8.907 -0.1171 -1.5426 -0.4562
16548SOL    HW250223   2.942   0.239   8.783  1.2343  0.5332 -0.2512
16549SOL     OW50224   6.129   9.703   1.071 -0.0649 -0.2965  0.1311
16549SOL    HW150225   6.045   9.720   1.027 -0.8037 -1.4386  1.0257
16549SOL    HW250226   6.104   9.669   1.157  1.3303 -0.5429  0.4555
16550SOL     OW50227   4.058   2.678   3.451  0.4765 -0.3979  0.2837
16550SOL    HW150228   4.037   2.603   3.396 -1.4306  0.0714  0.2842
16550SOL    HW250229   3.995   2.745   3.425  1.9098  1.1141  0.5094
16551SOL     OW50230   9.819   5.578   4.127 -0.3398  0.1338  0.1282
16551SOL    HW150231   9.778   5.629   4.197 -0.7579  0.5643 -0.4232
16551SOL    HW250232   9.900   5.625   4.107 -0.1472 -0.0679  0.4062
16552SOL     OW50233   8.733   2.318   8.242 -0.4434 -0.4183 -0.5653
16552SOL    HW150234   8.741   2.373   8.319  1.8030 -1.4992  0.0688
16552SOL    HW250235   8.670   2.251   8.266 -0.4675 -0.2027 -0.0265
16553SOL     OW50236   8.807   3.371   1.270  0.0539  0.0407  0.5397
16553SOL    HW150237   8.775   3.335   1.353 -0.5525 -2.1758 -0.5610
16553SOL    HW250238   8.737   3.429   1.240 -1.3523 -1.8324 -0.0161
16554SOL     OW50239   3.121   1.420   9.877 -0.2555 -0.4121 -0.1921
16554SOL    HW150240   3.112   1.344   9.820  1.4021 -0.4907 -0.4031
16554SOL    HW250241   3.145   1.384   9.963 -0.7105 -0.1823  0.0387
16555SOL     OW50242   4.588   8.966   4.871  0.2006 -0.1756  0.0298
16555SOL    HW150243   4.589   9.034   4.804 -0.0816 -0.6672 -0.4834
16555SOL    HW250244   4.503   8.923   4.862 -0.7248  1.0603  2.0653
16556SOL     OW50245   5.035   9.500   9.186 -0.1132 -0.1849  0.3105
16556SOL    HW150246   4.980   9.545   9.121 -1.0811  0.5570  1.6082
16556SOL    HW250247   5.095   9.568   9.218  1.6345 -0.9750 -1.0749
16557SOL     OW50248   6.121   1.527   8.570  0.6285  0.6389  0.7067
16557SOL    HW150249   6.039   1.478   8.580  0.2239  1.1612  0.0478
16557SOL    HW250250   6.101   1.594   8.505  1.3556  1.2823  1.1274
16558SOL     OW50251   2.269   9.174   1.099  0.0957  0.0947 -0.0634
16558SOL    HW150252   2.319   9.092   1.097  0.3448  0.2595 -0.9891
16558SOL    HW250253   2.294   9.215   1.182  0.0769 -0.6943  0.3456
16559SOL     OW50254   7.942   2.367   9.067 -0.5660  0.0766 -0.0961
16559SOL    HW150255   7.904   2.340   9.150 -0.5674  0.2696 -0.0326
16559SOL    HW250256   8.008   2.432   9.091  0.4200 -0.8787 -0.1278
16560SOL     OW50257   4.560   2.857   6.261  0.6198 -0.1260 -0.0305
16560SOL    HW150258   4.487   2.798   6.248  0.4465  0.2626 -0.8908
16560SOL    HW250259   4.612   2.817   6.330  0.4098 -1.1910 -0.4778
16561SOL     OW50260   6.527   4.665   4.982  0.6667  0.2795 -0.2228
16561SOL    HW150261   6.560   4.622   4.903 -1.0987 -1.4661 -0.0905
16561SOL    HW250262   6.488   4.594   5.033 -0.5155  1.7546  1.0124
16562SOL     OW50263   6.781   2.659   5.075 -0.3929 -0.1312  0.2244
16562SOL    HW150264   6.797   2.596   5.004 -1.0504 -0.7878  0.6515
16562SOL    HW250265   6.868   2.686   5.103 -0.0871 -1.2459  0.3859
16563SOL     OW50266   0.507   1.066   3.952  0.1179 -0.4872  0.2315
16563SOL    HW150267   0.546   1.087   4.037 -1.2540 -1.0877  1.0568
16563SOL    HW250268   0.461   0.983   3.967  0.2692 -0.8569 -1.2515
16564SOL     OW50269   2.348   6.782   2.525 -0.5900  0.0568  0.5748
16564SOL    HW150270   2.328   6.774   2.432 -1.5976  0.4539  0.7474
16564SOL    HW250271   2.356   6.691   2.555 -1.4250 -0.0980  0.3403
16565SOL     OW50272   5.967   3.310   0.447  0.1146  0.5050  0.8715
16565SOL    HW150273   6.035   3.341   0.387 -1.0891  1.6079  0.0255
16565SOL    HW250274   6.011   3.308   0.533  1.2040  1.2255  0.3609
16566SOL     OW50275   4.623   4.127   2.585 -0.3207 -0.6933  0.4506
16566SOL    HW150276   4.540   4.089   2.615  0.3033 -2.8551 -0.3677
16566SOL    HW250277   4.681   4.052   2.576  1.5584  0.7117  0.4062
16567SOL     OW50278   1.352   7.015   4.336  0.0925 -0.1588  0.1158
16567SOL    HW150279   1.308   6.961   4.402 -0.8349  0.2372 -0.1615
16567SOL    HW250280   1.442   6.984   4.336 -0.5570 -2.2452 -0.5632
16568SOL     OW50281   5.751   4.431   0.573 -0.6974 -0.1542  0.2140
16568SOL    HW150282   5.664   4.450   0.537  0.0054 -1.1177 -2.1773
16568SOL    HW250283   5.804   4.507   0.547 -0.0552 -1.0992 -1.3871
16569SOL     OW50284   7.255   2.296   8.566  0.1343  0.1756 -0.8641
16569SOL    HW150285   7.176   2.270   8.614  1.6604 -1.2044  1.0668
16569SOL    HW250286   7.252   2.243   8.487 -0.0198 -1.2053  0.0279
16570SOL     OW50287   8.005   2.629   6.735  0.0376 -0.6214  0.5287
16570SOL    HW150288   8.013   2.720   6.764 -0.5257 -0.6931  0.9240
16570SOL    HW250289   8.087   2.588   6.762 -0.1151 -0.4671  1.2502
16571SOL     OW50290   1.502   5.397   3.881  0.5669  0.0428  0.3382
16571SOL    HW150291   1.448   5.473   3.858  1.9650  0.8603 -0.3775
16571SOL    HW250292   1.583   5.435   3.915  1.5151 -1.1094 -0.5456
16572SOL     OW50293   6.326   2.588   5.783 -0.0345 -0.4330 -0.3997
16572SOL    HW150294   6.285   2.571   5.698  1.9639 -2.3246 -1.0804
16572SOL    HW250295   6.356   2.502   5.813 -0.5545  0.1971  2.2085
16573SOL     OW50296   9.316   2.540   3.333 -0.1525  0.2213  0.5284
16573SOL    HW150297   9.342   2.478   3.264  0.2121 -0.6636  1.4256
16573SOL    HW250298   9.252   2.597   3.291 -0.9212 -1.1080 -0.1993
16574SOL     OW50299   5.749   3.608   7.622 -0.0851 -0.2793 -0.4449
16574SOL    HW150300   5.704   3.655   7.693 -0.2425 -0.3834 -0.4755
16574SOL    HW250301   5.832   3.581   7.661  0.1217  0.2471 -0.5056
16575SOL     OW50302   6.165   0.249   4.886  0.0624 -0.4576 -0.4681
16575SOL    HW150303   6.200   0.228   4.973 -1.3144  0.6589  0.3943
16575SOL    HW250304   6.071   0.238   4.895 -0.2574  1.3121 -1.3093
16576SOL     OW50305   9.790   5.968   4.049 -0.0458  0.6509  0.1517
16576SOL    HW150306   9.767   5.908   4.120 -0.1580  0.5195  0.0067
16576SOL    HW250307   9.867   6.015   4.081  1.2541 -0.9411 -0.5019
16577SOL     OW50308   8.328   2.207   3.375  0.9248  0.1227  0.0801
16577SOL    HW150309   8.395   2.273   3.361  0.3935  0.4283 -1.1249
16577SOL    HW250310   8.345   2.140   3.309  1.0820 -0.6660  0.8874
16578SOL     OW50311   0.249   8.257   7.827 -0.1343  0.3052  0.8016
16578SOL    HW150312   0.251   8.260   7.731 -2.1307 -0.7805  0.6837
16578SOL    HW250313   0.195   8.332   7.852 -0.6585 -0.1251  0.9872
16579SOL     OW50314   5.050   0.754   1.777  0.3832 -0.2010  0.4354
16579SOL    HW150315   5.099   0.824   1.734  0.0021  0.3150  0.8333
16579SOL    HW250316   5.117   0.696   1.813  0.7467  1.0417  1.8698
16580SOL     OW50317   6.759   9.157   2.309 -0.6684 -0.3818 -0.7329
16580SOL    HW150318   6.845   9.133   2.343 -0.4639 -0.0167 -0.9845
16580SOL    HW250319   6.757   9.119   2.220 -1.6596 -2.3751  0.0602
16581SOL     OW50320   7.034   4.710   3.269  0.2088  0.2857  0.1352
16581SOL    HW150321   6.991   4.776   3.214 -0.8450 -0.9670 -0.6084
16581SOL    HW250322   7.036   4.749   3.356 -2.7330  0.3798  0.2877
16582SOL     OW50323   0.536   9.717   7.577 -0.3053 -0.7104  0.0694
16582SOL    HW150324   0.615   9.667   7.601 -1.0368 -1.8852  0.1018
16582SOL    HW250325   0.566   9.777   7.509  1.1267  0.5098  1.6974
16583SOL     OW50326   3.014   3.583   4.614 -0.1169  0.3630 -0.3639
16583SOL    HW150327   3.012   3.628   4.530  1.4804  0.8299 -0.1961
16583SOL    HW250328   3.016   3.653   4.679 -0.7658  0.0160  0.0381
16584SOL     OW50329   6.305   0.627   0.500 -0.1170  0.4221  0.2296
16584SOL    HW150330   6.347   0.712   0.513  0.7678  0.1067 -0.4451
16584SOL    HW250331   6.358   0.567   0.552 -0.4685  0.2143  0.3442
16585SOL     OW50332   1.848   5.292   0.982  0.2873 -0.6384  0.1527
16585SOL    HW150333   1.761   5.280   0.943 -0.5169  0.9035  1.3613
16585SOL    HW250334   1.870   5.383   0.962  2.1976 -1.3202 -1.1542
16586SOL     OW50335   7.151   7.183   9.389 -0.0761 -0.1457 -0.3177
16586SOL    HW150336   7.217   7.215   9.451 -1.0954  0.4136  0.5219
16586SOL    HW250337   7.112   7.263   9.352 -1.2330 -0.4288  0.2528
16587SOL     OW50338   2.841   1.018   5.894 -0.5041 -0.4850 -0.4957
16587SOL    HW150339   2.773   1.027   5.960 -1.4354 -2.0374 -1.1871
16587SOL    HW250340   2.920   1.053   5.936 -0.8644 -2.1851  1.7726
16588SOL     OW50341   8.615   5.399   0.024 -0.4545  0.1407 -0.1672
16588SOL    HW150342   8.683   5.465   0.033 -0.2445 -0.1062  0.0703
16588SOL    HW250343   8.540   5.446  -0.012 -0.0605  0.3470 -0.7240
16589SOL     OW50344   1.012   9.833   8.881  0.0956 -0.0669  0.3983
16589SOL    HW150345   0.988   9.926   8.882  0.9060  0.1636 -0.5535
16589SOL    HW250346   0.971   9.797   8.960 -0.9436  0.9125  0.3214
16590SOL     OW50347   1.474   6.484   2.284 -0.0708  0.1793  0.1790
16590SOL    HW150348   1.391   6.528   2.301 -1.5195 -1.3539 -2.2849
16590SOL    HW250349   1.498   6.445   2.369 -0.6535  2.4805  1.4795
16591SOL     OW50350   7.841   7.539   7.611 -0.1563 -0.1737  0.5830
16591SOL    HW150351   7.789   7.607   7.654  1.0219  0.3357  1.2486
16591SOL    HW250352   7.921   7.533   7.664  0.3067 -1.1901 -0.2025
16592SOL     OW50353   1.614   6.603   9.000  0.7653  0.4919  0.1166
16592SOL    HW150354   1.599   6.604   8.906  1.2456  0.1804  0.0352
16592SOL    HW250355   1.709   6.599   9.010  0.7315  0.7604  0.6155
16593SOL     OW50356   3.830   5.504   0.664  0.3122  0.5244 -0.5917
16593SOL    HW150357   3.840   5.418   0.704 -1.2037  0.5323 -0.1297
16593SOL    HW250358   3.855   5.566   0.732  0.6458  0.4655 -0.6619
16594SOL     OW50359   6.059   2.342   8.003 -0.0805  0.4129 -0.6440
16594SOL    HW150360   6.126   2.292   7.956  0.4627 -0.4358  0.9435
16594SOL    HW250361   6.074   2.321   8.095 -1.2169  1.8624 -0.0849
16595SOL     OW50362   4.819   2.119   4.430 -0.2871  0.1571 -0.2595
16595SOL    HW150363   4.739   2.066   4.422 -2.5520  3.1362  0.9223
16595SOL    HW250364   4.819   2.174   4.351  2.3144 -1.7408 -1.7375
16596SOL     OW50365   9.626   8.030   3.490 -0.6199 -0.2106 -0.0508
16596SOL    HW150366   9.720   8.012   3.497 -0.6940 -1.0716 -0.9893
16596SOL    HW250367   9.592   7.955   3.441 -1.7963  0.1069  0.2713
16597SOL     OW50368   8.795   6.117   0.272 -0.0929 -0.1303  0.1690
16597SOL    HW150369   8.814   6.182   0.340 -0.1255  0.5536 -0.4676
16597SOL    HW250370   8.868   6.124   0.211 -1.6020  1.5397 -1.5662
16598SOL     OW50371   6.391   9.075   0.655  0.5678 -0.6243 -0.1879
16598SOL    HW150372   6.364   9.162   0.684 -0.7140 -1.3153  0.7927
16598SOL    HW250373   6.477   9.062   0.696  0.6224  0.0302 -0.0739
16599SOL     OW50374   8.144   2.567   8.573 -0.6516 -0.0110  0.0276
16599SOL    HW150375   8.100   2.522   8.645 -0.8485 -1.6883 -1.0834
16599SOL    HW250376   8.072   2.606   8.522 -0.7612 -1.2547 -0.8096
16600SOL     OW50377   0.912   7.509   4.358 -0.5485 -0.5086  0.4053
16600SOL    HW150378   0.834   7.560   4.338 -0.5806 -1.0097 -0.8548
16600SOL    HW250379   0.978   7.574   4.383 -0.9195  0.0507 -0.0513
16601SOL     OW50380   4.178   5.932   6.607  0.1358 -0.4429  0.0110
16601SOL    HW150381   4.135   5.949   6.691  0.9526  1.7221  0.0430
16601SOL    HW250382   4.233   5.855   6.623 -0.6153 -0.7776  1.0998
16602SOL     OW50383   2.228   6.046   6.371  0.1008 -0.6326 -0.1767
16602SOL    HW150384   2.194   6.104   6.303  1.0254  1.0024  0.7081
16602SOL    HW250385   2.156   5.985   6.388 -1.0981  0.5612 -0.7863
16603SOL     OW50386   2.269   7.228   7.937 -0.5464 -0.4842  0.3021
16603SOL    HW150387   2.329   7.154   7.935 -1.8087 -1.5748  1.1487
16603SOL    HW250388   2.318   7.299   7.896  0.7620 -1.7293 -0.4141
16604SOL     OW50389   1.762   9.724   6.057  0.0211  0.2508  0.0665
16604SOL    HW150390   1.722   9.757   5.977  1.0681 -0.1818 -0.6444
16604SOL    HW250391   1.791   9.636   6.035 -0.7339 -0.3309  1.2833
16605SOL     OW50392   2.613   6.622   2.024  0.0186 -0.0482  0.4616
16605SOL    HW150393   2.599   6.716   2.024 -0.5903 -0.1286  0.0871
16605SOL    HW250394   2.626   6.599   2.116 -1.0525  0.2353  0.6934
16606SOL     OW50395   8.263   0.354   6.332  0.1258 -0.2997  0.6821
16606SOL    HW150396   8.245   0.408   6.409  0.4740  1.4686 -0.4277
16606SOL    HW250397   8.195   0.379   6.269 -1.0563 -2.7765  0.8454
16607SOL     OW50398   4.716   9.172   0.550 -0.2627 -0.1883  0.1770
16607SOL    HW150399   4.677   9.133   0.627 -0.5331 -0.1493  0.0608
16607SOL    HW250400   4.781   9.234   0.584  0.4223 -0.9980  0.3546
16608SOL     OW50401   2.966   8.180   6.656 -0.1656 -0.2580  0.1550
16608SOL    HW150402   3.011   8.111   6.705 -0.7236  0.2545  1.4485
16608SOL    HW250403   3.036   8.240   6.630  0.2760 -1.1058 -0.6559
16609SOL     OW50404   3.047   8.540   7.232 -0.2019 -0.3113 -0.2925
16609SOL    HW150405   3.136   8.564   7.206  0.2431 -1.8541 -0.3248
16609SOL    HW250406   3.049   8.444   7.237 -0.8614 -0.2761  3.2589
16610SOL     OW50407   4.265   4.686   4.157  0.1793 -0.6321  0.4516
16610SOL    HW150408   4.349   4.666   4.116  1.3035 -0.0563  2.3377
16610SOL    HW250409   4.287   4.734   4.237 -1.8480 -1.6078  1.7164
16611SOL     OW50410   1.991   9.816   9.792 -0.3751 -0.2409  0.5432
16611SOL    HW150411   1.963   9.802   9.882  0.8581 -1.5216  0.7613
16611SOL    HW250412   2.041   9.897   9.795 -0.3562 -0.2658  0.9966
16612SOL     OW50413   2.308   5.476   3.670  0.1487 -0.0569  0.3500
16612SOL    HW150414   2.258   5.490   3.750  0.3125  0.0826  0.4295
16612SOL    HW250415   2.372   5.548   3.669 -0.4012  0.4395 -0.3355
16613SOL     OW50416   9.558   9.401   9.394  0.2007 -0.5094  0.4336
16613SOL    HW150417   9.613   9.441   9.328 -0.2660 -0.7625 -0.1204
16613SOL    HW250418   9.471   9.439   9.380 -0.6094 -2.7312 -1.0674
16614SOL     OW50419   6.708   0.969   2.386 -0.2871  0.4441  0.3234
16614SOL    HW150420   6.622   0.945   2.422 -0.3959 -0.7132 -0.6329
16614SOL    HW250421   6.769   0.906   2.424 -0.5154 -1.2925 -1.9315
16615SOL     OW50422   0.973   0.279   7.475  0.2579  0.0726  0.4238
16615SOL    HW150423   0.932   0.195   7.453  2.3987 -1.1654  0.9623
16615SOL    HW250424   0.905   0.327   7.522 -0.9440 -1.4343  0.2992
16616SOL     OW50425   8.946   7.499   0.262 -0.6300  0.2464 -0.0335
16616SOL    HW150426   8.987   7.583   0.283 -1.7188  0.8633 -0.2981
16616SOL    HW250427   8.947   7.450   0.344 -0.2174  0.6179  0.1846
16617SOL     OW50428   6.552   5.658   7.499 -0.4797 -0.3128 -0.4631
16617SOL    HW150429   6.636   5.646   7.453  0.4556  0.6689  0.8907
16617SOL    HW250430   6.509   5.573   7.494  2.4205 -2.1762  2.2312
16618SOL     OW50431   5.737   5.747   0.150  0.1545 -0.0753 -0.2275
16618SOL    HW150432   5.708   5.716   0.064  1.5014 -1.0552 -0.3778
16618SOL    HW250433   5.701   5.684   0.212 -0.7797  0.6058 -0.0691
16619SOL     OW50434   3.879   8.819   3.926  0.8838  0.2493 -0.2062
16619SOL    HW150435   3.951   8.763   3.955 -0.8398 -1.3827  1.2336
16619SOL    HW250436   3.859   8.874   4.002 -0.6583 -0.7796  0.1925
16620SOL     OW50437   0.052   9.039   1.785  0.4241  0.4440  0.2026
16620SOL    HW150438   0.097   9.022   1.702  2.1257  0.4061  1.0813
16620SOL    HW250439   0.099   9.113   1.823 -1.8537  2.0640  0.0761
16621SOL     OW50440   1.070   6.650   1.352 -0.8512 -0.1629 -0.1005
16621SOL    HW150441   1.044   6.616   1.266  0.6899 -0.1246 -0.6313
16621SOL    HW250442   1.124   6.726   1.332 -1.8672  0.8849  0.9886
16622SOL     OW50443   6.476   7.658   8.512 -0.1757 -0.2173  0.2035
16622SOL    HW150444   6.401   7.706   8.548  0.1160  1.1576 -0.9406
16622SOL    HW250445   6.500   7.597   8.581 -1.7589 -0.0290  0.9671
16623SOL     OW50446   7.529   4.919   9.743  0.0242 -0.2437  0.3466
16623SOL    HW150447   7.582   4.860   9.689 -1.6441 -0.0254 -1.6988
16623SOL    HW250448   7.477   4.860   9.798  1.2179 -0.4984  1.2434
16624SOL     OW50449   1.612   2.366   7.227 -0.3627 -0.2527  0.1559
16624SOL    HW150450   1.665   2.425   7.174  0.2881  1.2807  2.3873
16624SOL    HW250451   1.644   2.279   7.205 -0.2253  0.2789 -2.0261
16625SOL     OW50452   0.164   9.459   8.063 -0.6190 -0.3455  0.6593
16625SOL    HW150453   0.128   9.521   8.127  0.1755  0.3364  0.4654
16625SOL    HW250454   0.259   9.462   8.078 -0.3696  0.1586 -0.8243
16626SOL     OW50455   1.679   0.538   9.452 -0.1482  0.0733 -0.2687
16626SOL    HW150456   1.671   0.580   9.538  1.4924  1.5954 -0.7958
16626SOL    HW250457   1.628   0.458   9.460 -2.3020  1.4816  1.2491
16627SOL     OW50458   7.030   2.396   6.232  0.1152 -0.0497  0.0167
16627SOL    HW150459   6.942   2.363   6.213 -0.0550  0.0410  0.6338
16627SOL    HW250460   7.043   2.468   6.170  0.3586 -1.0422 -1.1253
16628SOL     OW50461   0.652   7.600   7.628  0.5582  0.5720 -0.3561
16628SOL    HW150462   0.717   7.540   7.663  0.4766  1.4438  1.3574
16628SOL    HW250463   0.684   7.620   7.540  2.5785  0.9225  0.4005
16629SOL     OW50464   5.608   3.673   5.926  0.1785  0.2337 -0.1057
16629SOL    HW150465   5.633   3.676   6.018  1.1062  0.2996 -0.3473
16629SOL    HW250466   5.598   3.580   5.906  3.5905 -0.1135 -0.8294
16630SOL     OW50467   9.102   1.224   7.347 -0.0762  0.0462  0.0409
16630SOL    HW150468   9.173   1.180   7.394 -0.0190 -0.1075 -0.1906
16630SOL    HW250469   9.031   1.161   7.345 -0.1608  0.1386  0.1235
16631SOL     OW50470   9.022   5.078   2.888  0.2758 -0.0634  0.0722
16631SOL    HW150471   9.086   5.010   2.909 -0.2933 -1.6223 -2.7456
16631SOL    HW250472   9.060   5.124   2.812 -0.3626  1.3466  0.5724
16632SOL     OW50473   0.709   2.434   1.766  0.0860  0.4307 -0.0995
16632SOL    HW150474   0.724   2.507   1.826 -0.4832  1.8525 -1.6055
16632SOL    HW250475   0.745   2.357   1.811  3.4142  2.0628  0.3222
16633SOL     OW50476   0.257   3.438   4.581 -0.2335  0.4888  0.4199
16633SOL    HW150477   0.273   3.529   4.605  1.6314  0.3036  0.0186
16633SOL    HW250478   0.247   3.440   4.485 -0.4316  0.2922  0.4353
16634SOL     OW50479   8.582   5.086   3.325 -0.0241  0.1200 -0.4999
16634SOL    HW150480   8.610   5.124   3.243  0.9403  1.0072  0.2169
16634SOL    HW250481   8.611   5.148   3.392  0.7595 -1.3900  0.6343
16635SOL     OW50482   7.733   1.586   1.435  0.3921 -0.0430 -0.1254
16635SOL    HW150483   7.644   1.622   1.443  0.9145  0.9288  2.1247
16635SOL    HW250484   7.748   1.542   1.519  1.5183 -1.4930 -1.0587
16636SOL     OW50485   0.125   6.095   3.156  0.0357 -0.1986  0.3072
16636SOL    HW150486   0.165   6.026   3.103  0.8842 -0.5859  1.3900
16636SOL    HW250487   0.035   6.068   3.168  0.0280 -0.4658 -0.3317
16637SOL     OW50488   8.124   9.432   0.107 -0.1602  0.3619 -0.4405
16637SOL    HW150489   8.122   9.366   0.177  0.2774  0.3766 -0.4074
16637SOL    HW250490   8.046   9.414   0.055 -0.0577 -0.1810 -0.4227
16638SOL     OW50491   2.737   0.956   6.964 -0.0678  0.0878 -0.0111
16638SOL    HW150492   2.787   0.875   6.969 -0.7176 -0.3019  0.2375
16638SOL    HW250493   2.680   0.946   6.888  0.2633  0.5528 -0.3277
16639SOL     OW50494   1.740   8.345   3.693  0.2477  0.1097 -0.3482
16639SOL    HW150495   1.728   8.342   3.788 -0.0499 -0.0688 -0.3896
16639SOL    HW250496   1.829   8.313   3.679  0.6350  1.0469 -0.0680
16640SOL     OW50497   0.319   6.524   0.160  0.8199 -0.3243  0.0287
16640SOL    HW150498   0.347   6.614   0.181  0.3649 -0.4743  1.3158
16640SOL    HW250499   0.390   6.490   0.105  1.2703  0.6319 -0.0060
16641SOL     OW50500   2.544   6.523   5.987  0.6336  0.4249  0.3221
16641SOL    HW150501   2.565   6.435   6.018 -0.9074  0.5500  1.8883
16641SOL    HW250502   2.552   6.517   5.892 -0.0434 -1.6081  0.3326
16642SOL     OW50503   7.128   2.488   1.222 -0.3591  0.4348  0.2355
16642SOL    HW150504   7.072   2.438   1.163 -0.0126  0.3573 -0.0262
16642SOL    HW250505   7.217   2.467   1.195 -0.2022  0.5616  0.6515
16643SOL     OW50506  10.001   0.496   6.012  0.5623 -0.0025  0.0877
16643SOL    HW150507   9.933   0.432   6.035  1.2318 -1.5057 -1.7876
16643SOL    HW250508   9.961   0.581   6.029 -0.5080 -0.8609  2.3491
16644SOL     OW50509   6.362   3.354   2.676  0.3738  0.2902 -0.6771
16644SOL    HW150510   6.346   3.272   2.723  1.0791 -0.5405 -1.8133
16644SOL    HW250511   6.343   3.333   2.584  2.9407  0.6421 -1.3737
16645SOL     OW50512   6.480   4.049   2.901 -0.2144 -0.1825  0.1750
16645SOL    HW150513   6.397   4.058   2.948 -0.9315 -0.8136 -0.9239
16645SOL    HW250514   6.534   3.993   2.956 -0.5234  0.2272  0.8978
16646SOL     OW50515   6.143   5.616   1.621 -0.8038  0.0386 -0.2741
16646SOL    HW150516   6.083   5.553   1.661  0.4922 -0.3411  1.1285
16646SOL    HW250517   6.128   5.697   1.669  0.6652 -0.3860  0.9827
16647SOL     OW50518   4.875   9.723   6.084 -0.1171  0.1694 -0.0057
16647SOL    HW150519   4.817   9.779   6.137 -0.7230 -0.2723 -0.2017
16647SOL    HW250520   4.957   9.723   6.133  0.2195  2.0143 -0.4807
16648SOL     OW50521   8.861   8.775   3.478 -0.4111  0.1124  0.1590
16648SOL    HW150522   8.856   8.836   3.551 -1.1049 -1.5612  1.5779
16648SOL    HW250523   8.788   8.714   3.492  0.0910 -0.9044 -1.3352
16649SOL     OW50524   1.179   1.424   5.903  0.1269 -0.7064 -0.2356
16649SOL    HW150525   1.267   1.397   5.875 -0.4999 -2.4700 -0.6437
16649SOL    HW250526   1.126   1.345   5.893 -1.2448 -0.0031  1.1911
16650SOL     OW50527   0.431   5.477   2.890 -0.2981  0.0125  0.5257
16650SOL    HW150528   0.518   5.509   2.917 -0.4214 -0.2453  1.2523
16650SOL    HW250529   0.410   5.408   2.953 -1.0697  0.1305  0.4121
16651SOL     OW50530   5.100   9.853   9.890 -0.0574  0.2685 -0.0933
16651SOL    HW150531   5.032   9.823   9.831  0.3639 -1.6013  0.3019
16651SOL    HW250532   5.143   9.924   9.843 -2.9642  2.3425  0.1381
16652SOL     OW50533   9.489   9.843   8.693  0.5737 -0.1739 -0.3565
16652SOL    HW150534   9.430   9.844   8.618 -0.8770 -0.9818  0.7112
16652SOL    HW250535   9.531   9.757   8.691 -1.6181 -1.3937  1.2570
16653SOL     OW50536   4.713   2.489   7.414 -0.5227 -0.2501  0.0005
16653SOL    HW150537   4.655   2.526   7.348  0.9465  0.5663 -0.8886
16653SOL    HW250538   4.684   2.398   7.423 -0.8905 -0.3341 -1.6276
16654SOL     OW50539   9.560   3.260   6.144  0.3994 -0.1571 -0.2918
16654SOL    HW150540   9.543   3.191   6.208 -1.5670 -0.5911 -1.2029
16654SOL    HW250541   9.654   3.277   6.152  0.5234 -1.3547  1.5103
16655SOL     OW50542   9.493   3.502   8.113 -0.0066  0.5028  0.2863
16655SOL    HW150543   9.502   3.422   8.166  0.1191  0.4166  0.1354
16655SOL    HW250544   9.510   3.573   8.174  1.3541  0.3669  0.0974
16656SOL     OW50545   5.575   9.493   2.702  0.1011  0.8237  0.0920
16656SOL    HW150546   5.572   9.588   2.712  0.7117  0.7777  0.7352
16656SOL    HW250547   5.483   9.465   2.709  0.1281  1.1224  2.4643
16657SOL     OW50548   2.288   7.554   5.017  1.0877  0.8783 -0.1364
16657SOL    HW150549   2.321   7.536   4.928 -0.1716  1.7823 -0.8163
16657SOL    HW250550   2.210   7.606   5.003 -1.8679 -2.7042  1.2814
16658SOL     OW50551   6.974   9.813   5.985 -0.2108  0.2848 -0.1568
16658SOL    HW150552   6.980   9.900   5.946 -1.1521  0.4504  0.0527
16658SOL    HW250553   7.060   9.799   6.025 -0.1768  1.2842  0.1559
16659SOL     OW50554   5.286   4.231   6.333 -0.5475 -0.5546  0.3125
16659SOL    HW150555   5.293   4.275   6.418  0.3902  0.2715 -0.1738
16659SOL    HW250556   5.193   4.238   6.310 -0.6252  0.1168  0.7978
16660SOL     OW50557   0.708   4.920   6.237  0.2067 -0.2637 -0.5975
16660SOL    HW150558   0.643   4.913   6.307  0.9828 -0.2660  0.1439
16660SOL    HW250559   0.658   4.947   6.160 -0.4933  0.9848  0.2514
16661SOL     OW50560   9.886   7.412   8.340  0.0020  0.2460  0.4994
16661SOL    HW150561   9.896   7.507   8.334 -0.2055  0.1913 -1.4128
16661SOL    HW250562   9.799   7.395   8.303  0.2801 -0.7418  0.2819
16662SOL     OW50563   2.185   6.117   8.152  0.0898  0.5481  0.0390
16662SOL    HW150564   2.245   6.171   8.101 -1.5991  0.3964 -2.2724
16662SOL    HW250565   2.107   6.172   8.164 -0.2225 -0.0648  0.9744
16663SOL     OW50566   7.724   5.343   0.420  0.2405 -0.0939 -0.6161
16663SOL    HW150567   7.795   5.392   0.378 -0.7866  0.5880 -1.6118
16663SOL    HW250568   7.671   5.310   0.348 -0.5689 -0.4266  0.1104
16664SOL     OW50569   9.861   3.356   6.395  0.1329 -0.3008 -0.5293
16664SOL    HW150570   9.870   3.261   6.406 -0.2371 -0.2089  0.6565
16664SOL    HW250571   9.825   3.386   6.478  2.5135  1.2148  0.0325
16665SOL     OW50572   3.403   4.051   5.009  0.4774  0.3263 -0.0874
16665SOL    HW150573   3.387   3.972   5.061  0.2639  0.7488  0.4916
16665SOL    HW250574   3.454   4.020   4.934 -0.0546 -0.4487 -0.1397
16666SOL     OW50575   0.984   1.576   9.660 -0.0478  0.2070 -0.4878
16666SOL    HW150576   0.917   1.644   9.670  0.5059  1.0248 -2.0615
16666SOL    HW250577   1.040   1.587   9.737  0.1416  1.6965 -0.8011
16667SOL     OW50578   7.555   4.611   5.917 -0.5157  0.0160 -0.0222
16667SOL    HW150579   7.462   4.588   5.915 -0.3546 -0.6948  0.3768
16667SOL    HW250580   7.598   4.533   5.952  0.3644 -0.0672 -1.2441
16668SOL     OW50581   8.385   0.888   2.288 -0.4325  0.1541 -0.3677
16668SOL    HW150582   8.476   0.865   2.304 -0.6198 -0.9083 -0.7498
16668SOL    HW250583   8.342   0.879   2.373 -0.3297 -0.0703 -0.3399
16669SOL     OW50584   3.406   1.513   7.153  0.5376  0.2454 -0.1956
16669SOL    HW150585   3.434   1.572   7.083 -2.7373 -0.6235 -2.4682
16669SOL    HW250586   3.433   1.426   7.123  0.1282 -0.0197  0.1914
16670SOL     OW50587   4.478   8.340   5.914 -0.0630  0.1620 -0.2259
16670SOL    HW150588   4.491   8.430   5.945  2.2093 -0.5909  1.2818
16670SOL    HW250589   4.442   8.294   5.990 -0.5879 -0.3599 -0.7830
16671SOL     OW50590   4.038   1.225   1.616  0.4817 -0.1762 -0.5886
16671SOL    HW150591   3.969   1.250   1.677  1.0968 -0.2870  0.1746
16671SOL    HW250592   4.013   1.138   1.586  0.8122 -0.6651  0.4968
16672SOL     OW50593   0.417   1.485   9.788  0.1224 -0.3498 -0.0292
16672SOL    HW150594   0.499   1.436   9.793  0.8619  0.9424  2.2547
16672SOL    HW250595   0.349   1.419   9.797  1.0463 -1.1691  1.4670
16673SOL     OW50596   4.714   3.276   8.335  0.0540  0.2550  0.7011
16673SOL    HW150597   4.664   3.234   8.404 -1.7506  0.6370 -0.2899
16673SOL    HW250598   4.754   3.204   8.286 -1.7861 -0.3167 -0.0904
16674SOL     OW50599   1.645   2.937   6.226  0.4633  0.3717 -0.3525
16674SOL    HW150600   1.603   2.918   6.309  1.9783  0.5642  0.4930
16674SOL    HW250601   1.731   2.973   6.249  0.1259  2.4717 -1.9604
16675SOL     OW50602   5.792   1.336   3.516  0.2764  0.7667  0.2421
16675SOL    HW150603   5.713   1.387   3.532 -0.3238 -0.2580  0.6265
16675SOL    HW250604   5.841   1.343   3.598  0.9003  1.9037 -0.2012
16676SOL     OW50605   3.003   6.230   6.782  0.5531  0.3856  0.3808
16676SOL    HW150606   2.975   6.318   6.758  0.9195  0.8781  1.6712
16676SOL    HW250607   3.012   6.184   6.698 -1.6501  0.9202 -0.2152
16677SOL     OW50608   0.498   9.555   1.819  0.2265  0.3864  0.5583
16677SOL    HW150609   0.442   9.572   1.894 -0.4489 -0.1057  0.1830
16677SOL    HW250610   0.565   9.495   1.852  1.1897  1.8015  1.2738
16678SOL     OW50611   9.852   9.319   6.918 -0.5020 -0.0291 -0.1776
16678SOL    HW150612   9.856   9.239   6.970 -0.1619  0.5505  0.6979
16678SOL    HW250613   9.804   9.381   6.973  1.4439  1.1707  0.2490
16679SOL     OW50614   6.730   6.830   0.503  0.2527  0.2560 -0.0657
16679SOL    HW150615   6.681   6.829   0.585 -0.5814 -1.0587 -0.5567
16679SOL    HW250616   6.668   6.796   0.438  0.9819  1.0297 -1.1949
16680SOL     OW50617   1.296   1.034   8.653  0.3195  0.3065  0.5830
16680SOL    HW150618   1.299   1.114   8.600  0.0422  1.2757  1.9806
16680SOL    HW250619   1.239   0.975   8.604  1.9243  0.2676 -1.3644
16681SOL     OW50620   9.839   7.342   6.528  0.2281  0.0623  0.4600
16681SOL    HW150621   9.867   7.385   6.447  0.1336  0.3356  0.5713
16681SOL    HW250622   9.746   7.324   6.514  0.0428  0.7440  0.7827
16682SOL     OW50623   6.705   4.370   1.555 -0.5866 -0.1176  0.2411
16682SOL    HW150624   6.680   4.313   1.627  0.8975 -1.7496 -0.4518
16682SOL    HW250625   6.792   4.403   1.579  0.1183 -1.0250 -0.9502
16683SOL     OW50626   4.446   9.715   7.191  0.3757 -0.4882  0.1849
16683SOL    HW150627   4.351   9.711   7.186  0.3628 -2.9397  1.0401
16683SOL    HW250628   4.470   9.788   7.134 -2.0597  1.2026  1.1392
16684SOL     OW50629   0.571   8.573   0.800 -0.2667  0.3335 -0.1157
16684SOL    HW150630   0.641   8.569   0.735  0.5997  1.7829  0.6752
16684SOL    HW250631   0.521   8.493   0.786 -0.1539  0.6203 -2.5866
16685SOL     OW50632   3.953   5.479   4.262 -0.2599 -0.3019 -0.0864
16685SOL    HW150633   3.943   5.384   4.273  0.2679 -0.4165 -0.5543
16685SOL    HW250634   3.880   5.504   4.205  0.1306 -0.5802 -0.7162
16686SOL     OW50635   0.146   6.070   1.257  0.4440  0.2880 -0.1118
16686SOL    HW150636   0.180   6.095   1.343  0.1777 -0.1779  0.1380
16686SOL    HW250637   0.056   6.103   1.256 -0.9074 -2.9015  1.3359
16687SOL     OW50638   5.299   9.579   3.922 -0.0296 -0.6122  0.1325
16687SOL    HW150639   5.258   9.665   3.916 -1.2484 -1.0592  1.4830
16687SOL    HW250640   5.262   9.529   3.849 -0.1452 -0.3270 -0.0050
16688SOL     OW50641   9.730   4.631   7.479  0.2009  0.2585 -0.1262
16688SOL    HW150642   9.768   4.642   7.392  1.6196 -2.1702  0.1191
16688SOL    HW250643   9.799   4.657   7.539 -0.4807  1.1086  0.3121
16689SOL     OW50644   7.048   5.034   9.483  0.4719 -0.4093  0.2731
16689SOL    HW150645   7.047   4.978   9.560  0.0540 -0.5629  0.1561
16689SOL    HW250646   7.017   4.978   9.412 -0.9225  0.2386  0.3428
16690SOL     OW50647   1.378   1.462   1.754  0.3937 -0.4097  0.0370
16690SOL    HW150648   1.315   1.475   1.825 -1.2161  1.1806 -1.5568
16690SOL    HW250649   1.405   1.551   1.729  1.6154 -0.9736 -0.7323
16691SOL     OW50650   6.032   4.887   5.682  0.5335  0.6966  0.0691
16691SOL    HW150651   6.009   4.931   5.600 -1.2602 -1.2425 -0.5539
16691SOL    HW250652   6.071   4.804   5.654 -0.8113 -0.3379  1.1377
16692SOL     OW50653   3.950   7.159   0.266  0.1925 -0.3177  0.0347
16692SOL    HW150654   3.970   7.066   0.253 -0.2063 -0.4165  0.1033
16692SOL    HW250655   4.018   7.190   0.326  0.1289 -0.6469  0.2800
16693SOL     OW50656   7.545   3.371   5.168 -0.5154 -0.5963 -0.3393
16693SOL    HW150657   7.497   3.309   5.222 -1.0949  0.1541  0.0196
16693SOL    HW250658   7.632   3.331   5.158 -0.0661 -0.3148  1.9357
16694SOL     OW50659   0.009   2.056   2.179  0.0180  0.1411 -0.2429
16694SOL    HW150660  -0.056   2.105   2.229  0.4032  1.2728 -0.8235
16694SOL    HW250661   0.086   2.113   2.177  0.3056 -0.2566 -1.3691
16695SOL     OW50662   3.746   0.977   8.400 -0.5726  0.0925 -0.0608
16695SOL    HW150663   3.814   0.950   8.461 -2.6480 -2.0454  1.5036
16695SOL    HW250664   3.788   0.974   8.314  1.3671 -0.8524  0.8516
16696SOL     OW50665   1.540   4.436   5.813 -0.1657 -0.8933  0.2839
16696SOL    HW150666   1.582   4.387   5.883  1.3878 -1.9893 -1.3203
16696SOL    HW250667   1.534   4.374   5.740  0.9665  0.9512 -1.5084
16697SOL     OW50668   8.867   1.105   0.347 -0.1853 -0.5400 -0.2145
16697SOL    HW150669   8.790   1.077   0.397 -1.2047  1.7817 -0.3447
16697SOL    HW250670   8.840   1.099   0.256 -1.0509  2.1676 -0.2310
16698SOL     OW50671   2.894   3.042   4.348 -0.1259 -0.3435 -0.0810
16698SOL    HW150672   2.862   3.060   4.436  0.2295 -2.4046  0.5168
16698SOL    HW250673   2.868   2.951   4.331  1.8630 -0.7630 -1.1663
16699SOL     OW50674   1.885   0.424   9.666 -0.1007  0.4918  0.1091
16699SOL    HW150675   1.944   0.380   9.728 -1.1021 -1.0664  0.0367
16699SOL    HW250676   1.797   0.400   9.697 -0.6256 -0.4136 -1.9580
16700SOL     OW50677   9.986   9.339   0.649 -0.1469  0.0180 -0.1072
16700SOL    HW150678   9.920   9.348   0.718 -0.5503 -0.8069 -0.3741
16700SOL    HW250679  10.002   9.429   0.620 -1.6551  0.2000 -0.5002
16701SOL     OW50680   6.020   2.627   7.234  0.4199  0.0415  0.1703
16701SOL    HW150681   6.075   2.642   7.312  2.2700  0.6734 -1.1864
16701SOL    HW250682   6.073   2.569   7.179 -1.4442 -1.5266 -0.0628
16702SOL     OW50683   4.471   2.773   9.394 -0.2655  0.0257 -1.3440
16702SOL    HW150684   4.485   2.689   9.437  0.1751  1.9023  2.7166
16702SOL    HW250685   4.487   2.756   9.301  2.7044 -3.7241 -0.4104
16703SOL     OW50686   8.165   1.932   2.493  0.0091  0.3397 -0.0814
16703SOL    HW150687   8.094   1.936   2.557  1.0098 -2.1885  1.3387
16703SOL    HW250688   8.121   1.931   2.408 -1.5487  0.6738  0.6920
16704SOL     OW50689   3.498   9.579   2.131  0.2630 -0.3391 -0.1605
16704SOL    HW150690   3.454   9.629   2.062  0.3927  0.6650  0.4673
16704SOL    HW250691   3.471   9.488   2.115 -1.8779  0.2045  0.0699
16705SOL     OW50692   5.198   4.804   0.032 -0.1389  0.1250 -0.1272
16705SOL    HW150693   5.227   4.728  -0.017  0.8691 -0.2415  0.9819
16705SOL    HW250694   5.133   4.770   0.093  0.1666  0.1783  0.2328
16706SOL     OW50695   8.641   6.675   8.582  0.7327  0.0326  0.3220
16706SOL    HW150696   8.630   6.589   8.540  0.7682  0.0378  0.3013
16706SOL    HW250697   8.612   6.738   8.515  0.1623  0.0089  0.5487
16707SOL     OW50698   2.413   7.259   0.686 -0.9925  0.6136  0.2130
16707SOL    HW150699   2.393   7.252   0.779  0.6479  1.6331  0.6766
16707SOL    HW250700   2.434   7.351   0.673  0.5735  0.1574 -0.7735
16708SOL     OW50701   9.517   7.737   3.903  0.2179 -0.0744  0.5674
16708SOL    HW150702   9.503   7.831   3.892  0.2585 -0.2729 -1.6536
16708SOL    HW250703   9.480   7.717   3.989 -1.0106  1.7278  0.5128
16709SOL     OW50704   8.300   9.564   2.133 -0.2940  0.4211 -0.1662
16709SOL    HW150705   8.264   9.639   2.180  1.3560  0.2794  1.4435
16709SOL    HW250706   8.345   9.513   2.200  0.1170 -1.0840 -1.5299
16710SOL     OW50707   3.066   7.536   9.627  0.0365  0.7397 -0.0977
16710SOL    HW150708   3.081   7.442   9.614 -1.8507  0.5919 -1.6772
16710SOL    HW250709   3.020   7.542   9.710 -1.6552 -0.0090 -0.9233
16711SOL     OW50710   7.413   0.507   9.412 -0.0833 -0.1588 -0.1386
16711SOL    HW150711   7.483   0.551   9.365  0.2648  0.7318  1.1537
16711SOL    HW250712   7.381   0.572   9.474 -1.3020 -0.9158  0.0682
16712SOL     OW50713   9.616   2.785   3.791  0.0758  0.2242  1.0664
16712SOL    HW150714   9.690   2.727   3.772  0.4353  0.3887  1.9315
16712SOL    HW250715   9.590   2.820   3.706  0.6302 -0.2726  0.6872
16713SOL     OW50716   5.470   9.646   7.714 -0.0782  0.5612  0.6187
16713SOL    HW150717   5.462   9.556   7.743 -1.6143  0.8526  1.2035
16713SOL    HW250718   5.393   9.660   7.659  0.6315  1.2494 -0.2295
16714SOL     OW50719   9.376   1.003   8.397  0.5737 -0.3055  0.2289
16714SOL    HW150720   9.366   0.919   8.353 -0.7396  0.9250 -1.9826
16714SOL    HW250721   9.471   1.020   8.396  0.7149 -1.0784 -0.6466
16715SOL     OW50722   1.376   5.571   5.812  0.1638  0.5940 -0.3445
16715SOL    HW150723   1.327   5.604   5.888 -0.8274 -0.9466 -0.2772
16715SOL    HW250724   1.326   5.602   5.737  0.1420  0.6205 -0.3193
16716SOL     OW50725   0.427   5.512   8.124  0.2386 -0.6801 -0.3359
16716SOL    HW150726   0.361   5.557   8.072  0.9321 -1.7506 -2.2390
16716SOL    HW250727   0.381   5.487   8.205 -1.4982 -0.8494 -1.3269
16717SOL     OW50728   3.664   4.347   6.491  0.2684 -0.3063 -0.2159
16717SOL    HW150729   3.574   4.368   6.516 -0.3117 -1.7031 -1.0224
16717SOL    HW250730   3.692   4.281   6.554 -0.3820 -2.1181 -1.7365
16718SOL     OW50731   6.779   3.410   7.869 -0.0165  0.1530  0.0913
16718SOL    HW150732   6.718   3.423   7.797  0.1123  0.6636  0.0752
16718SOL    HW250733   6.726   3.368   7.938  0.2392 -1.8940 -0.8849
16719SOL     OW50734   4.201   2.701   9.540 -0.3628  0.4402 -0.6180
16719SOL    HW150735   4.279   2.751   9.517  1.0750 -0.8086  1.2896
16719SOL    HW250736   4.139   2.767   9.571  1.0505  1.2089  0.7027
16720SOL     OW50737   6.837   2.360   6.536 -0.2382  0.7026  0.3790
16720SOL    HW150738   6.927   2.388   6.551  0.2405  0.0690 -1.1071
16720SOL    HW250739   6.832   2.273   6.576  0.0077  0.4873 -0.0403
16721SOL     OW50740   5.626   7.786   5.492 -0.0616  0.1604 -0.3601
16721SOL    HW150741   5.567   7.862   5.496  0.7206  0.7610 -0.1214
16721SOL    HW250742   5.638   7.761   5.584 -2.3901 -1.9200 -0.4913
16722SOL     OW50743   2.739   6.039   2.138  0.0596  0.1636 -0.1250
16722SOL    HW150744   2.700   5.971   2.194  0.8614  0.4418  0.8003
16722SOL    HW250745   2.684   6.041   2.060 -1.8941  0.6833  1.2163
16723SOL     OW50746   6.095   6.154   5.618 -0.2891  0.0924 -0.4367
16723SOL    HW150747   6.178   6.134   5.662 -0.6515 -0.0749  0.1884
16723SOL    HW250748   6.035   6.085   5.648 -0.0116 -1.3150 -2.8222
16724SOL     OW50749   0.712   9.397   0.165 -0.0732  0.5602 -0.3597
16724SOL    HW150750   0.750   9.310   0.158  2.0555  1.3932  0.2476
16724SOL    HW250751   0.767   9.444   0.227 -2.2344  1.8207  0.7441
16725SOL     OW50752   8.372   1.407   5.506  0.1527 -0.0068  0.4920
16725SOL    HW150753   8.406   1.480   5.558 -0.0783  0.2515  0.2833
16725SOL    HW250754   8.349   1.446   5.422 -1.4047 -0.0028  0.8858
16726SOL     OW50755   9.032   2.264   7.408  0.4539  0.3203  0.2373
16726SOL    HW150756   8.964   2.208   7.446  0.4695 -0.3879 -0.7425
16726SOL    HW250757   8.990   2.302   7.331  0.7479  0.9272  0.3766
16727SOL     OW50758   4.730   0.458   9.867  0.0262  0.0992 -0.3654
16727SOL    HW150759   4.783   0.478   9.790  1.2631 -0.9933  0.1681
16727SOL    HW250760   4.762   0.518   9.935 -1.5958  1.6083 -0.8682
16728SOL     OW50761   7.258   3.906   8.270 -0.1708  0.4849 -0.3026
16728SOL    HW150762   7.286   3.828   8.319  1.7079  0.9595 -0.5154
16728SOL    HW250763   7.273   3.882   8.178  2.5288  1.7349 -0.3040
16729SOL     OW50764   6.289   0.356   6.755 -0.4237 -0.2075 -0.3055
16729SOL    HW150765   6.259   0.269   6.727  0.7576 -0.6795 -0.2026
16729SOL    HW250766   6.345   0.337   6.831  1.4136  0.4404 -1.4516
16730SOL     OW50767   0.073   6.362   9.476  0.4519  0.3144 -0.4096
16730SOL    HW150768  -0.008   6.364   9.425 -0.4773 -2.0256  0.8300
16730SOL    HW250769   0.140   6.392   9.416 -1.2869  2.2525 -1.5141
16731SOL     OW50770   0.815   3.974   7.309 -0.0672  0.0628  0.5818
16731SOL    HW150771   0.790   4.027   7.385  1.8982  2.5764 -0.3736
16731SOL    HW250772   0.817   3.885   7.341  1.5778  1.1164  3.7612
16732SOL     OW50773   3.386   9.115   9.506  0.4946  0.2061  0.1597
16732SOL    HW150774   3.430   9.074   9.580  1.8047 -0.1398 -0.7726
16732SOL    HW250775   3.318   9.053   9.480  1.4951 -0.7230 -0.3062
16733SOL     OW50776   0.187   2.595   9.677 -0.5120 -0.4371  0.6386
16733SOL    HW150777   0.125   2.658   9.713  1.4673  0.5713  2.4569
16733SOL    HW250778   0.135   2.543   9.615 -3.3258 -0.1316  2.5755
16734SOL     OW50779   7.517   0.946   4.742 -0.1219 -0.3292  0.6058
16734SOL    HW150780   7.568   0.906   4.672 -1.7100 -1.5790  0.1229
16734SOL    HW250781   7.536   0.893   4.820 -1.6308 -1.6305  0.1353
16735SOL     OW50782   7.387   9.608   4.116 -0.6350  0.0221 -0.3346
16735SOL    HW150783   7.442   9.588   4.192  0.2230  0.7233 -0.7585
16735SOL    HW250784   7.425   9.556   4.045 -0.0353  1.0910 -0.8074
16736SOL     OW50785   9.664   2.995   3.956  0.0463  0.6190 -0.3490
16736SOL    HW150786   9.614   2.928   3.909  0.8307 -1.4187  1.5328
16736SOL    HW250787   9.752   2.989   3.919  0.7685 -1.2691  1.4889
16737SOL     OW50788   1.576   9.015   6.375  0.2646 -0.2093 -0.3263
16737SOL    HW150789   1.619   9.030   6.291  0.9788  0.9698  0.2362
16737SOL    HW250790   1.621   8.939   6.411  0.3602 -0.3502 -0.7291
16738SOL     OW50791   4.111   9.393   9.469  0.3793 -0.0728 -0.4355
16738SOL    HW150792   4.085   9.418   9.380  3.1594 -1.1474 -1.6700
16738SOL    HW250793   4.158   9.470   9.502  1.4892 -0.5230 -0.9075
16739SOL     OW50794   1.034   4.628   6.487 -0.2290 -0.4168  0.3605
16739SOL    HW150795   1.091   4.686   6.436  0.5122 -0.9807  0.5371
16739SOL    HW250796   1.018   4.554   6.430  1.5335 -1.5990  1.2998
16740SOL     OW50797   9.110   8.224   1.943 -0.4693  0.7351  0.0945
16740SOL    HW150798   9.106   8.163   1.869  1.1165 -3.0328  2.7800
16740SOL    HW250799   9.038   8.197   2.000 -1.5051  3.3881  0.2036
16741SOL     OW50800   5.360   7.220   8.822 -0.2494  0.7316 -0.6118
16741SOL    HW150801   5.265   7.212   8.813 -0.1304 -0.2423 -1.1623
16741SOL    HW250802   5.385   7.285   8.756 -0.5573  1.2529 -0.2299
16742SOL     OW50803   6.748   0.636   3.352  0.3173  0.1309  0.1296
16742SOL    HW150804   6.816   0.593   3.404  1.4700 -0.0169 -1.4157
16742SOL    HW250805   6.742   0.724   3.388  1.3051  0.1235  0.3615
16743SOL     OW50806   0.085   3.261   5.803  0.5173  0.2823 -0.1545
16743SOL    HW150807   0.136   3.321   5.858 -1.7941  0.8602  1.5260
16743SOL    HW250808   0.078   3.181   5.855  0.0631  0.0765 -0.5240
16744SOL     OW50809   6.537   5.642   6.904 -0.1679 -0.0007 -0.0743
16744SOL    HW150810   6.630   5.619   6.897  0.2356  1.3485  0.4637
16744SOL    HW250811   6.528   5.720   6.849 -0.8675  0.1827  0.2887
16745SOL     OW50812   1.148   0.883   7.375 -0.3423  0.0432 -0.3098
16745SOL    HW150813   1.053   0.889   7.381 -0.3834  0.6468 -1.3421
16745SOL    HW250814   1.177   0.974   7.367  0.2138 -0.2256 -1.4248
16746SOL     OW50815   7.561   8.126   5.100 -0.5276  0.1543  0.0519
16746SOL    HW150816   7.582   8.059   5.035 -1.4061  0.0577 -0.1328
16746SOL    HW250817   7.514   8.079   5.169  0.3555  0.2626  0.7556
16747SOL     OW50818   1.667   9.230   9.465  0.2507 -0.4147  0.2957
16747SOL    HW150819   1.695   9.194   9.380 -0.1625 -0.4589  0.1758
16747SOL    HW250820   1.643   9.320   9.446 -0.0291 -0.4811  0.3241
16748SOL     OW50821   3.895   8.306   7.241  0.2902 -0.3150  0.3017
16748SOL    HW150822   3.932   8.223   7.212  2.0822  0.8497 -0.9536
16748SOL    HW250823   3.838   8.334   7.169  3.2952  1.6773 -1.5261
16749SOL     OW50824   6.584   9.774   5.828  0.0267  0.1579 -0.3795
16749SOL    HW150825   6.667   9.727   5.837 -2.2130 -4.2273  0.1453
16749SOL    HW250826   6.576   9.824   5.909  2.2922  1.1316 -0.6785
16750SOL     OW50827   3.884   9.263   9.230  0.0002  0.8097  0.1962
16750SOL    HW150828   3.836   9.187   9.197 -0.7107  1.4001 -0.1546
16750SOL    HW250829   3.974   9.249   9.201 -0.0312 -0.0960  0.4852
16751SOL     OW50830   6.947   9.789   1.505  0.0055  0.1589  0.3639
16751SOL    HW150831   6.920   9.755   1.590 -0.3332 -0.0097  0.1920
16751SOL    HW250832   7.037   9.758   1.494  1.7951  3.8137  2.6184
16752SOL     OW50833   2.694   7.146   0.557  0.4299 -0.0433  0.0351
16752SOL    HW150834   2.602   7.146   0.583  0.3593  2.9592  0.1576
16752SOL    HW250835   2.692   7.167   0.463  0.9723  0.3365  0.1042
16753SOL     OW50836   5.720   4.685   5.325 -0.0731  0.3413 -0.0980
16753SOL    HW150837   5.710   4.649   5.237  0.8421 -0.6376  0.1615
16753SOL    HW250838   5.769   4.617   5.373 -0.8556  0.6926  1.2664
16754SOL     OW50839   5.972   7.790   2.479 -0.0178  0.0762  0.7679
16754SOL    HW150840   6.037   7.787   2.548  1.1444 -1.3126 -0.3182
16754SOL    HW250841   5.993   7.716   2.423 -1.4464  0.6494 -0.6169
16755SOL     OW50842   4.674   8.536   1.936  0.0112  0.3238 -0.4740
16755SOL    HW150843   4.585   8.517   1.967  0.3954 -1.1816 -0.1699
16755SOL    HW250844   4.673   8.629   1.914 -1.5138  0.4341 -0.0655
16756SOL     OW50845   7.910   1.036   9.478  0.2664 -0.0582  0.5157
16756SOL    HW150846   7.823   1.049   9.515 -0.2891 -0.9718 -0.4076
16756SOL    HW250847   7.895   0.982   9.400  1.6638 -0.2775  0.3729
16757SOL     OW50848   8.066   7.874   1.275  0.4051 -0.3010  0.2495
16757SOL    HW150849   8.083   7.960   1.313 -0.7975 -0.4172  1.0824
16757SOL    HW250850   8.152   7.833   1.269  0.8937  0.6467  0.5978
16758SOL     OW50851   0.496   7.262   9.694 -0.4912  0.6258  0.0100
16758SOL    HW150852   0.423   7.300   9.743 -0.6291  0.9146 -0.4087
16758SOL    HW250853   0.562   7.331   9.693  0.0785  0.1007  1.0081
16759SOL     OW50854   9.006   2.181   2.130  0.4567  0.2034 -0.6233
16759SOL    HW150855   9.086   2.145   2.169 -0.4226  1.3355  2.5914
16759SOL    HW250856   8.969   2.110   2.078  2.7868 -0.7980 -1.0010
16760SOL     OW50857   5.111   4.250   9.513  0.0497 -0.4341 -0.0782
16760SOL    HW150858   5.181   4.185   9.515  1.2332  0.7964 -0.2153
16760SOL    HW250859   5.156   4.334   9.519 -1.1225  0.6102 -3.5262
16761SOL     OW50860   6.980   3.414   4.886 -0.3472 -0.1556  0.2900
16761SOL    HW150861   7.015   3.354   4.820  0.7511 -0.3668  1.0267
16761SOL    HW250862   6.943   3.486   4.836  0.7868 -0.1343 -0.5736
16762SOL     OW50863   0.340   7.250   1.263  0.1972  0.0034  0.2610
16762SOL    HW150864   0.334   7.167   1.310 -2.6140 -0.5911 -0.8761
16762SOL    HW250865   0.428   7.283   1.281 -0.1355 -0.9042  4.5384
16763SOL     OW50866   6.445   9.527   6.569  0.2064  0.1819  0.2929
16763SOL    HW150867   6.460   9.536   6.663  0.7371 -0.9139  0.3359
16763SOL    HW250868   6.528   9.493   6.535 -0.7133 -1.7824 -0.1600
16764SOL     OW50869   4.352   6.298   0.526 -0.3673  0.0417  0.3649
16764SOL    HW150870   4.261   6.273   0.514 -0.8888  1.2827  1.4749
16764SOL    HW250871   4.395   6.218   0.557 -1.0507 -0.5619 -0.2052
16765SOL     OW50872   2.268   7.407   1.563 -1.0034 -0.3347  0.0444
16765SOL    HW150873   2.262   7.421   1.658 -0.6254 -1.7111  0.3045
16765SOL    HW250874   2.191   7.451   1.527 -1.4494 -0.2591  1.0522
16766SOL     OW50875   1.972   5.535   4.082 -0.3306 -0.2581 -0.1314
16766SOL    HW150876   1.879   5.514   4.075 -0.8884  1.6059  1.1484
16766SOL    HW250877   1.994   5.519   4.173  0.4597 -0.0875 -0.2839
16767SOL     OW50878   8.255   0.685   6.397  0.3683  0.2765 -0.1693
16767SOL    HW150879   8.220   0.758   6.346 -0.3650  1.2877  1.6378
16767SOL    HW250880   8.343   0.671   6.364 -0.3935  0.2078 -2.3170
16768SOL     OW50881   6.021   9.967   3.310 -0.2325 -0.5863 -0.5922
16768SOL    HW150882   6.041   9.878   3.282 -0.7953 -0.6140 -0.9175
16768SOL    HW250883   5.986   9.957   3.399  0.0802 -0.6453 -0.4722
16769SOL     OW50884   3.399   2.553   4.867 -0.4128  0.7303  0.1613
16769SOL    HW150885   3.345   2.491   4.915  0.9574 -1.0801 -0.5099
16769SOL    HW250886   3.360   2.555   4.779 -0.0240  0.2514 -0.0225
16770SOL     OW50887   8.036   1.958   6.613  0.4643 -0.7169 -0.0410
16770SOL    HW150888   7.949   1.936   6.581  0.9870 -2.4422 -0.3998
16770SOL    HW250889   8.090   1.965   6.534  0.7035  0.1559  0.1878
16771SOL     OW50890   5.839   3.626   0.308 -0.3582  0.5107  0.0854
16771SOL    HW150891   5.922   3.634   0.357 -0.4202  0.3767  0.2141
16771SOL    HW250892   5.808   3.538   0.328 -0.6031  0.6099  0.1501
16772SOL     OW50893   1.035   6.829   7.954 -0.1320  0.0841 -0.1318
16772SOL    HW150894   1.004   6.755   7.901  0.4221 -0.3360  0.1295
16772SOL    HW250895   0.955   6.864   7.995 -0.3269 -0.7241  0.1938
16773SOL     OW50896   7.348   0.336   1.889 -0.0190  0.0657  0.4112
16773SOL    HW150897   7.289   0.298   1.824 -0.0567  0.4733  0.2045
16773SOL    HW250898   7.357   0.268   1.956 -2.8770  0.9564  1.8342
16774SOL     OW50899   4.162   4.090   8.404 -0.4353 -0.4536 -0.0132
16774SOL    HW150900   4.232   4.060   8.346  0.4696 -0.2386  0.9302
16774SOL    HW250901   4.180   4.183   8.417 -1.7630 -0.0454 -0.9247
16775SOL     OW50902   3.453   6.876   7.245  0.4097 -0.1843  0.3152
16775SOL    HW150903   3.391   6.816   7.203  1.3055 -1.4608  0.7662
16775SOL    HW250904   3.403   6.958   7.255 -0.8562 -0.8468 -0.2739
16776SOL     OW50905   6.106   0.212   2.390 -0.7558 -0.1173  0.0800
16776SOL    HW150906   6.043   0.274   2.428  1.2165  0.6864  2.2371
16776SOL    HW250907   6.086   0.128   2.433  0.1680  0.3449  1.4888
16777SOL     OW50908   1.545   3.105   7.131 -0.3543  0.4287  0.5432
16777SOL    HW150909   1.480   3.042   7.099 -0.4685  0.6217  0.4001
16777SOL    HW250910   1.628   3.058   7.123 -0.5068  0.0488  1.0583
16778SOL     OW50911   4.496   4.528   3.219 -0.0711  0.4024 -0.6552
16778SOL    HW150912   4.561   4.587   3.180  0.2833 -0.9560 -2.2319
16778SOL    HW250913   4.416   4.544   3.168  0.0972 -0.6302 -1.2608
16779SOL     OW50914   6.787   7.289   6.647 -0.8105  0.0851  0.1079
16779SOL    HW150915   6.700   7.328   6.654 -1.1003 -0.4451 -0.4873
16779SOL    HW250916   6.825   7.329   6.569 -1.3178 -1.1887 -0.8262
16780SOL     OW50917   3.270   2.040   5.745 -0.3996  0.4158  0.2356
16780SOL    HW150918   3.340   2.096   5.779 -0.0747  1.0720 -1.3889
16780SOL    HW250919   3.215   2.100   5.694 -1.3107 -0.3612  0.2939
16781SOL     OW50920   9.121   7.786   2.805  0.1744 -0.3003  0.0409
16781SOL    HW150921   9.146   7.698   2.777 -0.5319 -0.1493 -1.1292
16781SOL    HW250922   9.153   7.793   2.895  0.8111 -1.5131 -0.0743
16782SOL     OW50923   3.424   8.125   4.277 -0.0555  0.6565  0.0000
16782SOL    HW150924   3.473   8.207   4.267 -0.7775  1.0367 -0.4297
16782SOL    HW250925   3.426   8.085   4.190  2.0798 -0.8366  0.6304
16783SOL     OW50926   5.603   9.560   0.753 -0.2181 -0.3299  0.4101
16783SOL    HW150927   5.606   9.573   0.848 -2.0102  3.1336  0.1572
16783SOL    HW250928   5.682   9.602   0.719  0.0885 -0.9846  0.2902
16784SOL     OW50929   0.961   2.794   6.625  0.3435  0.3155 -0.1301
16784SOL    HW150930   0.981   2.725   6.688 -1.1738  1.2271  1.4589
16784SOL    HW250931   0.958   2.750   6.540  0.2355 -1.4085  0.7214
16785SOL     OW50932   0.209   3.337   3.250 -0.3207 -0.4687 -0.5464
16785SOL    HW150933   0.267   3.264   3.233 -0.9652 -1.3913  0.9453
16785SOL    HW250934   0.251   3.385   3.322 -0.1026  0.4114 -1.2441
16786SOL     OW50935   6.367   3.481   0.758 -0.3658  0.4216  0.4139
16786SOL    HW150936   6.350   3.574   0.744  0.3391  0.7327  1.4740
16786SOL    HW250937   6.376   3.472   0.853 -0.7922 -0.8002  0.3579
16787SOL     OW50938   7.062   1.053   6.636 -0.1728 -0.1163  0.2144
16787SOL    HW150939   7.133   1.080   6.696 -0.6546 -0.0918  0.7851
16787SOL    HW250940   6.999   1.125   6.640  0.2561  0.3542 -1.1202
16788SOL     OW50941   3.058   4.007   8.479  0.2307  0.3331 -0.0653
16788SOL    HW150942   2.978   4.056   8.460 -0.4949 -0.9362 -0.4200
16788SOL    HW250943   3.087   4.040   8.564 -1.7147 -0.4556  0.9720
16789SOL     OW50944   0.664   5.672   1.969 -0.3569  0.1754 -0.1560
16789SOL    HW150945   0.660   5.579   1.992  1.0935 -0.8375 -3.4485
16789SOL    HW250946   0.756   5.696   1.980 -0.5333  0.9527 -0.2976
16790SOL     OW50947   8.512   1.145   5.263  0.0365  0.2866 -0.1101
16790SOL    HW150948   8.442   1.171   5.204  0.6031  0.8864 -0.5310
16790SOL    HW250949   8.580   1.212   5.252 -0.5492  1.4435  2.5162
16791SOL     OW50950   6.715   8.701   6.856  0.3625  0.0151  0.1663
16791SOL    HW150951   6.719   8.796   6.873  1.2849  0.3927 -1.8432
16791SOL    HW250952   6.622   8.681   6.859  0.1164  1.0697  0.2534
16792SOL     OW50953   2.722   8.720   1.749 -0.7332  0.3481  0.1687
16792SOL    HW150954   2.665   8.776   1.801 -1.1213  1.0637 -0.9944
16792SOL    HW250955   2.683   8.720   1.661 -0.6325 -1.5850  0.0661
16793SOL     OW50956   1.117   3.511   0.975 -0.2086  0.3594 -0.0610
16793SOL    HW150957   1.050   3.452   0.939  1.5778 -2.0700  0.3430
16793SOL    HW250958   1.118   3.491   1.069  2.6131 -1.4387 -0.3794
16794SOL     OW50959   7.596   3.174   6.108  0.0470 -0.2247  0.4489
16794SOL    HW150960   7.590   3.098   6.050  0.2949 -0.6519  0.9774
16794SOL    HW250961   7.671   3.155   6.164 -0.8265 -0.2949  1.6142
16795SOL     OW50962   6.942   0.445   9.159  0.0845 -0.1316 -0.0814
16795SOL    HW150963   6.979   0.415   9.241 -0.3333 -0.1515  0.1044
16795SOL    HW250964   6.850   0.417   9.163  0.1214 -0.3502 -0.6579
16796SOL     OW50965   0.131   0.120   5.147  0.0583  0.2795  0.3030
16796SOL    HW150966   0.085   0.109   5.063 -0.6557  0.0217  0.7163
16796SOL    HW250967   0.223   0.110   5.125 -0.0640  0.8701 -0.5671
16797SOL     OW50968   0.738   4.189   4.035  0.4940 -0.0439 -0.0523
16797SOL    HW150969   0.645   4.194   4.056 -1.0152  1.2449 -5.4744
16797SOL    HW250970   0.749   4.102   3.997  0.5821  0.9483 -2.4294
16798SOL     OW50971   6.062   1.125   3.422 -0.9273 -0.1821 -0.7610
16798SOL    HW150972   6.070   1.219   3.438 -1.8515 -0.2849  0.3864
16798SOL    HW250973   6.111   1.111   3.341  1.8197  0.7677  0.6126
16799SOL     OW50974   8.748   7.198   9.583  0.0876 -0.8614  0.2609
16799SOL    HW150975   8.752   7.219   9.676 -1.6298 -0.3214  0.2460
16799SOL    HW250976   8.831   7.154   9.565  2.3805  2.7330  1.0900
16800SOL     OW50977   0.999   4.389   7.242  0.2689 -0.1626  0.3557
16800SOL    HW150978   0.908   4.378   7.212  0.7478  0.0722 -1.2712
16800SOL    HW250979   1.038   4.447   7.177  1.9488 -1.3238  0.2744
16801SOL     OW50980   2.824   7.191   7.784  0.0830 -0.7186  0.0860
16801SOL    HW150981   2.867   7.126   7.728 -0.1610  0.3724 -1.4283
16801SOL    HW250982   2.872   7.272   7.767 -0.3456 -0.2437  1.0736
16802SOL     OW50983   4.724   0.750   6.062 -0.5057 -0.7459 -0.2227
16802SOL    HW150984   4.742   0.729   6.153 -1.6064  1.2153  0.5110
16802SOL    HW250985   4.646   0.699   6.040 -0.4955 -0.8909  0.0729
16803SOL     OW50986   4.499   6.214   5.916  0.1500 -0.0170  0.4343
16803SOL    HW150987   4.488   6.122   5.891  0.5348 -0.6996  2.5629
16803SOL    HW250988   4.569   6.246   5.859  0.6458 -1.3035  0.2900
16804SOL     OW50989   0.324   7.169   0.061 -0.5511  0.1884 -0.6424
16804SOL    HW150990   0.359   7.255   0.040 -1.0906  0.2455 -1.3162
16804SOL    HW250991   0.343   7.158   0.155 -2.2643  1.8997 -0.0330
16805SOL     OW50992   2.540   4.183   4.285 -0.5240 -0.4702 -0.1922
16805SOL    HW150993   2.452   4.180   4.321 -0.5995 -2.0842 -0.4573
16805SOL    HW250994   2.596   4.153   4.356 -0.6784 -3.7376 -1.2946
16806SOL     OW50995   6.481   0.726   4.165  0.3371 -0.6903  0.7956
16806SOL    HW150996   6.495   0.680   4.248  1.6216  1.0550  1.6170
16806SOL    HW250997   6.569   0.740   4.130  0.0546  1.3589  0.7554
16807SOL     OW50998   0.645   7.813   0.520  0.1075  0.3256 -0.6786
16807SOL    HW150999   0.591   7.801   0.599  1.2594 -0.6759 -0.0148
16807SOL    HW251000   0.597   7.879   0.469  0.5348  2.9546  1.9755
16808SOL     OW51001   4.588   9.002   0.709  0.4689 -0.9557  0.1718
16808SOL    HW151002   4.631   8.984   0.792  1.6943  0.1221 -0.1881
16808SOL    HW251003   4.617   8.932   0.651  1.3940 -0.5084  0.0713
16809SOL     OW51004   4.989   7.833   1.434 -0.2548 -0.7231 -0.1820
16809SOL    HW151005   4.939   7.915   1.436  1.0593  0.1106  2.0569
16809SOL    HW251006   4.933   7.770   1.481  0.2311 -0.0928  1.3134
16810SOL     OW51007   0.618   0.847   4.166  0.1111 -0.5400 -0.0570
16810SOL    HW151008   0.618   0.831   4.072 -0.4584  1.5681 -0.4744
16810SOL    HW251009   0.528   0.828   4.194  0.2016 -0.8789  0.0034
16811SOL     OW51010   0.306   6.676   8.902  0.0173 -0.1213  0.3169
16811SOL    HW151011   0.248   6.600   8.904  0.8602 -0.7849  2.8736
16811SOL    HW251012   0.352   6.669   8.818 -0.3933 -2.0848  0.2193
16812SOL     OW51013   8.781   1.042   1.162 -0.6541  0.2653 -0.3192
16812SOL    HW151014   8.850   1.080   1.217 -0.8435 -0.8889  0.7621
16812SOL    HW251015   8.747   1.116   1.113  0.3889  1.1162  0.1806
16813SOL     OW51016   3.092   6.918   8.859 -0.2025 -0.6328 -0.4185
16813SOL    HW151017   3.098   6.823   8.868 -1.3014 -0.8156 -1.4092
16813SOL    HW251018   3.082   6.949   8.949 -3.0753 -1.7526 -0.2563
16814SOL     OW51019   3.103   4.946   4.874  0.6482  0.2485  0.3336
16814SOL    HW151020   3.010   4.968   4.876  0.5432 -0.2085  0.5921
16814SOL    HW251021   3.129   4.961   4.783  0.2654  0.1428  0.2051
16815SOL     OW51022   0.868   7.889   5.045 -0.3737  0.5796 -0.1430
16815SOL    HW151023   0.921   7.963   5.016 -0.1813  1.1589  1.5707
16815SOL    HW251024   0.931   7.826   5.081 -0.7660  1.3242  2.0169
16816SOL     OW51025   9.058   2.640   7.795 -0.1460  0.3625 -0.3369
16816SOL    HW151026   9.031   2.681   7.712  0.6046 -2.6935 -2.2776
16816SOL    HW251027   9.154   2.648   7.795 -0.2461  2.7748  1.7480
16817SOL     OW51028   6.681   3.205   8.320  0.0738  0.3727 -0.5137
16817SOL    HW151029   6.732   3.255   8.384  0.0206  0.4136 -0.5037
16817SOL    HW251030   6.652   3.127   8.367  1.2373 -0.3058 -0.8920
16818SOL     OW51031   2.593   6.640   5.712 -0.7756 -0.2545 -0.3796
16818SOL    HW151032   2.669   6.671   5.662 -0.7949 -0.0300 -0.2704
16818SOL    HW251033   2.569   6.714   5.767 -0.6974 -0.5369  0.0333
16819SOL     OW51034   2.016   3.332   4.224 -0.0625  0.7308  0.1033
16819SOL    HW151035   1.996   3.406   4.168 -0.2201  0.2408 -0.4991
16819SOL    HW251036   1.936   3.279   4.225  0.3813  0.0209 -0.3544
16820SOL     OW51037   2.056   6.832   1.439 -0.4622 -0.4147  0.0887
16820SOL    HW151038   2.094   6.809   1.524 -1.6182  1.6938  1.2619
16820SOL    HW251039   2.130   6.863   1.387  0.1538 -1.0476  0.5727
16821SOL     OW51040   9.274   2.069   4.828 -0.7546  0.1733 -0.3473
16821SOL    HW151041   9.199   2.119   4.795 -2.6781 -2.5119 -0.4238
16821SOL    HW251042   9.271   2.080   4.923 -1.0847  0.2995 -0.3716
16822SOL     OW51043   5.572   2.263   4.046  0.1504  0.0634  0.3566
16822SOL    HW151044   5.645   2.313   4.084 -0.2182 -0.4297  1.7808
16822SOL    HW251045   5.567   2.184   4.100  0.2449 -1.1758 -1.3846
16823SOL     OW51046   4.053   2.414   1.511  0.2856  0.5929 -0.2491
16823SOL    HW151047   4.026   2.432   1.601  1.4885 -0.4973  0.3560
16823SOL    HW251048   4.130   2.469   1.497 -1.7006  3.2633 -1.7811
16824SOL     OW51049   9.670   8.417   2.476 -0.3791 -0.2200  0.2323
16824SOL    HW151050   9.651   8.432   2.384 -1.0888 -1.5317  0.1382
16824SOL    HW251051   9.695   8.503   2.510 -2.6371  0.8177 -0.5742
16825SOL     OW51052   6.760   1.582   7.441 -0.5718 -0.1211 -0.1026
16825SOL    HW151053   6.709   1.656   7.411 -3.9906 -2.3190 -0.2931
16825SOL    HW251054   6.821   1.618   7.505 -1.0278  2.9717 -1.2679
16826SOL     OW51055   8.087   3.928   5.577 -0.3481  0.5323  0.5728
16826SOL    HW151056   8.076   3.875   5.656  0.4412 -2.0748 -0.9710
16826SOL    HW251057   7.999   3.939   5.543 -0.6247  1.1242  1.4493
16827SOL     OW51058   6.624   4.305   0.184 -0.2291 -0.3557 -0.7029
16827SOL    HW151059   6.716   4.334   0.187  0.4444 -2.3504 -0.4421
16827SOL    HW251060   6.594   4.330   0.096  0.7921 -0.2684 -1.0452
16828SOL     OW51061   3.225   4.340   8.804  0.5513 -0.9180  0.3059
16828SOL    HW151062   3.280   4.308   8.876  0.4321 -0.1054  0.7642
16828SOL    HW251063   3.164   4.268   8.787 -0.3853 -0.5587  2.0097
16829SOL     OW51064   1.136   1.584   3.064 -0.3953  0.6345 -0.4870
16829SOL    HW151065   1.180   1.657   3.108 -0.8843  0.1723  0.8016
16829SOL    HW251066   1.192   1.509   3.080 -0.9067  0.3332 -0.0779
16830SOL     OW51067   4.048   7.640   8.539  0.2279 -0.0503 -0.2279
16830SOL    HW151068   4.011   7.581   8.604 -0.0806 -0.1342 -0.4742
16830SOL    HW251069   3.993   7.719   8.544 -0.2908 -0.3510 -0.9138
16831SOL     OW51070   2.385   7.918   9.870  0.5823 -0.3461  0.2328
16831SOL    HW151071   2.295   7.927   9.838  0.5264 -1.3180  0.0684
16831SOL    HW251072   2.438   7.910   9.790  0.9289  1.0494  0.3065
16832SOL     OW51073   2.390   2.849   0.697  0.2298  0.0479  0.7346
16832SOL    HW151074   2.442   2.886   0.626  0.8463 -1.2498  0.4907
16832SOL    HW251075   2.448   2.786   0.739 -0.6706 -0.3713  1.3786
16833SOL     OW51076   2.349   0.231   5.581 -0.7812 -0.0579 -0.2407
16833SOL    HW151077   2.419   0.296   5.579  0.0763 -0.9444  0.3949
16833SOL    HW251078   2.352   0.189   5.496  0.1665 -0.8081  0.1459
16834SOL     OW51079   6.879   1.530   1.058 -0.5413 -0.2256  0.2236
16834SOL    HW151080   6.800   1.491   1.022 -0.5184  0.9794 -1.2417
16834SOL    HW251081   6.935   1.456   1.080 -1.4081 -1.0495 -0.2662
16835SOL     OW51082   1.345   1.586   9.486 -0.2149 -0.7252  0.2696
16835SOL    HW151083   1.300   1.662   9.524 -1.1055 -0.9112 -0.3883
16835SOL    HW251084   1.361   1.529   9.561 -0.3151 -0.2734  0.6433
16836SOL     OW51085   3.904   4.112   8.016  0.5648 -0.0313 -0.4977
16836SOL    HW151086   3.864   4.061   8.086  0.8702 -0.8231 -0.8921
16836SOL    HW251087   3.987   4.142   8.052  0.5129 -0.0490 -0.3636
16837SOL     OW51088   6.051   2.080   6.402  0.0736 -0.3379  0.2734
16837SOL    HW151089   6.125   2.043   6.353  0.7733  1.3302 -0.0227
16837SOL    HW251090   6.076   2.172   6.417 -1.2434 -0.1524  1.5826
16838SOL     OW51091   0.889   8.010   3.117 -0.3237  0.1972 -0.0395
16838SOL    HW151092   0.932   8.024   3.033  0.7090 -0.4920  0.3453
16838SOL    HW251093   0.935   7.934   3.155 -1.2085  0.0800  0.8497
16839SOL     OW51094   3.125   1.996   5.186  0.6160 -0.2015 -0.3192
16839SOL    HW151095   3.145   1.942   5.263  0.8025  0.8015  0.3518
16839SOL    HW251096   3.036   1.971   5.162  0.4441 -0.3120  0.4108
16840SOL     OW51097   2.079   7.329   5.671 -0.3948  0.4369  0.1675
16840SOL    HW151098   2.107   7.403   5.725  1.4442  0.9058 -1.3126
16840SOL    HW251099   2.137   7.331   5.595 -1.5404 -1.4153 -0.8473
16841SOL     OW51100   6.499   5.581   5.427 -0.4021  0.5220  0.5087
16841SOL    HW151101   6.439   5.630   5.370 -0.0866 -1.3939 -1.6065
16841SOL    HW251102   6.454   5.498   5.443 -0.1399  0.7241  2.5014
16842SOL     OW51103   4.291   5.800   9.681 -0.2189 -0.0666 -0.2563
16842SOL    HW151104   4.319   5.886   9.714 -0.3825  0.0776 -0.4833
16842SOL    HW251105   4.333   5.737   9.738 -0.6515  0.1798  0.3460
16843SOL     OW51106   7.665   7.987   1.023 -0.2444  0.5242 -0.0119
16843SOL    HW151107   7.604   7.938   1.079  2.1949  0.3546  2.7276
16843SOL    HW251108   7.728   7.921   0.994  1.0789  1.3811  0.8239
16844SOL     OW51109   5.425   5.225   1.434 -0.3122 -0.1145 -0.0222
16844SOL    HW151110   5.402   5.153   1.492  0.7066 -0.4892 -0.0717
16844SOL    HW251111   5.427   5.187   1.347  0.1527 -0.0188 -0.0581
16845SOL     OW51112   6.497   6.595   8.003 -0.3754 -0.2605 -0.7524
16845SOL    HW151113   6.435   6.620   7.935 -2.3481  0.4084  1.1757
16845SOL    HW251114   6.454   6.523   8.050  0.9429 -0.7400 -0.2317
16846SOL     OW51115   7.239  -0.007   6.704  0.2175  0.5784  0.3169
16846SOL    HW151116   7.197   0.079   6.707  1.3414  1.1262  1.0687
16846SOL    HW251117   7.306   0.001   6.636  0.3427  0.3005  0.4065
16847SOL     OW51118   9.036   5.063   8.354  0.4623 -0.1616  0.5932
16847SOL    HW151119   9.118   5.014   8.346  1.5934  1.6943  0.0573
16847SOL    HW251120   8.968   4.996   8.357  1.8687 -1.7455 -0.5451
16848SOL     OW51121   3.539   7.095   7.548  0.5682 -0.2053 -0.4050
16848SOL    HW151122   3.546   7.006   7.516 -0.3115 -0.6946  0.6959
16848SOL    HW251123   3.543   7.088   7.643 -2.0232  0.5956 -0.1311
16849SOL     OW51124   6.314   0.424   9.951 -0.2250 -0.3617 -0.5476
16849SOL    HW151125   6.319   0.519   9.939 -0.4138  0.0462  2.0385
16849SOL    HW251126   6.402   0.393   9.934  0.2004  0.4998  0.0041
16850SOL     OW51127   5.052   0.671   5.688  0.1738 -0.0849  0.8359
16850SOL    HW151128   5.143   0.651   5.666 -0.4597 -0.6304 -1.6038
16850SOL    HW251129   5.057   0.741   5.753  2.3200  2.2054 -1.6075
16851SOL     OW51130   4.463   2.578   4.347 -0.2120  0.0677  0.0950
16851SOL    HW151131   4.388   2.627   4.383 -0.5906 -0.9523  0.7431
16851SOL    HW251132   4.448   2.488   4.376  1.3094 -0.1425  0.2827
16852SOL     OW51133   3.841   2.645   2.743  0.2805  0.0307  0.4562
16852SOL    HW151134   3.807   2.628   2.830 -1.0740 -0.9335 -0.2302
16852SOL    HW251135   3.763   2.657   2.688  1.1019  1.3376 -0.5031
16853SOL     OW51136   1.146   4.968   8.828  0.3856 -0.1277  0.1575
16853SOL    HW151137   1.144   4.962   8.923  2.3057 -0.5883  0.2122
16853SOL    HW251138   1.055   4.982   8.802  0.0678  2.2874  2.1947
16854SOL     OW51139   1.749   5.941   3.867  0.0141  0.4760  0.2398
16854SOL    HW151140   1.842   5.947   3.886  0.6080 -0.7436 -1.9356
16854SOL    HW251141   1.711   5.903   3.947  1.3116  1.1871  1.2385
16855SOL     OW51142   7.019   3.754   1.396  0.0974 -0.0569 -0.2206
16855SOL    HW151143   7.031   3.691   1.468 -2.4692 -0.0961  0.2691
16855SOL    HW251144   7.093   3.737   1.337  0.3668 -2.4381  0.6913
16856SOL     OW51145   9.319   7.867   3.351  0.2433  0.1370  0.0743
16856SOL    HW151146   9.379   7.860   3.277  0.7486 -0.6486  0.5482
16856SOL    HW251147   9.247   7.808   3.328  1.8361 -2.5388  1.5307
16857SOL     OW51148   2.030   6.723   6.737 -0.3567 -0.6401 -0.0884
16857SOL    HW151149   2.101   6.659   6.729 -1.4703 -1.8765 -0.3382
16857SOL    HW251150   2.063   6.787   6.800  0.7973 -1.4238  0.1363
16858SOL     OW51151   2.255   8.656   7.344  0.4001  0.5024 -0.0637
16858SOL    HW151152   2.184   8.637   7.282 -1.5091  1.4388  1.6922
16858SOL    HW251153   2.214   8.647   7.430  2.9271 -0.6855  1.1298
16859SOL     OW51154   8.271   3.247   5.478 -0.5006  0.1133 -0.1215
16859SOL    HW151155   8.244   3.260   5.569 -0.5367 -3.1326  0.4562
16859SOL    HW251156   8.366   3.251   5.480 -0.5216  0.7663 -0.1131
16860SOL     OW51157   8.486   8.206   4.973 -0.5832 -0.1800  0.4721
16860SOL    HW151158   8.513   8.295   4.993  0.6331 -0.6343  0.9929
16860SOL    HW251159   8.530   8.152   5.040  0.6891 -1.3939 -1.2420
16861SOL     OW51160   8.864   8.640   0.192  0.1193  0.0724 -0.3950
16861SOL    HW151161   8.917   8.660   0.269  0.2049 -1.1322 -0.1189
16861SOL    HW251162   8.860   8.722   0.143  1.8425  0.3208 -0.1871
16862SOL     OW51163   5.520   0.451   6.405  0.2695 -0.3797  0.0109
16862SOL    HW151164   5.606   0.466   6.443 -0.2395  0.3550  0.9045
16862SOL    HW251165   5.516   0.356   6.393  2.0818 -0.2645 -2.2509
16863SOL     OW51166   6.356   8.721   1.198  0.5568  0.1465  0.1289
16863SOL    HW151167   6.414   8.785   1.240 -0.5802  1.3321 -0.0293
16863SOL    HW251168   6.269   8.744   1.231 -0.0116 -0.6530 -0.7842
16864SOL     OW51169   5.489   8.335   5.101 -0.0872 -0.0977  0.5358
16864SOL    HW151170   5.443   8.272   5.046 -0.4096 -0.6039  1.3697
16864SOL    HW251171   5.429   8.353   5.173  0.5277  0.1593  0.9967
16865SOL     OW51172   0.805   4.688   7.443  0.6112  0.2057 -0.0485
16865SOL    HW151173   0.787   4.780   7.459 -2.1030 -0.0508 -1.0513
16865SOL    HW251174   0.837   4.684   7.353  1.0818  0.1748  0.1141
16866SOL     OW51175   8.600   4.394   7.246 -0.7803 -0.2908  0.1504
16866SOL    HW151176   8.678   4.339   7.254 -2.3395 -2.6831 -0.0156
16866SOL    HW251177   8.572   4.409   7.337  0.8040  2.1204  0.3103
16867SOL     OW51178   7.156   1.643   6.391 -0.4329  0.3246 -0.4101
16867SOL    HW151179   7.159   1.551   6.418  0.4752  0.3730 -0.3162
16867SOL    HW251180   7.228   1.684   6.439 -0.3360  0.9208 -1.0601
16868SOL     OW51181   7.163   0.981   7.435 -0.1856 -0.1073 -0.2447
16868SOL    HW151182   7.095   0.932   7.390  0.6537 -0.6672 -0.9499
16868SOL    HW251183   7.167   0.944   7.523  0.6966 -1.6051 -0.8818
16869SOL     OW51184   4.775   6.297   9.795 -0.0174  0.2571 -0.2050
16869SOL    HW151185   4.768   6.372   9.854 -2.2862  0.0534 -0.1292
16869SOL    HW251186   4.751   6.332   9.709 -0.6242 -0.2685 -0.2548
16870SOL     OW51187   6.074   9.678   0.145 -0.2326 -0.7750  0.3586
16870SOL    HW151188   6.124   9.597   0.150  0.6813 -0.3925 -1.6231
16870SOL    HW251189   5.983   9.649   0.139  0.0215 -1.6177  0.4202
16871SOL     OW51190   1.735   9.761   7.675 -0.5668 -0.0383  0.2632
16871SOL    HW151191   1.744   9.855   7.665 -0.9637 -0.0656 -0.4261
16871SOL    HW251192   1.754   9.726   7.588 -1.6093 -0.4998  0.2127
16872SOL     OW51193   8.460   7.515   7.229  0.2745  0.3757  0.2678
16872SOL    HW151194   8.467   7.539   7.322  1.5760  2.1799 -0.2511
16872SOL    HW251195   8.368   7.528   7.208 -0.7547 -2.9531  1.9814
16873SOL     OW51196   3.298   7.368   9.875 -0.3025 -0.1763  0.6857
16873SOL    HW151197   3.246   7.288   9.880 -0.3782 -0.2512 -0.8928
16873SOL    HW251198   3.260   7.417   9.802  0.4389  0.8038  0.9327
16874SOL     OW51199   0.127   2.378   7.044  0.1611 -0.2923  0.3718
16874SOL    HW151200   0.154   2.449   6.986 -0.7185  0.0977  0.4335
16874SOL    HW251201   0.115   2.421   7.129  0.0217 -0.5886  0.5009
16875SOL     OW51202   0.953   5.248   4.695 -0.1464 -0.2902  0.2104
16875SOL    HW151203   0.924   5.311   4.629 -0.1426  0.5287  0.9849
16875SOL    HW251204   1.038   5.280   4.724  0.0438 -0.8816  0.3257
16876SOL     OW51205   2.733   7.576   8.901 -0.0183 -0.1696  0.3339
16876SOL    HW151206   2.759   7.667   8.885 -0.4147 -0.3214 -1.3992
16876SOL    HW251207   2.759   7.559   8.991  2.0375  1.0025  0.0307
16877SOL     OW51208   2.864   3.997   4.093  0.1288 -0.3129  0.5490
16877SOL    HW151209   2.942   3.977   4.042 -0.7993 -0.2186 -0.9729
16877SOL    HW251210   2.867   4.092   4.106  0.0874 -0.2569  0.1629
16878SOL     OW51211   9.109   1.758   8.793  0.0383  0.4328  0.7001
16878SOL    HW151212   9.142   1.842   8.760  0.9687 -0.1173  0.1697
16878SOL    HW251213   9.185   1.700   8.790 -1.2761 -1.4259 -2.2934
16879SOL     OW51214   2.254   9.410   3.230  0.3649  0.1807 -0.3702
16879SOL    HW151215   2.237   9.318   3.210 -1.7636  0.4586 -0.0449
16879SOL    HW251216   2.282   9.447   3.146 -1.2597 -0.2406 -1.1323
16880SOL     OW51217   6.824   8.380   5.887  0.3602 -0.5822 -0.2490
16880SOL    HW151218   6.737   8.392   5.850  0.3433  0.5105  0.1220
16880SOL    HW251219   6.831   8.285   5.902  0.1241 -1.0024 -2.4156
16881SOL     OW51220   3.539   4.308   3.633 -0.3953  0.4337 -0.2606
16881SOL    HW151221   3.484   4.238   3.668 -0.1064  0.2784 -0.1166
16881SOL    HW251222   3.532   4.379   3.697 -0.2402  0.3249 -0.1220
16882SOL     OW51223   9.635   0.072   7.219 -0.4141 -0.2125 -0.3760
16882SOL    HW151224   9.599   0.159   7.237 -1.0363 -0.5843  0.1834
16882SOL    HW251225   9.559   0.018   7.200 -0.0842 -0.8041 -0.0276
16883SOL     OW51226   6.072   4.465   6.224  0.6274  0.3754  0.3650
16883SOL    HW151227   6.043   4.555   6.242  1.7300  0.8544 -0.1284
16883SOL    HW251228   6.056   4.452   6.131  1.3670  0.4244  0.2231
16884SOL     OW51229   7.348   1.848   3.804 -0.1827 -0.3149 -0.1604
16884SOL    HW151230   7.273   1.897   3.769  0.4967  0.6407 -0.3250
16884SOL    HW251231   7.309   1.772   3.847 -1.3169  0.6149  0.5223
16885SOL     OW51232   1.939   5.870   8.217 -0.4244 -0.0670  0.1027
16885SOL    HW151233   1.956   5.880   8.311  0.7916  1.1049 -0.2192
16885SOL    HW251234   1.854   5.912   8.203 -0.3816  0.1863  0.5959
16886SOL     OW51235   3.070   0.276   6.722  0.6224  0.6310 -0.1878
16886SOL    HW151236   3.051   0.261   6.629 -2.1160 -2.5411  0.6896
16886SOL    HW251237   3.070   0.189   6.761  1.1030  1.8965  2.9306
16887SOL     OW51238   3.647   0.402   8.520 -0.2099 -0.2117 -0.0636
16887SOL    HW151239   3.719   0.416   8.459  0.5557 -2.5209  0.2361
16887SOL    HW251240   3.681   0.430   8.605 -0.7401  1.5215 -0.3892
16888SOL     OW51241   9.010   7.519   4.561  0.1464  0.3750 -0.4040
16888SOL    HW151242   9.086   7.576   4.550  1.2805 -0.7304  1.2184
16888SOL    HW251243   9.033   7.439   4.514 -0.5068  0.4403 -0.8512
16889SOL     OW51244   4.192   1.790   5.946  0.1763  0.0968  0.0354
16889SOL    HW151245   4.200   1.704   5.986  0.5193  0.3407  0.4968
16889SOL    HW251246   4.138   1.775   5.868  1.0443 -0.7025 -0.4287
16890SOL     OW51247   1.456   3.605   4.671  0.0120 -0.2827 -0.1329
16890SOL    HW151248   1.466   3.663   4.747 -2.6484  1.4133 -0.9739
16890SOL    HW251249   1.507   3.647   4.602  0.5426 -0.6122  0.0436
16891SOL     OW51250   3.610   6.960   2.476 -0.0030  0.2453 -0.0242
16891SOL    HW151251   3.659   7.042   2.465 -2.2094  1.5178 -1.1507
16891SOL    HW251252   3.609   6.945   2.570  1.1267  1.0656  0.1375
16892SOL     OW51253   6.051   0.623   8.985 -0.0387  0.0463 -0.5147
16892SOL    HW151254   6.102   0.580   9.053 -0.3833  0.8593  0.2868
16892SOL    HW251255   6.115   0.676   8.938  0.1700 -0.3765 -0.7106
16893SOL     OW51256   5.694   4.248   8.473  0.1801 -0.3100  0.4765
16893SOL    HW151257   5.678   4.237   8.379 -0.2709 -2.7633  0.7778
16893SOL    HW251258   5.610   4.276   8.509 -0.0943 -1.0120  0.3783
16894SOL     OW51259   0.297   2.871   7.582 -0.3442 -0.6549  0.1186
16894SOL    HW151260   0.356   2.798   7.562 -0.6032 -1.0530  0.7677
16894SOL    HW251261   0.293   2.922   7.501  0.6808 -0.7665 -0.0109
16895SOL     OW51262   3.115   0.609   9.342  0.2104  0.8763  0.3126
16895SOL    HW151263   3.163   0.615   9.259 -3.3306 -0.3484 -2.0714
16895SOL    HW251264   3.134   0.521   9.374 -0.7399  0.2408 -0.8324
16896SOL     OW51265   1.083   3.619   8.567 -0.0770 -0.2971  0.5524
16896SOL    HW151266   1.105   3.571   8.647  0.1567 -0.4299  0.4109
16896SOL    HW251267   1.162   3.614   8.514  0.1665  0.7999  0.8021
16897SOL     OW51268   1.507   4.040   5.150  0.0212 -0.5198 -0.3771
16897SOL    HW151269   1.593   4.000   5.158  0.7776  1.2735  0.9476
16897SOL    HW251270   1.510   4.086   5.066  0.5906  0.0330 -0.0622
16898SOL     OW51271   9.408   3.704   2.265 -0.1289  0.3534 -0.4350
16898SOL    HW151272   9.414   3.799   2.256  0.6559  0.1892 -2.1312
16898SOL    HW251273   9.316   3.684   2.248 -0.3219  0.8240  0.0436
16899SOL     OW51274   2.658   2.469   4.837 -0.3680  0.4513  0.2903
16899SOL    HW151275   2.715   2.483   4.761 -1.8104  0.2426 -0.8867
16899SOL    HW251276   2.689   2.532   4.902  0.5175  1.0838 -0.6956
16900SOL     OW51277   7.827   8.823   2.262 -0.3108  0.3264 -0.3705
16900SOL    HW151278   7.752   8.839   2.320  1.8896 -2.5536  3.7185
16900SOL    HW251279   7.885   8.898   2.278 -0.6182  0.5997 -0.5169
16901SOL     OW51280   4.764   8.175   7.570  0.2517 -0.4725 -0.5341
16901SOL    HW151281   4.749   8.202   7.479 -1.4198 -0.8376 -0.3896
16901SOL    HW251282   4.842   8.120   7.565  0.2880 -0.3475 -1.7276
16902SOL     OW51283   9.816   0.886   3.386  0.0494  0.1351 -0.3405
16902SOL    HW151284   9.861   0.801   3.375  1.7874  0.8021  1.0710
16902SOL    HW251285   9.866   0.946   3.331  0.6691  0.7987  0.8975
16903SOL     OW51286   9.579   8.167   6.228  0.2428  0.1900  1.0179
16903SOL    HW151287   9.492   8.205   6.240  0.3908  1.4535 -1.3247
16903SOL    HW251288   9.568   8.101   6.159  1.3474  1.4943 -0.4949
16904SOL     OW51289   9.680   5.347   4.169  0.1342  0.2107 -0.1052
16904SOL    HW151290   9.724   5.428   4.144  1.0144 -0.1745  0.1608
16904SOL    HW251291   9.750   5.289   4.197 -0.4270 -0.8670 -0.8730
16905SOL     OW51292   7.526   8.520   5.692 -0.2111  0.3616  0.5530
16905SOL    HW151293   7.529   8.433   5.732  1.3278  0.1729  0.0623
16905SOL    HW251294   7.562   8.578   5.759  2.7282 -0.0060 -0.5567
16906SOL     OW51295   4.013   5.307   1.006  0.5792  1.0475 -0.2384
16906SOL    HW151296   4.054   5.327   1.091  2.1090  3.1437 -1.3677
16906SOL    HW251297   3.921   5.328   1.019  0.7763  1.3117  0.9021
16907SOL     OW51298   2.081   5.106   3.315  0.3460  0.1156  0.0201
16907SOL    HW151299   2.172   5.080   3.332 -0.5229 -1.9827  1.9191
16907SOL    HW251300   2.063   5.174   3.379 -0.0626 -1.1323  1.2957
16908SOL     OW51301   7.284   6.507   6.676 -0.6529 -0.0989 -0.3675
16908SOL    HW151302   7.363   6.517   6.729  0.1533 -1.0004 -1.3492
16908SOL    HW251303   7.237   6.434   6.716 -0.3543 -0.3771 -0.5196
16909SOL     OW51304   2.532   8.661   6.274 -0.2076  0.1006  0.2804
16909SOL    HW151305   2.438   8.639   6.275 -0.3087  0.5292  0.9674
16909SOL    HW251306   2.565   8.627   6.358  0.4062 -0.6605 -0.2559
16910SOL     OW51307   0.330   8.276   2.369  0.1854  0.7539 -0.2891
16910SOL    HW151308   0.377   8.332   2.307 -0.0672  1.6203  0.2702
16910SOL    HW251309   0.380   8.285   2.451  0.3462 -0.1371 -0.2862
16911SOL     OW51310   2.059   9.681   2.334  0.1917  0.3992 -0.1738
16911SOL    HW151311   2.149   9.651   2.348  1.3698  3.1424 -1.2199
16911SOL    HW251312   2.068   9.773   2.310 -2.7984  0.3206 -2.0370
16912SOL     OW51313   9.441   2.586   7.991  0.3959 -0.1520  0.1941
16912SOL    HW151314   9.535   2.603   8.002  0.5010  1.0279 -2.1249
16912SOL    HW251315   9.425   2.597   7.898 -2.0212 -0.6505  0.4929
16913SOL     OW51316   5.146   3.440   1.234 -0.2723 -0.2726  0.2567
16913SOL    HW151317   5.114   3.360   1.275  0.3100 -0.3143  0.6445
16913SOL    HW251318   5.164   3.415   1.143  1.2862 -0.9899  0.7231
16914SOL     OW51319   1.981   0.571   5.059  0.0004 -0.0632 -0.0311
16914SOL    HW151320   1.902   0.576   5.113 -0.1261 -0.2322 -0.1969
16914SOL    HW251321   2.016   0.484   5.077  0.6203  0.3210  0.6882
16915SOL     OW51322   7.453   9.918   6.177 -0.0072  0.1487 -0.8061
16915SOL    HW151323   7.501   9.887   6.254  1.3673  0.8505 -1.3418
16915SOL    HW251324   7.367   9.943   6.211  0.1531 -0.6848  0.2771
16916SOL     OW51325   6.712   9.298   7.885  0.3216 -0.1853  0.3665
16916SOL    HW151326   6.709   9.206   7.860  1.7747 -0.0031 -0.6474
16916SOL    HW251327   6.735   9.297   7.978  1.9460 -0.8825  0.0051
16917SOL     OW51328   8.351   8.657   8.193  0.4120 -0.9408  0.1119
16917SOL    HW151329   8.410   8.731   8.179  0.6652 -0.8399  1.5873
16917SOL    HW251330   8.301   8.651   8.111  2.2693 -0.8831 -1.1010
16918SOL     OW51331   5.976   8.628   0.501 -0.3207 -0.3579  0.0104
16918SOL    HW151332   5.985   8.539   0.535 -1.3891  0.1681  1.7919
16918SOL    HW251333   5.922   8.618   0.422  0.3862 -1.3715 -0.3774
16919SOL     OW51334   6.163   6.003   6.380 -0.2070  0.0845  0.0261
16919SOL    HW151335   6.223   5.963   6.316  0.8898 -0.2234  1.2106
16919SOL    HW251336   6.078   6.003   6.336  0.1734 -1.6737 -0.7967
16920SOL     OW51337   7.351   4.057   7.810  0.2709  0.6577  0.4470
16920SOL    HW151338   7.379   4.140   7.849  0.7643  0.8237 -0.2528
16920SOL    HW251339   7.432   4.014   7.784 -0.0542  1.2807 -1.8839
16921SOL     OW51340   8.218   7.796   8.759  0.0140  0.1158 -0.3460
16921SOL    HW151341   8.204   7.701   8.764 -1.2868  0.3293  1.1545
16921SOL    HW251342   8.130   7.833   8.766  0.6370  1.4577  1.0550
16922SOL     OW51343   7.642   3.734   3.402 -0.2540  0.3606 -0.1289
16922SOL    HW151344   7.616   3.800   3.337 -0.0145 -0.0088 -0.5987
16922SOL    HW251345   7.601   3.653   3.372 -2.4593  0.7170  1.6605
16923SOL     OW51346   0.541   4.119   3.746  0.6117 -0.1271 -0.2360
16923SOL    HW151347   0.619   4.150   3.699  0.7524 -0.9208 -0.5576
16923SOL    HW251348   0.471   4.120   3.681  0.1327  1.4007  0.2765
16924SOL     OW51349   7.672   8.865   8.300  0.8126 -0.2382  0.2659
16924SOL    HW151350   7.600   8.900   8.352  0.3508 -1.5593  0.5620
16924SOL    HW251351   7.751   8.880   8.352  0.9231  2.0488 -0.4599
16925SOL     OW51352   3.592   3.998   1.968  0.0097  0.3161 -0.0323
16925SOL    HW151353   3.578   4.063   1.900  2.8612 -2.1415 -3.3070
16925SOL    HW251354   3.528   3.929   1.949  0.8559 -0.4087 -0.3000
16926SOL     OW51355   0.878   4.812   1.568  0.8593 -0.1778  0.1443
16926SOL    HW151356   0.930   4.835   1.491  2.0689 -1.2834  0.5949
16926SOL    HW251357   0.925   4.739   1.609  0.1076  0.2002  1.7895
16927SOL     OW51358   9.500   6.355   6.017 -0.0944  0.6305 -0.2170
16927SOL    HW151359   9.581   6.391   6.053  0.7741 -1.5294  0.1230
16927SOL    HW251360   9.471   6.420   5.953  0.9863  2.2293  0.8478
16928SOL     OW51361   7.392   3.392   4.253 -0.0112 -0.0171  0.3031
16928SOL    HW151362   7.375   3.348   4.170 -1.8900  1.3995 -0.1307
16928SOL    HW251363   7.469   3.446   4.236  0.1008 -0.3426 -0.2658
16929SOL     OW51364   4.070   7.626   6.670 -0.0408 -0.4878  0.6709
16929SOL    HW151365   3.989   7.576   6.665  0.0445 -0.8676  2.3600
16929SOL    HW251366   4.139   7.560   6.670  0.3476 -0.1403 -1.4687
16930SOL     OW51367   1.144   1.083   1.457 -0.6459 -0.2460 -0.6054
16930SOL    HW151368   1.192   1.159   1.491 -0.2152 -1.5245  1.8708
16930SOL    HW251369   1.212   1.031   1.414 -0.8939  0.5658 -2.0613
16931SOL     OW51370   1.798   7.663   2.014 -0.4972 -0.0239  0.3238
16931SOL    HW151371   1.789   7.728   1.944 -0.4069 -1.6414 -1.2609
16931SOL    HW251372   1.884   7.624   2.000 -1.3600 -1.8709 -0.0378
16932SOL     OW51373   0.293   0.667   1.605  0.0033 -0.6779  0.6130
16932SOL    HW151374   0.206   0.700   1.628  0.2155  0.7007 -0.4460
16932SOL    HW251375   0.347   0.745   1.595  0.8622 -1.3899 -0.7363
16933SOL     OW51376   6.719   5.888   9.669  0.0589 -0.0683 -0.0412
16933SOL    HW151377   6.761   5.862   9.587 -0.3906  0.7953 -0.5464
16933SOL    HW251378   6.764   5.835   9.736  1.6389  0.4782 -0.6199
16934SOL     OW51379   3.171   3.112   6.284  0.2768 -0.1856  0.1000
16934SOL    HW151380   3.166   3.035   6.340 -0.3716 -1.7302 -1.9725
16934SOL    HW251381   3.105   3.172   6.321 -0.1115 -1.1269  1.0033
16935SOL     OW51382   8.049   8.917   7.368  0.1519 -0.1853 -0.7727
16935SOL    HW151383   8.119   8.859   7.399 -0.4756 -0.6197 -0.1555
16935SOL    HW251384   8.078   8.944   7.281  1.1464 -0.2622 -0.4800
16936SOL     OW51385   4.859   7.268   6.624  0.2655 -0.3842 -1.0645
16936SOL    HW151386   4.824   7.269   6.714 -0.6208 -2.1326 -1.3456
16936SOL    HW251387   4.952   7.250   6.635  0.2825  0.0361 -0.4708
16937SOL     OW51388   8.992   0.415   6.729 -0.0266 -0.7925 -0.0048
16937SOL    HW151389   9.088   0.416   6.731  0.0487  2.5542  1.8108
16937SOL    HW251390   8.969   0.458   6.647  0.2687  3.0342  1.7375
16938SOL     OW51391   5.168   7.766   1.216 -0.3379  0.4896  0.1564
16938SOL    HW151392   5.088   7.734   1.176  0.0042 -1.3483  0.8267
16938SOL    HW251393   5.144   7.787   1.306  0.4263 -2.9593  1.3195
16939SOL     OW51394   1.607   6.683   4.783 -0.2700 -0.0576  0.3276
16939SOL    HW151395   1.647   6.663   4.699 -0.4013 -2.4331  0.7530
16939SOL    HW251396   1.563   6.767   4.770  1.3861  0.6170 -1.3401
16940SOL     OW51397   6.635   0.505   1.229  0.0863 -0.7968  0.8375
16940SOL    HW151398   6.730   0.502   1.242  0.1145 -1.5586  0.5047
16940SOL    HW251399   6.624   0.496   1.135 -0.3938 -2.9766  1.0632
16941SOL     OW51400   6.404   0.157   0.838 -0.4005 -0.1712  0.6516
16941SOL    HW151401   6.490   0.127   0.808 -0.2541  0.5652  0.3250
16941SOL    HW251402   6.392   0.113   0.923  0.5494  0.1623  0.9726
16942SOL     OW51403   8.183   7.387   9.850 -0.5075  0.0963 -0.8332
16942SOL    HW151404   8.122   7.349   9.786  2.4615 -3.7438 -1.7988
16942SOL    HW251405   8.185   7.324   9.922 -0.6888  2.2570  1.1743
16943SOL     OW51406   7.327   0.720   8.560 -0.0656 -0.4699 -0.2551
16943SOL    HW151407   7.412   0.683   8.585  1.0156  0.6222 -2.0418
16943SOL    HW251408   7.263   0.671   8.612  1.5185 -2.4536 -0.0303
16944SOL     OW51409   5.262   5.667   9.647 -0.0896 -0.9411  0.0491
16944SOL    HW151410   5.292   5.716   9.571  0.8659  0.2345  1.1232
16944SOL    HW251411   5.227   5.585   9.612  0.2539 -0.3929 -1.6323
16945SOL     OW51412   6.311   4.500   0.111  0.7214  0.1318 -0.2804
16945SOL    HW151413   6.386   4.468   0.060  1.1424  2.2034 -1.0575
16945SOL    HW251414   6.350   4.542   0.187  0.4825  2.1284 -1.1943
16946SOL     OW51415   7.611   4.890   9.223 -0.1371 -0.0107 -0.2657
16946SOL    HW151416   7.627   4.985   9.221  1.1689 -0.2082  0.1460
16946SOL    HW251417   7.522   4.881   9.189  0.2574  1.2394 -1.7838
16947SOL     OW51418   6.714   0.035   2.424 -0.3806  0.2855  0.4136
16947SOL    HW151419   6.731  -0.054   2.455  1.9346 -0.4137 -2.3970
16947SOL    HW251420   6.800   0.076   2.421 -0.6558  0.9073 -2.8849
16948SOL     OW51421   0.303   6.206   6.780 -0.6767 -0.4349  0.0049
16948SOL    HW151422   0.297   6.229   6.687 -0.8261  0.3313  0.1983
16948SOL    HW251423   0.353   6.277   6.819 -0.5167 -0.8153  0.4939
16949SOL     OW51424   0.776   0.749   6.850 -0.0959 -0.4606  0.3160
16949SOL    HW151425   0.789   0.654   6.852 -1.3104 -0.6428  0.2164
16949SOL    HW251426   0.689   0.762   6.887 -0.7595  0.4371 -1.4279
16950SOL     OW51427   9.075   3.048   4.537 -0.6709  0.6231  0.4507
16950SOL    HW151428   9.142   3.107   4.502 -1.8379  1.7760  0.1239
16950SOL    HW251429   9.001   3.104   4.558 -1.4329 -0.5880  1.1278
16951SOL     OW51430   6.444   6.455   1.269  0.1722 -0.1763  0.0610
16951SOL    HW151431   6.492   6.516   1.325  0.7974  0.9590 -1.6418
16951SOL    HW251432   6.426   6.504   1.189 -1.1696 -1.5694 -0.5546
16952SOL     OW51433   1.524   5.375   6.013  0.9244 -0.4215 -0.6923
16952SOL    HW151434   1.564   5.364   5.927  2.7993  1.3908 -0.1349
16952SOL    HW251435   1.446   5.429   5.996  1.7178  0.6082 -1.1877
16953SOL     OW51436   2.664   4.694   0.805 -0.6654  0.3558  0.4734
16953SOL    HW151437   2.727   4.669   0.873  1.3045  1.9555 -0.6466
16953SOL    HW251438   2.654   4.615   0.752  1.0121  0.2463  0.2641
16954SOL     OW51439   2.714   1.074   4.726  0.3659  0.6970 -0.0449
16954SOL    HW151440   2.787   1.104   4.673  1.1469  0.4368  0.8451
16954SOL    HW251441   2.755   1.047   4.809 -0.4769 -1.2733 -0.2210
16955SOL     OW51442   7.578   5.220   5.332 -0.0458 -0.0527  0.4932
16955SOL    HW151443   7.547   5.129   5.340  1.1515 -0.5735 -0.4873
16955SOL    HW251444   7.663   5.212   5.289  0.0667  1.5526  0.3841
16956SOL     OW51445   8.861   4.750   0.109  0.0198 -0.2691 -0.2495
16956SOL    HW151446   8.953   4.772   0.093 -0.1163  0.5227  0.0304
16956SOL    HW251447   8.838   4.798   0.188 -0.4898 -0.8866 -0.0195
16957SOL     OW51448   6.029   8.442   9.837 -0.1003  0.3480  0.3121
16957SOL    HW151449   6.111   8.481   9.868 -0.5193  0.6582  1.0724
16957SOL    HW251450   6.046   8.418   9.746  1.4930 -1.4136  0.9888
16958SOL     OW51451   0.438   4.601   5.084 -0.3252  0.1164 -0.2345
16958SOL    HW151452   0.489   4.678   5.058  0.5102  0.1435  1.3636
16958SOL    HW251453   0.383   4.631   5.156 -2.1424 -0.0993 -1.4598
16959SOL     OW51454   4.357   5.049   3.056  0.2336 -0.0496 -0.1799
16959SOL    HW151455   4.428   5.094   3.102 -0.1893  1.2209 -0.7310
16959SOL    HW251456   4.279   5.066   3.109  0.0216  0.0943 -0.5330
16960SOL     OW51457   8.693   3.683   4.176  0.0816  0.6450  0.1464
16960SOL    HW151458   8.601   3.712   4.174  0.6430  2.6382  0.9275
16960SOL    HW251459   8.743   3.763   4.166  1.7731 -0.1777  1.5672
16961SOL     OW51460   7.067   6.731   0.227  0.2053  0.0767  0.4069
16961SOL    HW151461   7.131   6.776   0.171 -0.7872  1.5548  0.3932
16961SOL    HW251462   6.991   6.719   0.171 -0.0749 -0.2702  0.8593
16962SOL     OW51463   9.859   8.295   2.920  0.2800 -0.2312  0.3755
16962SOL    HW151464   9.778   8.253   2.891  0.7035 -1.1635  0.4890
16962SOL    HW251465   9.834   8.344   2.998 -0.6844  1.5719 -0.9821
16963SOL     OW51466   3.184   6.772   6.077 -0.1072 -0.4130  0.1318
16963SOL    HW151467   3.270   6.811   6.094 -0.2175 -0.0362 -0.1667
16963SOL    HW251468   3.126   6.847   6.062 -0.7424 -0.6064  1.4662
16964SOL     OW51469   9.120   8.196   7.360  0.0662 -0.3661 -0.1984
16964SOL    HW151470   9.104   8.216   7.267 -1.2918 -0.6589 -0.0465
16964SOL    HW251471   9.033   8.183   7.397  0.4410  1.7354  1.5979
16965SOL     OW51472   0.139   5.446   8.628  0.2320 -0.4062  0.2119
16965SOL    HW151473   0.205   5.488   8.683  0.3935 -0.0017 -0.2833
16965SOL    HW251474   0.062   5.501   8.636  0.2568 -0.3455  0.0331
16966SOL     OW51475   5.788   2.844   0.277  0.2995 -0.6990 -0.1624
16966SOL    HW151476   5.724   2.775   0.297  2.2702 -2.6406 -0.1849
16966SOL    HW251477   5.777   2.861   0.183  0.2438 -1.4788 -0.3013
16967SOL     OW51478   4.661   9.884   4.429 -0.2521 -0.0432  0.2506
16967SOL    HW151479   4.656   9.920   4.517 -0.0132  1.1162 -0.1889
16967SOL    HW251480   4.687   9.793   4.441  0.5024  0.2987  1.3387
16968SOL     OW51481   7.269   3.304   4.494 -0.1466  0.4347 -0.3191
16968SOL    HW151482   7.326   3.291   4.418  2.0678  0.2118  1.2910
16968SOL    HW251483   7.259   3.399   4.500 -2.0381  0.4162 -1.9974
16969SOL     OW51484   3.423   5.168   6.782 -0.0249 -0.2430  0.2894
16969SOL    HW151485   3.332   5.198   6.781 -0.4872 -1.5954 -0.5903
16969SOL    HW251486   3.435   5.130   6.869 -0.7613 -1.3306 -0.0607
16970SOL     OW51487   8.772   7.116   8.847 -0.0582 -0.6052  0.1769
16970SOL    HW151488   8.856   7.092   8.885  0.2567 -0.6090 -0.5111
16970SOL    HW251489   8.781   7.095   8.754 -0.0492  1.4547 -0.3254
16971SOL     OW51490   7.137   4.354   0.325  0.1391  0.7382  0.0937
16971SOL    HW151491   7.161   4.446   0.314 -0.7141  0.8104 -1.4145
16971SOL    HW251492   7.216   4.305   0.305  0.5360  1.1290  0.6823
16972SOL     OW51493   2.472   1.353   5.688  0.4097  0.8768 -0.2787
16972SOL    HW151494   2.407   1.384   5.750  2.0189  1.3327  1.2680
16972SOL    HW251495   2.500   1.432   5.641  0.3279  0.7876 -0.4798
16973SOL     OW51496   1.250   4.644   6.017 -0.4011 -0.1817  0.2086
16973SOL    HW151497   1.192   4.576   5.982  0.3772 -0.3182 -0.9120
16973SOL    HW251498   1.230   4.722   5.965  0.2778 -0.1849 -0.0761
16974SOL     OW51499   7.210   6.523   5.653 -0.0633  0.0039  0.2917
16974SOL    HW151500   7.275   6.505   5.586 -1.1959 -0.2246 -0.7754
16974SOL    HW251501   7.258   6.571   5.721  1.1036  0.2349 -0.6697
16975SOL     OW51502   7.830   0.511   3.777 -0.1795 -0.2845 -0.2932
16975SOL    HW151503   7.764   0.442   3.770  0.3343 -0.7538 -0.5199
16975SOL    HW251504   7.909   0.467   3.807 -0.2133  0.4365  0.9111
16976SOL     OW51505   7.468   8.500   9.238 -0.6615  0.8482 -0.3285
16976SOL    HW151506   7.420   8.532   9.161  0.8424  2.0907 -0.7994
16976SOL    HW251507   7.516   8.423   9.206 -3.9841 -1.9091  0.7117
16977SOL     OW51508   0.192   4.761   9.622  0.6593 -0.1830 -0.3152
16977SOL    HW151509   0.240   4.788   9.700  0.1385 -0.4728  0.1119
16977SOL    HW251510   0.258   4.758   9.553  1.0457  0.4870  0.0175
16978SOL     OW51511   8.234   0.922   6.224  0.1170 -0.6517  0.1821
16978SOL    HW151512   8.283   0.906   6.143  0.1855 -0.6756  0.2275
16978SOL    HW251513   8.233   1.017   6.233 -0.2247 -0.6331 -0.0503
16979SOL     OW51514   9.627   6.349   8.535 -0.2182 -0.2739 -0.5348
16979SOL    HW151515   9.692   6.413   8.505 -0.9338  0.5807 -0.3009
16979SOL    HW251516   9.675   6.293   8.596  0.3716  0.1538 -0.5975
16980SOL     OW51517   9.037   9.795   4.666  0.1344  0.2415 -0.0006
16980SOL    HW151518   9.092   9.735   4.617  0.4966  0.6307 -0.0794
16980SOL    HW251519   9.026   9.870   4.608 -1.4963 -0.3380 -0.4866
16981SOL     OW51520   0.485   6.923   1.597  0.0989 -0.3507 -0.2790
16981SOL    HW151521   0.495   6.951   1.688 -1.3818 -1.9896  0.4340
16981SOL    HW251522   0.575   6.913   1.566  0.6954 -1.8390  1.6962
16982SOL     OW51523   1.278   6.649   9.703  0.3286  0.2700 -0.4458
16982SOL    HW151524   1.367   6.622   9.683  0.5564  0.4055  0.3565
16982SOL    HW251525   1.253   6.596   9.779 -0.2843  0.2143 -0.6787
16983SOL     OW51526   8.948   0.146   6.164  0.0269 -0.5567  0.1430
16983SOL    HW151527   8.948   0.157   6.259  2.1445 -2.1802  0.4072
16983SOL    HW251528   8.984   0.228   6.130  1.7443 -0.9227  0.9725
16984SOL     OW51529   7.345   6.479   2.534 -0.1377 -0.3217  0.3260
16984SOL    HW151530   7.399   6.493   2.456 -1.4611 -1.1053 -0.7857
16984SOL    HW251531   7.408   6.463   2.604  1.0780 -1.1588 -0.8978
16985SOL     OW51532   9.323   3.477   1.584 -0.3272  0.4625  0.1918
16985SOL    HW151533   9.284   3.443   1.665  1.2409 -0.7222  0.5069
16985SOL    HW251534   9.361   3.561   1.608  0.6505 -0.1502  0.8866
16986SOL     OW51535   3.292   3.188   6.878  0.0940  0.3120  0.6155
16986SOL    HW151536   3.227   3.233   6.823  0.1865 -0.6420 -0.3097
16986SOL    HW251537   3.283   3.230   6.964  0.3376  2.2513 -0.2338
16987SOL     OW51538   7.011   1.764   6.792  0.3419 -0.3696  0.3697
16987SOL    HW151539   6.962   1.820   6.732 -2.2835 -1.0733  1.6814
16987SOL    HW251540   7.003   1.676   6.755  0.7031 -0.4761  0.5465
16988SOL     OW51541   7.596   1.411   8.864  0.2288 -0.1861 -0.4650
16988SOL    HW151542   7.527   1.478   8.860  0.9323  0.5847  0.0718
16988SOL    HW251543   7.601   1.388   8.956  1.6834  0.8444 -0.2540
16989SOL     OW51544   8.141   5.887   1.574 -0.0976  0.3432 -0.2902
16989SOL    HW151545   8.088   5.818   1.532 -0.2811  0.8306 -0.8764
16989SOL    HW251546   8.201   5.915   1.505  1.2890 -0.5469  0.5094
16990SOL     OW51547   4.803   8.685   2.303  0.1405  1.1026  0.4228
16990SOL    HW151548   4.823   8.764   2.353  1.9601  0.1158  1.3369
16990SOL    HW251549   4.707   8.682   2.301  0.0241  3.2481  0.4394
16991SOL     OW51550   9.457   1.465   5.847 -0.0935 -0.0519  0.1702
16991SOL    HW151551   9.450   1.513   5.929 -0.3772  0.2615 -0.0373
16991SOL    HW251552   9.397   1.510   5.787 -0.3428 -0.6435 -0.0318
16992SOL     OW51553   1.920   4.962   4.574  0.1798  0.0884  0.9171
16992SOL    HW151554   1.868   4.962   4.494  1.3205  0.5614  0.1478
16992SOL    HW251555   1.866   5.009   4.638 -0.3295  0.5852  0.1381
16993SOL     OW51556   3.886   7.707   8.786 -0.3086  0.1752  0.1244
16993SOL    HW151557   3.906   7.757   8.864 -1.1538 -0.3434  0.6974
16993SOL    HW251558   3.929   7.623   8.799  2.0300  1.0525 -1.3281
16994SOL     OW51559   4.038   6.028   7.673  0.1413 -0.0053 -0.3415
16994SOL    HW151560   4.014   6.087   7.744 -1.4755  0.4795 -1.2367
16994SOL    HW251561   3.972   5.959   7.676 -0.4414  0.4510 -1.8371
16995SOL     OW51562   8.579   7.484   0.490  0.1262 -0.3928  0.8748
16995SOL    HW151563   8.608   7.409   0.439  0.5137 -0.2927  0.9421
16995SOL    HW251564   8.587   7.558   0.430  0.4092 -0.3026  1.0214
16996SOL     OW51565   7.812   2.553   4.990 -0.3110  0.3366  0.5264
16996SOL    HW151566   7.795   2.631   5.042 -0.9158  0.1329  0.6435
16996SOL    HW251567   7.764   2.483   5.036  0.2595 -0.1105  0.4519
16997SOL     OW51568   0.081   8.540   0.367  0.1498  0.0290 -0.2553
16997SOL    HW151569   0.043   8.453   0.380 -0.7884  0.6266  1.3649
16997SOL    HW251570   0.046   8.592   0.440  0.4493  1.8479 -1.3520
16998SOL     OW51571   2.276   0.149   8.705  0.3070  0.1959  0.1319
16998SOL    HW151572   2.327   0.094   8.645  0.3921  0.5501 -0.1269
16998SOL    HW251573   2.340   0.180   8.770  0.3351  0.2772  0.0667
16999SOL     OW51574   6.521   8.560   2.693 -0.6720  0.0588 -0.3149
16999SOL    HW151575   6.463   8.625   2.654  1.4608  0.7213 -2.6438
16999SOL    HW251576   6.534   8.495   2.624  1.9765  0.4083 -0.2429
17000SOL     OW51577   9.677   6.568   4.757 -0.2419  0.1979  0.2733
17000SOL    HW151578   9.593   6.597   4.723 -1.2246  0.1472  2.5177
17000SOL    HW251579   9.661   6.550   4.849  1.9950 -0.8170  0.5320
17001SOL     OW51580   2.031   1.486   8.694  0.3081  0.3372  0.7470
17001SOL    HW151581   1.946   1.526   8.673  1.5537  1.7520 -2.3000
17001SOL    HW251582   2.093   1.559   8.688  2.0689 -1.1480 -0.0110
17002SOL     OW51583   2.490   0.441   9.376 -0.5576  0.3223  0.3039
17002SOL    HW151584   2.532   0.515   9.332  0.3807  0.2274  1.0026
17002SOL    HW251585   2.424   0.411   9.314 -0.0535  0.9132 -0.5542
17003SOL     OW51586   7.599   5.187   8.704  0.5453 -0.6563  0.2547
17003SOL    HW151587   7.688   5.154   8.710  0.5904 -1.2985 -2.4453
17003SOL    HW251588   7.547   5.111   8.675 -0.2360  0.4368 -1.3964
17004SOL     OW51589   7.812   7.470   7.343  0.5473  0.3538 -0.1299
17004SOL    HW151590   7.813   7.446   7.436 -0.5108 -1.8018 -0.6176
17004SOL    HW251591   7.861   7.401   7.299 -0.8523  0.1233 -1.4028
17005SOL     OW51592   1.338   3.988   2.579 -0.0450 -0.1840 -0.0668
17005SOL    HW151593   1.368   3.905   2.615 -1.0702 -0.6859 -0.3257
17005SOL    HW251594   1.415   4.045   2.582  0.6568 -1.1183  0.1733
17006SOL     OW51595   2.093   3.646   2.013 -0.2326  0.6009  0.1447
17006SOL    HW151596   2.084   3.645   2.108  1.8193  0.6221  0.3938
17006SOL    HW251597   2.178   3.606   1.996  0.6609  2.9505 -1.4849
17007SOL     OW51598   9.401   1.008   7.005  0.7683  0.3855  0.4889
17007SOL    HW151599   9.373   1.090   7.046  1.3670  0.1334  1.4275
17007SOL    HW251600   9.493   1.022   6.983  0.6501  0.2516 -0.1128
17008SOL     OW51601   2.268   2.238   6.061 -0.5718 -0.3364 -0.1836
17008SOL    HW151602   2.219   2.191   6.129 -1.0090  0.0214 -0.2412
17008SOL    HW251603   2.207   2.242   5.987 -0.2708 -0.3121 -0.4313
17009SOL     OW51604   0.917   2.925   3.790  0.7354  0.1828 -0.1316
17009SOL    HW151605   0.828   2.911   3.756  1.0750 -0.6206 -0.7067
17009SOL    HW251606   0.972   2.930   3.712  1.1514  1.1094  0.2039
17010SOL     OW51607   5.914   1.873   2.592 -0.0234  0.0338 -0.0227
17010SOL    HW151608   5.916   1.804   2.658  0.9214 -0.0050 -0.0685
17010SOL    HW251609   5.968   1.942   2.629  0.7848 -0.1186 -0.8800
17011SOL     OW51610   2.345   0.153   0.860  0.0603  0.0690 -0.3016
17011SOL    HW151611   2.332   0.194   0.945 -2.5068 -0.9853 -0.0824
17011SOL    HW251612   2.318   0.219   0.796 -1.4007 -0.2727 -0.0777
17012SOL     OW51613   3.691   8.405   6.160 -0.5281 -0.0449 -1.0527
17012SOL    HW151614   3.687   8.496   6.132 -0.2551 -0.1139 -1.3264
17012SOL    HW251615   3.600   8.378   6.169 -0.6096  0.3008 -0.8148
17013SOL     OW51616   3.609   2.963   1.377  0.3916 -0.2057 -0.3881
17013SOL    HW151617   3.672   2.988   1.445  0.4967  0.3608 -0.6912
17013SOL    HW251618   3.654   2.896   1.325 -0.2901 -1.9114  1.0966
17014SOL     OW51619   0.261   1.516   4.920  0.0920 -0.0483  0.3031
17014SOL    HW151620   0.179   1.482   4.957  0.3952 -0.3287  0.7367
17014SOL    HW251621   0.328   1.456   4.953  0.3447 -0.4818 -0.9584
17015SOL     OW51622   4.098   6.245   6.313 -0.2999 -1.1207 -0.0286
17015SOL    HW151623   4.118   6.206   6.228 -0.8638 -0.5238 -0.4447
17015SOL    HW251624   4.137   6.332   6.309 -1.0261 -0.7915  0.0143
17016SOL     OW51625   0.243   5.491   2.363 -0.1097  0.4503 -0.7450
17016SOL    HW151626   0.214   5.500   2.272 -0.2661 -1.1461 -0.8809
17016SOL    HW251627   0.335   5.464   2.356  0.0931  1.0318 -0.4029
17017SOL     OW51628   3.532   0.403   6.645 -0.3410  0.7882 -0.3245
17017SOL    HW151629   3.472   0.329   6.656 -0.2731  1.0671  2.9489
17017SOL    HW251630   3.519   0.431   6.554 -2.1919 -1.6493 -0.9288
17018SOL     OW51631   9.934   4.610   5.184 -1.2799  0.5170  0.0690
17018SOL    HW151632   9.890   4.694   5.193 -0.8790  1.0401 -2.3871
17018SOL    HW251633   9.886   4.564   5.115  0.7815  0.3282 -1.3424
17019SOL     OW51634   8.846   9.775   8.725  0.2723  0.5207  0.3402
17019SOL    HW151635   8.789   9.735   8.791  1.0623  1.0202  1.3457
17019SOL    HW251636   8.932   9.736   8.741  0.2405 -0.2416 -1.1739
17020SOL     OW51637   3.376   8.031   4.031  0.0534  0.0063  0.0120
17020SOL    HW151638   3.436   8.013   3.959  1.5083 -0.4264  1.2771
17020SOL    HW251639   3.331   7.949   4.047  1.9421 -0.7995  1.5254
17021SOL     OW51640   9.371   1.111   4.362 -0.5610  0.4979  0.6853
17021SOL    HW151641   9.341   1.035   4.411  0.8793 -0.1431  0.6382
17021SOL    HW251642   9.446   1.144   4.413  0.0712  0.6690 -0.3235
17022SOL     OW51643   3.401   3.280   0.991  0.4397  0.2627 -0.1372
17022SOL    HW151644   3.390   3.218   1.063  1.9188  0.8801  0.6680
17022SOL    HW251645   3.459   3.347   1.026  0.0069  1.3696 -1.4491
17023SOL     OW51646   5.057   2.734   3.355  0.2349 -0.2409  0.0443
17023SOL    HW151647   4.972   2.740   3.398  1.0141  2.0486  1.4407
17023SOL    HW251648   5.094   2.651   3.385 -1.8164 -1.7372 -1.3352
17024SOL     OW51649   1.882   2.938   3.733 -0.4750 -0.8760 -0.4680
17024SOL    HW151650   1.885   2.881   3.810  1.0079  1.0127  0.9752
17024SOL    HW251651   1.914   3.023   3.765 -1.4416  0.4490 -2.7937
17025SOL     OW51652   7.314   3.381   8.963 -0.0915  0.5629 -0.4577
17025SOL    HW151653   7.238   3.343   9.007  0.8027  0.9724  1.5301
17025SOL    HW251654   7.310   3.345   8.874 -2.6001  0.6168 -0.4340
17026SOL     OW51655   1.311   6.321   3.721  0.5052  0.0652  0.6184
17026SOL    HW151656   1.385   6.363   3.679  0.3086  0.2567  0.4605
17026SOL    HW251657   1.256   6.290   3.649  0.8828 -0.8869  0.7322
17027SOL     OW51658   5.823   0.261   9.819  0.5645  0.0041  0.1600
17027SOL    HW151659   5.894   0.295   9.873 -1.1552 -0.9895  3.2829
17027SOL    HW251660   5.833   0.166   9.823 -0.0432 -0.1037 -0.6720
17028SOL     OW51661   5.182   2.542   0.209  0.7445 -1.1041 -0.0786
17028SOL    HW151662   5.110   2.541   0.272  0.9307  1.2572  0.2744
17028SOL    HW251663   5.233   2.464   0.230  2.3166  0.7877  4.6428
17029SOL     OW51664   6.262   1.912   0.108  0.9771  0.5503  0.2263
17029SOL    HW151665   6.273   1.915   0.013 -0.6525 -0.6880 -0.0415
17029SOL    HW251666   6.342   1.869   0.140 -0.0307 -2.5103 -0.9978
17030SOL     OW51667   7.074   8.113   1.254 -0.2763 -0.0384  0.0532
17030SOL    HW151668   7.156   8.087   1.213  0.2204 -2.0684  2.0933
17030SOL    HW251669   7.091   8.103   1.348 -2.7064 -0.0632  0.5432
17031SOL     OW51670   6.382   7.799   2.120 -0.0876  0.3726  0.0813
17031SOL    HW151671   6.447   7.744   2.163 -1.5330 -1.7671 -0.2909
17031SOL    HW251672   6.338   7.739   2.059 -3.3916  1.2810  1.3899
17032SOL     OW51673   5.027   2.439   5.049 -0.4735  0.0144 -0.1186
17032SOL    HW151674   5.104   2.493   5.068 -1.5993  2.2588 -1.4365
17032SOL    HW251675   4.989   2.420   5.135  0.0075  1.3037  0.4063
17033SOL     OW51676   0.554   4.458   2.304  0.1705 -0.1445  0.1072
17033SOL    HW151677   0.569   4.364   2.299 -2.1407 -0.8881  3.5545
17033SOL    HW251678   0.520   4.482   2.218 -0.1689 -2.6775 -0.5446
17034SOL     OW51679   5.026   0.416   0.906 -0.5270 -0.5340  0.1343
17034SOL    HW151680   5.038   0.376   0.993 -0.4185 -0.2630  0.2458
17034SOL    HW251681   5.099   0.381   0.854  1.2524  1.6436  1.0038
17035SOL     OW51682   4.354   5.926   8.716 -0.3893  0.1649  0.2314
17035SOL    HW151683   4.353   5.831   8.724  0.8775 -0.0082 -1.1585
17035SOL    HW251684   4.439   5.946   8.677 -1.5930  1.6290 -1.9044
17036SOL     OW51685   1.296   5.833   3.144  0.3756  0.4492  0.2893
17036SOL    HW151686   1.391   5.834   3.134  0.3853  0.3775  0.3714
17036SOL    HW251687   1.276   5.746   3.179  0.2638  0.4081  0.1263
17037SOL     OW51688   7.401   2.392   9.490  0.3983 -0.3417 -0.0949
17037SOL    HW151689   7.317   2.388   9.534  0.3740  1.8646  0.1545
17037SOL    HW251690   7.463   2.416   9.559  0.6765  1.2001 -0.8418
17038SOL     OW51691   4.306   2.490   3.533 -0.0051 -0.1121  0.1161
17038SOL    HW151692   4.387   2.452   3.502 -0.5373 -0.1615 -1.2777
17038SOL    HW251693   4.333   2.568   3.582  0.8746 -0.2157 -0.1909
17039SOL     OW51694   9.004   4.221   8.007 -0.0246 -0.4019 -0.0884
17039SOL    HW151695   9.004   4.197   7.915 -0.8167  0.4656 -0.3354
17039SOL    HW251696   9.092   4.253   8.024  0.0795 -0.4292 -0.5825
17040SOL     OW51697   6.482   2.340   5.872 -0.0571 -0.1223  0.4249
17040SOL    HW151698   6.461   2.247   5.860  1.0587 -0.1578 -1.5276
17040SOL    HW251699   6.575   2.346   5.854 -0.4309  1.6361 -1.2226
17041SOL     OW51700   1.184   3.939   1.101 -0.4612 -0.1740  0.0070
17041SOL    HW151701   1.241   3.887   1.158 -0.7918 -1.2045 -0.5723
17041SOL    HW251702   1.239   4.011   1.070 -0.1531  0.1653  1.2714
17042SOL     OW51703   2.636   7.958   4.182 -0.9558  0.3449 -0.2574
17042SOL    HW151704   2.553   7.918   4.156 -0.9990  0.5018 -0.3557
17042SOL    HW251705   2.615   8.008   4.261 -0.8738  0.0662 -0.0562
17043SOL     OW51706   3.904   8.204   4.218  0.6852 -0.3707 -0.1017
17043SOL    HW151707   3.824   8.232   4.260  0.5839 -1.3275  0.3698
17043SOL    HW251708   3.968   8.271   4.240 -0.1995  0.9467 -1.3284
17044SOL     OW51709   8.634   6.107   2.468  0.5932  0.7742  0.7235
17044SOL    HW151710   8.653   6.016   2.444 -0.2501  0.6903  0.3627
17044SOL    HW251711   8.645   6.109   2.563 -0.8558 -0.0818  0.9454
17045SOL     OW51712   0.411   8.971   1.431  0.4445  0.6427  0.3085
17045SOL    HW151713   0.352   9.020   1.488  0.0503 -0.7737  1.1637
17045SOL    HW251714   0.375   8.983   1.343 -1.2351 -0.3196  0.8236
17046SOL     OW51715   1.027   9.684   8.326  0.3950  0.0233  0.7269
17046SOL    HW151716   1.055   9.612   8.383  0.4536  0.1026  0.7978
17046SOL    HW251717   1.063   9.762   8.367  1.1534 -0.0032  0.1126
17047SOL     OW51718   0.084   2.673   2.726  0.4238  0.0886 -0.4602
17047SOL    HW151719   0.096   2.580   2.707 -0.1574 -0.5610  1.9208
17047SOL    HW251720   0.158   2.716   2.684  2.7451 -1.9032  1.2953
17048SOL     OW51721   2.144   6.047   7.853  0.7312  0.3458 -0.4200
17048SOL    HW151722   2.157   6.139   7.876  0.0370  0.3489 -0.0256
17048SOL    HW251723   2.196   6.035   7.773  1.1857  0.9591 -0.2280
17049SOL     OW51724   5.507   2.485   2.820 -0.1975 -0.9511 -0.2706
17049SOL    HW151725   5.496   2.568   2.773 -1.0327 -1.6574 -1.3758
17049SOL    HW251726   5.524   2.420   2.751 -0.7125 -1.8902  0.4630
17050SOL     OW51727   2.564   7.954   8.500  0.2887 -0.4004  0.6111
17050SOL    HW151728   2.543   7.992   8.585  0.2762  0.8206  0.0795
17050SOL    HW251729   2.607   8.025   8.452  1.1519 -1.3605 -0.0686
17051SOL     OW51730   0.056   3.473   0.568 -0.2493 -0.3548  0.4997
17051SOL    HW151731   0.006   3.510   0.495 -0.4153 -0.2470  0.6642
17051SOL    HW251732   0.059   3.379   0.550  3.0237  0.0123 -1.6724
17052SOL     OW51733   0.186   6.874   3.861 -0.2410 -0.3862 -0.1474
17052SOL    HW151734   0.171   6.872   3.767 -2.6284  1.4908  0.1105
17052SOL    HW251735   0.203   6.783   3.885 -2.3903 -1.3624 -2.0128
17053SOL     OW51736   9.728   5.175   9.038 -0.2835 -0.0878  0.3460
17053SOL    HW151737   9.778   5.190   8.958 -1.9414  1.7617 -0.4360
17053SOL    HW251738   9.787   5.202   9.109  0.7108 -0.4235 -0.3324
17054SOL     OW51739   0.472   2.199   1.246  0.3509 -0.1011 -0.4838
17054SOL    HW151740   0.557   2.242   1.250  0.1391  0.5376 -2.0966
17054SOL    HW251741   0.414   2.264   1.206 -0.6842 -0.8448 -0.2488
17055SOL     OW51742   6.146   3.898   4.113  0.2198 -0.0745  0.2652
17055SOL    HW151743   6.065   3.854   4.139  0.8497 -2.4953 -1.4967
17055SOL    HW251744   6.131   3.922   4.022  1.5611 -0.9262 -0.2134
17056SOL     OW51745   7.907   3.153   8.922 -0.6698 -0.4027  0.1751
17056SOL    HW151746   7.946   3.200   8.995 -3.6305  0.8208  1.1286
17056SOL    HW251747   7.827   3.114   8.959 -0.7617 -2.2135 -1.7393
17057SOL     OW51748   7.031   1.180   6.327  0.2062  0.5957  0.2366
17057SOL    HW151749   7.031   1.101   6.381  0.7639  0.5221  0.1342
17057SOL    HW251750   6.943   1.184   6.290 -0.0481  0.4151  0.8117
17058SOL     OW51751   8.392   4.857   0.765  0.6594 -0.0736 -0.0419
17058SOL    HW151752   8.469   4.914   0.764  0.3488  0.3585 -1.0838
17058SOL    HW251753   8.331   4.899   0.705  0.6483 -1.8039 -1.3319
17059SOL     OW51754   8.262   3.404   1.784  0.4683  0.0443  0.0254
17059SOL    HW151755   8.202   3.413   1.710  1.7553 -0.4654 -1.1032
17059SOL    HW251756   8.205   3.380   1.857 -0.7140 -0.3687 -1.0002
17060SOL     OW51757   2.247   5.388   1.061 -0.3372 -0.0208 -0.6672
17060SOL    HW151758   2.270   5.371   0.969  0.1276  0.5611 -0.6703
17060SOL    HW251759   2.189   5.464   1.057 -0.5689 -0.1880 -0.4979
17061SOL     OW51760   1.553   9.539   1.471 -0.4144 -1.1901  0.1480
17061SOL    HW151761   1.529   9.592   1.547  0.5898 -0.1661 -0.2176
17061SOL    HW251762   1.621   9.590   1.427 -0.6114 -2.0147 -1.1555
17062SOL     OW51763   0.178   1.031   6.804 -0.1371 -0.2405 -0.2132
17062SOL    HW151764   0.218   0.988   6.728 -1.4370 -2.5881  0.3302
17062SOL    HW251765   0.237   1.012   6.876 -0.4293 -0.6542 -0.0790
17063SOL     OW51766   5.654   0.856   3.884  0.0820 -0.2740 -0.0614
17063SOL    HW151767   5.747   0.832   3.895  0.4135  0.6852 -0.6971
17063SOL    HW251768   5.617   0.844   3.972  0.4782 -1.9647 -0.0698
17064SOL     OW51769   5.108   0.652   6.867 -0.0990 -0.0375  0.2650
17064SOL    HW151770   5.078   0.614   6.785  1.0648  3.4132 -1.9773
17064SOL    HW251771   5.029   0.661   6.920 -1.2744 -0.3932 -1.3406
17065SOL     OW51772   9.716   4.929   1.170 -0.1051 -0.3618  0.2458
17065SOL    HW151773   9.810   4.940   1.181 -0.2561  0.7724  0.5134
17065SOL    HW251774   9.690   5.002   1.114 -1.1719  0.7017  2.0465
17066SOL     OW51775   7.430   4.152   4.208 -0.5877  0.2907  0.1110
17066SOL    HW151776   7.513   4.112   4.183 -1.0584 -1.6659  1.4583
17066SOL    HW251777   7.447   4.246   4.207  0.6372  0.1382 -3.0056
17067SOL     OW51778   6.959   3.527   7.445  1.0480  0.0878 -0.6780
17067SOL    HW151779   6.968   3.620   7.465 -1.5322  0.2455  0.0625
17067SOL    HW251780   6.979   3.482   7.527 -0.3347  0.1830 -0.2671
17068SOL     OW51781   0.162   5.658   8.190 -0.2663 -0.2676 -0.3314
17068SOL    HW151782   0.220   5.726   8.155  1.4614 -2.0779 -1.1982
17068SOL    HW251783   0.218   5.610   8.253 -2.2116  0.6650  2.2951
17069SOL     OW51784   3.658   6.629   1.219  0.2233 -0.7375  0.2885
17069SOL    HW151785   3.618   6.706   1.177 -0.5197 -1.8937 -1.2216
17069SOL    HW251786   3.607   6.616   1.299 -0.8579 -0.7222 -0.3715
17070SOL     OW51787   8.490   2.918   4.017  0.0498 -0.1621  0.3467
17070SOL    HW151788   8.401   2.945   4.040  0.5259  0.6747  1.3238
17070SOL    HW251789   8.527   2.995   3.973  0.8493  0.1474  1.5337
17071SOL     OW51790   9.201   1.774   0.127 -0.2579  0.1566  0.1206
17071SOL    HW151791   9.174   1.809   0.042 -2.0289  2.3323  1.4448
17071SOL    HW251792   9.125   1.789   0.184  0.8113 -1.3297  2.0806
17072SOL     OW51793   9.065   1.034   9.977  0.5770 -0.2406 -0.2409
17072SOL    HW151794   9.126   0.966   9.948  1.3486 -0.1832  1.1705
17072SOL    HW251795   9.060   1.094   9.904  0.3546 -1.4793 -1.2869
17073SOL     OW51796   8.335   9.380   8.584  0.1353  0.1489  0.2835
17073SOL    HW151797   8.341   9.318   8.511  0.4937 -0.4342  0.8018
17073SOL    HW251798   8.305   9.327   8.658  0.8336  0.5030  0.8345
17074SOL     OW51799   5.034   8.548   0.569 -0.1838  0.2763 -0.1490
17074SOL    HW151800   4.948   8.534   0.531 -1.1723  1.6768  1.4181
17074SOL    HW251801   5.072   8.461   0.577 -0.1452 -0.1758 -3.5912
17075SOL     OW51802   2.125   4.247   6.369 -0.0549  0.0531 -0.0199
17075SOL    HW151803   2.111   4.334   6.330 -0.5698 -0.7883 -1.8086
17075SOL    HW251804   2.069   4.247   6.446 -2.4992  0.2938 -1.6586
17076SOL     OW51805   0.298   6.581   4.971  0.7460 -0.3808 -0.4557
17076SOL    HW151806   0.265   6.504   5.018  0.7049  0.5482  1.1341
17076SOL    HW251807   0.366   6.617   5.029 -0.2766  1.6270 -0.4195
17077SOL     OW51808   5.578   9.978   7.316  0.0575  0.5257  0.4225
17077SOL    HW151809   5.575   9.914   7.387 -0.7987  0.7505  0.5968
17077SOL    HW251810   5.621   9.931   7.244  1.6712  0.5449  1.3107
17078SOL     OW51811   0.538   9.813   9.341 -0.1876  0.7709  0.6865
17078SOL    HW151812   0.466   9.759   9.311  0.0102  0.0840  1.4104
17078SOL    HW251813   0.560   9.869   9.266 -1.5197  1.0602  0.4983
17079SOL     OW51814   1.498   1.732   8.460 -0.3982 -0.1129  0.5726
17079SOL    HW151815   1.514   1.825   8.448 -1.8172  0.0129 -0.6681
17079SOL    HW251816   1.581   1.690   8.439 -0.0679  0.8076 -0.0043
17080SOL     OW51817   1.650   3.462   1.050  0.6342 -0.0809 -0.2071
17080SOL    HW151818   1.576   3.407   1.025  1.7816 -2.0367  0.5278
17080SOL    HW251819   1.702   3.472   0.971  0.5888 -0.3171 -0.2655
17081SOL     OW51820   4.887   8.816   2.739  0.6259 -0.5064 -0.1589
17081SOL    HW151821   4.832   8.739   2.749 -2.0093  1.2448 -0.2056
17081SOL    HW251822   4.944   8.814   2.816  1.7001 -3.1945 -0.8938
17082SOL     OW51823   3.644   9.688   9.681 -0.7059  0.3783  0.2634
17082SOL    HW151824   3.606   9.770   9.712 -1.4811 -0.1251  0.6795
17082SOL    HW251825   3.654   9.635   9.761 -0.3119  0.0291 -0.0143
17083SOL     OW51826   4.490   0.525   2.153  0.2539  0.3694 -0.1403
17083SOL    HW151827   4.485   0.619   2.135 -0.6841  0.5595  0.9997
17083SOL    HW251828   4.493   0.485   2.066 -0.3339  1.4098 -0.6674
17084SOL     OW51829   5.219   8.802   5.889  0.4448  0.3510 -0.2442
17084SOL    HW151830   5.192   8.879   5.838  0.7713 -0.0782 -1.0906
17084SOL    HW251831   5.192   8.727   5.835 -1.1692 -0.1914  1.2210
17085SOL     OW51832   0.563   1.531   6.878 -0.1951 -0.4673 -0.4145
17085SOL    HW151833   0.631   1.572   6.931  0.0453  0.8053 -1.6342
17085SOL    HW251834   0.481   1.553   6.922  0.0192  0.3066 -0.3841
17086SOL     OW51835   0.839   6.762   4.931  0.5696  0.4795 -0.1293
17086SOL    HW151836   0.814   6.673   4.905 -1.3937  0.8222  0.4167
17086SOL    HW251837   0.851   6.808   4.848  0.3963  0.0062 -0.4227
17087SOL     OW51838   5.829   2.981   6.760  0.1493  0.1902 -0.0855
17087SOL    HW151839   5.781   3.064   6.757 -0.6468 -0.2237  0.6353
17087SOL    HW251840   5.840   2.957   6.668  0.3020  1.0420 -0.2999
17088SOL     OW51841   4.712   2.153   1.650 -0.1921 -0.3550  0.3441
17088SOL    HW151842   4.726   2.198   1.567 -2.9678 -0.7360 -0.4650
17088SOL    HW251843   4.796   2.114   1.672  1.0921  1.3547 -1.3012
17089SOL     OW51844   7.383   4.807   4.765 -0.3849 -0.2537 -0.1807
17089SOL    HW151845   7.476   4.792   4.748 -0.3166 -0.3596  0.2572
17089SOL    HW251846   7.367   4.897   4.736 -0.6473 -0.9199 -2.2549
17090SOL     OW51847   0.184   9.975   6.208 -0.7131 -0.3218  0.7776
17090SOL    HW151848   0.133   9.903   6.172 -0.1944 -0.7172  0.8169
17090SOL    HW251849   0.231   9.936   6.282  0.5724 -0.2826  0.0178
17091SOL     OW51850   2.414   5.449   4.800 -0.1453  0.1261  0.0515
17091SOL    HW151851   2.417   5.377   4.864 -1.1975 -0.2539 -0.3024
17091SOL    HW251852   2.413   5.528   4.852  2.6372  0.0107  0.4482
17092SOL     OW51853   3.129   8.932   5.037  0.3367  0.1221 -0.2859
17092SOL    HW151854   3.193   8.874   5.078  2.3626  1.9036 -0.7556
17092SOL    HW251855   3.131   8.907   4.944  1.6858  1.2637 -0.6038
17093SOL     OW51856   6.688   2.605   5.697 -0.3535 -0.5398  0.1747
17093SOL    HW151857   6.746   2.529   5.698 -1.1549 -1.1716 -0.3453
17093SOL    HW251858   6.693   2.640   5.786 -0.1722 -1.3454  0.4931
17094SOL     OW51859   3.875   9.888   3.552 -0.0848  0.1494 -0.3020
17094SOL    HW151860   3.853   9.975   3.520  3.1184  0.9597 -0.7111
17094SOL    HW251861   3.856   9.830   3.479 -1.0001  0.7007 -0.5094
17095SOL     OW51862   6.042   7.813   1.069 -0.4829  0.2705  0.0180
17095SOL    HW151863   6.033   7.801   1.163  0.5833 -0.4416  0.0456
17095SOL    HW251864   6.064   7.906   1.058  2.0333 -0.1656  0.7239
17096SOL     OW51865   2.239   7.828   3.654 -0.6326  0.8965  0.4213
17096SOL    HW151866   2.240   7.756   3.717  2.1100  0.6297  0.1866
17096SOL    HW251867   2.236   7.785   3.568  0.7737  0.9970  0.2891
17097SOL     OW51868   3.593   7.480   7.087  0.6153  0.2344  0.3471
17097SOL    HW151869   3.651   7.416   7.046  1.2665  0.3561  1.0530
17097SOL    HW251870   3.622   7.483   7.178 -0.1214  0.7360  0.5723
17098SOL     OW51871   2.301   0.923   9.193 -0.3708  0.2928 -0.1599
17098SOL    HW151872   2.289   0.828   9.197  0.5697  0.1378 -0.6927
17098SOL    HW251873   2.254   0.957   9.269 -0.0482 -0.6708  0.4770
17099SOL     OW51874   0.131   8.682   3.544  0.3451 -0.2098  0.4435
17099SOL    HW151875   0.154   8.644   3.459 -2.1823  0.4800 -0.6143
17099SOL    HW251876   0.129   8.606   3.603 -0.8602 -1.2089 -0.8017
17100SOL     OW51877   8.871   5.897   7.360 -0.3068  0.7838 -0.8334
17100SOL    HW151878   8.776   5.902   7.354 -0.6660 -1.0828  1.5824
17100SOL    HW251879   8.890   5.803   7.364  1.6201  1.1246 -0.8914
17101SOL     OW51880   9.196   6.342   2.269  0.1604 -0.2342  0.7589
17101SOL    HW151881   9.220   6.259   2.227  0.7871 -0.2883  1.2042
17101SOL    HW251882   9.101   6.344   2.266  0.1762 -0.2393 -0.6603
17102SOL     OW51883   9.026   0.639   3.251 -0.1117  0.3884 -0.7041
17102SOL    HW151884   9.094   0.706   3.248 -0.7897  1.1303  0.0227
17102SOL    HW251885   8.947   0.683   3.219 -0.0361 -0.7807 -2.6721
17103SOL     OW51886   9.512   7.564   9.835 -0.0799 -0.3891  0.3742
17103SOL    HW151887   9.473   7.538   9.752  2.8370  0.4872 -1.3999
17103SOL    HW251888   9.445   7.617   9.878 -1.6280 -0.8038 -1.4345
17104SOL     OW51889   6.542   9.928   8.444  0.7968  0.5632  0.4776
17104SOL    HW151890   6.525   9.896   8.532 -0.7066  2.0904  0.8092
17104SOL    HW251891   6.613   9.991   8.454 -1.1779  2.8184  1.1594
17105SOL     OW51892   7.644   4.763   5.718  0.2481 -0.7511 -0.0326
17105SOL    HW151893   7.663   4.715   5.637 -1.6741 -1.3154 -0.2034
17105SOL    HW251894   7.593   4.701   5.771 -0.2571  0.3004  0.7555
17106SOL     OW51895   6.357   2.876   0.952 -0.1663  0.0316 -0.1013
17106SOL    HW151896   6.441   2.885   0.908 -0.6136 -0.1543 -1.0089
17106SOL    HW251897   6.310   2.957   0.932 -0.9653 -0.6863 -1.2982
17107SOL     OW51898   2.179   9.862   7.605  0.0434  0.2882 -0.0433
17107SOL    HW151899   2.137   9.937   7.564 -0.9946  0.3155  1.0124
17107SOL    HW251900   2.186   9.886   7.697 -1.2219 -1.2809  0.5136
17108SOL     OW51901   5.547   1.448   9.998  1.0181  0.0391 -0.2382
17108SOL    HW151902   5.559   1.359   9.966  1.8382 -0.0825  0.3776
17108SOL    HW251903   5.601   1.502   9.940 -1.0538  0.4502 -1.9225
17109SOL     OW51904   5.997   4.080   2.470  0.3821 -0.2590  0.2434
17109SOL    HW151905   5.941   4.144   2.426  1.6557  0.6963 -0.0686
17109SOL    HW251906   5.946   4.051   2.545  0.3803  2.5071  1.4529
17110SOL     OW51907   7.370   1.442   8.037  1.1908 -0.0126 -0.3717
17110SOL    HW151908   7.420   1.381   8.091  1.3540  0.0008 -0.5085
17110SOL    HW251909   7.320   1.387   7.978 -0.0787 -0.0927  0.7286
17111SOL     OW51910   8.943   6.682   6.460 -0.0720  0.2729 -0.2537
17111SOL    HW151911   8.928   6.596   6.501 -1.6312  0.3367 -0.6517
17111SOL    HW251912   9.030   6.708   6.491  1.2422 -2.2476 -1.5273
17112SOL     OW51913   6.756   0.788   6.021  0.3320 -0.0394  0.1554
17112SOL    HW151914   6.845   0.768   5.991  0.3346  1.4401 -0.9507
17112SOL    HW251915   6.704   0.791   5.941 -0.7859 -1.0446  0.8045
17113SOL     OW51916   4.793   0.751   7.224  0.3165  0.0475 -0.1626
17113SOL    HW151917   4.818   0.668   7.183  1.8597 -0.1381  1.0655
17113SOL    HW251918   4.861   0.767   7.289 -2.7480 -0.4815  3.4849
17114SOL     OW51919   4.057   9.823   7.950 -0.5905 -0.3109  0.2454
17114SOL    HW151920   4.059   9.908   7.906 -0.2231  0.1503  1.1364
17114SOL    HW251921   4.124   9.772   7.905 -0.5632 -0.0137 -0.0619
17115SOL     OW51922   7.152   4.822   4.509 -0.0584  0.3452 -0.0434
17115SOL    HW151923   7.171   4.840   4.417  0.1550  0.8413  0.0916
17115SOL    HW251924   7.192   4.737   4.526 -0.0944  0.2541 -0.4085
17116SOL     OW51925   6.781   9.450   0.772 -0.6640  0.2637 -0.2901
17116SOL    HW151926   6.840   9.524   0.778 -1.4683  1.0031 -1.1757
17116SOL    HW251927   6.816   9.396   0.701 -0.6883  0.3742 -0.3870
17117SOL     OW51928   3.059   0.199   9.268  0.3582  0.6856 -0.3275
17117SOL    HW151929   2.997   0.157   9.327 -0.8970 -0.3808 -2.2770
17117SOL    HW251930   3.101   0.266   9.321 -0.9034 -0.0043  1.6619
17118SOL     OW51931   3.766   0.212   5.925 -0.3722 -0.4006  0.0185
17118SOL    HW151932   3.782   0.301   5.895  0.6867 -0.9629 -1.2086
17118SOL    HW251933   3.762   0.161   5.844 -0.3097 -1.5649  0.7299
17119SOL     OW51934   1.666   0.069   7.732  0.8079  0.1746 -0.0249
17119SOL    HW151935   1.751   0.112   7.742  1.0752 -0.7134  2.1281
17119SOL    HW251936   1.649   0.030   7.818  0.3526 -3.5628 -1.6456
17120SOL     OW51937   3.766   2.311   5.917 -0.0309  0.0917 -0.3990
17120SOL    HW151938   3.748   2.364   5.994 -1.0262  0.0617 -0.6039
17120SOL    HW251939   3.837   2.358   5.872  1.8309 -0.8271  1.4280
17121SOL     OW51940   1.714   4.738   5.809  0.5035 -0.1355 -0.1163
17121SOL    HW151941   1.694   4.687   5.731  0.7413  0.6494 -0.7088
17121SOL    HW251942   1.651   4.709   5.874  0.7096 -1.2569 -0.3991
17122SOL     OW51943   2.106   0.972   7.848  0.0772  0.3536  0.1850
17122SOL    HW151944   2.076   0.883   7.831  0.5166 -0.1023  1.6990
17122SOL    HW251945   2.166   0.964   7.922  2.6439  1.4625 -1.6022
17123SOL     OW51946   4.480   7.709   8.370 -0.4603  0.0496  0.5327
17123SOL    HW151947   4.483   7.792   8.323  0.1031  0.2007  0.8266
17123SOL    HW251948   4.437   7.729   8.453 -0.6176 -0.0211  0.4687
17124SOL     OW51949   3.634   2.902   8.942  0.7684  0.2130 -0.4469
17124SOL    HW151950   3.721   2.876   8.912  1.7754  0.0627  2.3404
17124SOL    HW251951   3.580   2.823   8.931  1.8407 -0.7283  0.7330
17125SOL     OW51952   9.211   9.637   5.762  0.0837  0.0427 -0.3551
17125SOL    HW151953   9.282   9.673   5.815  2.1815 -2.4058 -1.3306
17125SOL    HW251954   9.134   9.644   5.818  1.2444  1.8900  1.1236
17126SOL     OW51955   4.046   4.086   4.835 -0.1691  0.3394 -0.3030
17126SOL    HW151956   4.062   4.005   4.883  1.2694  0.2903 -0.8161
17126SOL    HW251957   4.131   4.129   4.831 -0.7764  1.5747 -0.6009
17127SOL     OW51958   7.182   2.940   7.160 -0.1523 -0.5348 -0.5810
17127SOL    HW151959   7.232   3.021   7.150  0.0198 -0.5233  0.2576
17127SOL    HW251960   7.240   2.871   7.128 -1.2658 -0.1129 -3.8140
17128SOL     OW51961   5.080   5.618   6.273 -0.6608  0.6999  0.7042
17128SOL    HW151962   5.107   5.683   6.338 -1.2603 -0.6835  2.4332
17128SOL    HW251963   5.015   5.565   6.319 -0.3109 -1.0207 -0.6871
17129SOL     OW51964   4.497   2.755   3.222 -0.0729  0.0634  0.0053
17129SOL    HW151965   4.578   2.705   3.229  0.2250  0.3184 -1.2742
17129SOL    HW251966   4.428   2.690   3.226  0.2729 -0.3546 -0.6213
17130SOL     OW51967   6.843   8.064   1.660 -0.2254 -0.3902  0.0300
17130SOL    HW151968   6.777   8.005   1.697 -0.7544 -0.2141 -0.6103
17130SOL    HW251969   6.819   8.073   1.568  0.6043 -0.1882 -0.1744
17131SOL     OW51970   7.361   4.683   0.945  0.5470 -0.3498 -0.2037
17131SOL    HW151971   7.351   4.594   0.977 -0.5880 -0.5541 -1.0744
17131SOL    HW251972   7.307   4.736   1.004  0.5535 -0.3573 -0.1915
17132SOL     OW51973   4.018   9.573   7.757 -0.7884 -0.7003  0.2544
17132SOL    HW151974   4.097   9.519   7.768 -0.1759  0.1245  0.0480
17132SOL    HW251975   4.048   9.647   7.705 -1.5446 -0.0127  0.7794
17133SOL     OW51976   4.151   8.965   1.147  0.0232  0.2840 -0.0596
17133SOL    HW151977   4.237   9.003   1.130 -0.0841  0.7506  0.4024
17133SOL    HW251978   4.092   9.011   1.088  0.3507 -1.3479 -1.7696
17134SOL     OW51979   7.347   7.621   8.039  0.0040  0.4160  0.5330
17134SOL    HW151980   7.265   7.669   8.039 -0.0136  0.4379  1.7949
17134SOL    HW251981   7.393   7.653   8.117  1.2219  0.4171 -0.1520
17135SOL     OW51982   9.539   4.327   2.887 -0.5892  0.3320 -0.0616
17135SOL    HW151983   9.548   4.386   2.962  0.7936  0.4947 -0.3327
17135SOL    HW251984   9.575   4.377   2.813  1.9600 -1.3115 -0.0420
17136SOL     OW51985   0.584   0.319   6.132  0.2154 -0.3640 -0.4280
17136SOL    HW151986   0.563   0.231   6.166  1.1037 -0.4882 -0.1706
17136SOL    HW251987   0.559   0.378   6.203  0.7640 -0.5137 -0.1021
17137SOL     OW51988   7.057   3.346   5.439 -0.1597  0.4806  0.5411
17137SOL    HW151989   7.109   3.393   5.374 -0.7044  0.3191 -0.0247
17137SOL    HW251990   7.000   3.289   5.387 -0.9846  0.7503  1.1327
17138SOL     OW51991   7.615   8.604   7.790 -0.2667  0.1648  0.6157
17138SOL    HW151992   7.529   8.639   7.764  0.4198 -0.2931 -2.7547
17138SOL    HW251993   7.663   8.680   7.822 -0.4227  1.4323 -1.9630
17139SOL     OW51994   2.288   4.882   9.075 -0.3026 -0.7996 -0.0726
17139SOL    HW151995   2.235   4.886   8.995  2.2600  0.7619 -1.8622
17139SOL    HW251996   2.297   4.974   9.101 -1.1239 -1.2853  2.1300
17140SOL     OW51997   7.993   3.417   5.887  0.0759  0.2409  0.0242
17140SOL    HW151998   8.087   3.396   5.884 -0.2253 -1.5278  1.4930
17140SOL    HW251999   7.963   3.401   5.797  0.7671 -1.4161  0.0510
17141SOL     OW52000   5.138   8.348   8.560 -0.0932  0.1469  0.2238
17141SOL    HW152001   5.211   8.295   8.594  2.7007  2.5524 -1.5893
17141SOL    HW252002   5.115   8.307   8.477 -1.3441 -0.9845  1.0861
17142SOL     OW52003   2.278   4.962   1.882  0.4032 -0.5042 -0.6395
17142SOL    HW152004   2.354   4.934   1.933  0.5961  1.8292  0.5075
17142SOL    HW252005   2.240   4.881   1.848  1.1362 -2.0569  1.9852
17143SOL     OW52006   8.854   1.663   3.243  0.6587  0.2913  0.3557
17143SOL    HW152007   8.853   1.675   3.148  0.7309 -1.5105  0.0874
17143SOL    HW252008   8.770   1.621   3.263  0.4637  1.0349  1.1561
17144SOL     OW52009   5.798   5.040   7.942 -0.6702  0.0282  0.0708
17144SOL    HW152010   5.754   5.061   8.024 -0.6917 -0.5851  0.2197
17144SOL    HW252011   5.794   4.944   7.936 -0.9903  0.0872 -0.8206
17145SOL     OW52012   7.823   5.754   3.179  0.4621  0.3128 -0.1280
17145SOL    HW152013   7.821   5.665   3.142  3.0320 -0.0848  0.4357
17145SOL    HW252014   7.732   5.781   3.182 -0.2878 -1.7635 -1.6287
17146SOL     OW52015   3.018   7.989   5.060  0.0108 -0.1522  0.0421
17146SOL    HW152016   2.951   7.960   5.121 -0.3092 -0.4545 -0.4425
17146SOL    HW252017   3.094   8.011   5.115 -1.0327  1.8828  0.7865
17147SOL     OW52018   0.409   9.700   4.823  0.1016 -0.7467  0.1096
17147SOL    HW152019   0.390   9.606   4.829 -0.4362 -0.6427  0.1246
17147SOL    HW252020   0.500   9.708   4.852 -0.6509 -0.9426  2.7918
17148SOL     OW52021   0.957   1.607   9.383  0.6304  0.5611 -0.4994
17148SOL    HW152022   1.044   1.583   9.349  0.4257 -1.2007  0.0856
17148SOL    HW252023   0.968   1.605   9.478  0.0946  0.9139 -0.4289
17149SOL     OW52024   1.118   1.774   6.830 -0.0515 -0.3323  0.1395
17149SOL    HW152025   1.129   1.868   6.847  1.5923 -0.1795 -1.5141
17149SOL    HW252026   1.126   1.733   6.917  2.6503  0.8115  0.5120
17150SOL     OW52027   2.097   2.407   3.413  0.1172  0.6063 -0.2724
17150SOL    HW152028   2.027   2.432   3.353  1.9135  1.5547 -2.1072
17150SOL    HW252029   2.088   2.467   3.487 -0.5517  1.2145 -0.8344
17151SOL     OW52030   4.030   6.378   0.342 -0.3154  0.1840  0.9039
17151SOL    HW152031   4.076   6.344   0.418 -0.0452 -0.8049  0.3119
17151SOL    HW252032   4.010   6.301   0.289 -1.0412  0.7882  0.2662
17152SOL     OW52033   9.316   6.840   6.891  0.6157 -0.2511 -0.1844
17152SOL    HW152034   9.385   6.804   6.835  2.2592 -1.1616  2.2267
17152SOL    HW252035   9.282   6.764   6.939 -1.6356  0.3012 -0.7699
17153SOL     OW52036   0.345   3.959   9.413  0.0370  0.1722  0.0627
17153SOL    HW152037   0.306   3.969   9.326  1.0290  0.0017 -0.4160
17153SOL    HW252038   0.300   4.024   9.467 -0.4106  0.4545 -0.6367
17154SOL     OW52039   8.542   8.022   2.949  0.2364  0.6103  0.1347
17154SOL    HW152040   8.499   7.938   2.965 -0.9168  1.1932  0.1897
17154SOL    HW252041   8.626   8.015   2.995 -1.0010  0.4817  2.5512
17155SOL     OW52042   9.154   5.185   2.105 -0.4625 -0.5960 -0.4188
17155SOL    HW152043   9.206   5.117   2.062 -0.7896 -0.3160 -1.2597
17155SOL    HW252044   9.099   5.137   2.168  0.1897 -0.9760 -0.1314
17156SOL     OW52045   5.121   9.700   6.188 -0.4380 -0.2971 -0.2859
17156SOL    HW152046   5.173   9.677   6.111  0.5706  0.0121  0.2846
17156SOL    HW252047   5.149   9.637   6.255 -1.6342 -0.8534 -0.2870
17157SOL     OW52048   7.666   0.414   2.332  0.6220  0.2189 -0.3506
17157SOL    HW152049   7.596   0.478   2.317  0.2220 -0.2570 -0.5204
17157SOL    HW252050   7.747   0.463   2.313  0.3998  1.0069  0.6174
17158SOL     OW52051   3.403   7.665   7.072 -0.3093 -0.4395 -0.2608
17158SOL    HW152052   3.462   7.591   7.085  1.7232  1.2346  0.3918
17158SOL    HW252053   3.349   7.667   7.151  0.3189 -0.6048  0.1769
17159SOL     OW52054   0.596   0.089   1.919 -0.0259  0.2269 -0.0605
17159SOL    HW152055   0.558   0.006   1.889  1.1092  0.2120 -1.5951
17159SOL    HW252056   0.527   0.153   1.905  0.1911  0.0924 -2.2252
17160SOL     OW52057   8.369   9.261   6.269  0.0008  0.4094 -0.5732
17160SOL    HW152058   8.283   9.278   6.307  0.1245  1.5535 -0.7786
17160SOL    HW252059   8.389   9.340   6.219  1.8318  0.8395  0.7359
17161SOL     OW52060   4.005   5.608   7.018 -0.4195 -0.5203 -0.1944
17161SOL    HW152061   4.079   5.581   7.072 -0.5680  0.5883  0.6117
17161SOL    HW252062   3.974   5.528   6.976  0.1631 -1.2896  0.8059
17162SOL     OW52063   2.497   0.688   3.684  0.2330 -0.3129 -0.2956
17162SOL    HW152064   2.445   0.719   3.758  1.9907 -0.5969  1.1397
17162SOL    HW252065   2.511   0.595   3.701  0.6908 -0.3772 -0.9750
17163SOL     OW52066   2.655   7.748   8.313 -0.4700 -0.1138 -0.2067
17163SOL    HW152067   2.634   7.669   8.362  0.0747 -0.0973  0.0591
17163SOL    HW252068   2.607   7.817   8.357  1.5436  0.2491  1.5623
17164SOL     OW52069   6.236   1.626   7.832 -0.1977 -0.4674  0.1962
17164SOL    HW152070   6.322   1.596   7.803 -0.4648 -1.3344  0.2868
17164SOL    HW252071   6.179   1.614   7.756 -0.2065  0.3010  0.0680
17165SOL     OW52072   9.074   4.690   5.939 -0.0210  0.5354  0.3454
17165SOL    HW152073   9.016   4.623   5.974 -1.3818  1.4893 -0.0176
17165SOL    HW252074   9.101   4.656   5.854  1.9294 -0.9999  1.4727
17166SOL     OW52075   5.221   9.309   5.549 -0.1726 -0.2598  0.1647
17166SOL    HW152076   5.203   9.218   5.527  2.0669 -1.1667  1.7072
17166SOL    HW252077   5.203   9.316   5.643  1.6062  0.2880  0.5084
17167SOL     OW52078   6.377   2.571   9.207  0.1764 -0.0171  0.2968
17167SOL    HW152079   6.284   2.591   9.192  0.0647 -0.4523  0.3779
17167SOL    HW252080   6.423   2.622   9.141 -0.1397  0.0236  0.1032
17168SOL     OW52081   5.397   2.753   6.765 -0.0276  0.1672  0.0030
17168SOL    HW152082   5.335   2.769   6.836 -0.8585 -2.5108 -0.0269
17168SOL    HW252083   5.482   2.770   6.804 -0.3049 -2.8775  2.3316
17169SOL     OW52084   4.626   2.774   5.590 -0.4655 -0.2966  0.7813
17169SOL    HW152085   4.577   2.708   5.639  0.0797 -2.3154 -1.2292
17169SOL    HW252086   4.718   2.747   5.598 -0.3886 -0.9949 -1.6184
17170SOL     OW52087   0.070   9.528   1.444  1.0493 -0.4707  0.4332
17170SOL    HW152088   0.002   9.461   1.455  1.2945 -0.9212 -0.6473
17170SOL    HW252089   0.138   9.504   1.506  1.2184 -1.3434 -0.0820
17171SOL     OW52090   2.517   2.952   7.037  0.2958  0.2119 -0.1068
17171SOL    HW152091   2.511   2.980   6.946 -3.8091 -0.5204 -0.2473
17171SOL    HW252092   2.546   2.861   7.032  0.9558  0.4393 -0.5796
17172SOL     OW52093   2.781   1.694   6.701 -0.1390  0.8403 -0.4070
17172SOL    HW152094   2.801   1.662   6.789 -1.6579 -1.8473 -0.9395
17172SOL    HW252095   2.861   1.678   6.651 -0.2714 -0.6100 -0.2098
17173SOL     OW52096   8.666   4.478   9.753  0.4045  0.6118  0.3570
17173SOL    HW152097   8.603   4.406   9.751 -0.0198  0.9564  1.0688
17173SOL    HW252098   8.751   4.436   9.746  0.1246  0.1029 -0.0453
17174SOL     OW52099   4.118   6.234   5.700 -0.6208 -0.4028  0.2185
17174SOL    HW152100   4.111   6.238   5.795  1.5204 -2.6877  0.5652
17174SOL    HW252101   4.028   6.245   5.669 -1.5358 -0.7675  2.5321
17175SOL     OW52102   2.538   7.937   3.684 -0.0472 -0.3311 -0.5627
17175SOL    HW152103   2.532   7.951   3.778  1.7715 -1.7104 -0.1750
17175SOL    HW252104   2.450   7.913   3.657 -0.4153 -0.7768  0.9522
17176SOL     OW52105   9.811   2.996   0.523 -0.3245 -0.8089  0.0692
17176SOL    HW152106   9.728   3.014   0.567 -0.4903  0.1744 -0.6243
17176SOL    HW252107   9.826   3.072   0.467 -0.8886 -2.6103 -2.7613
17177SOL     OW52108   1.233   2.318   5.825  0.6010 -0.2438 -0.3114
17177SOL    HW152109   1.327   2.300   5.833  1.0506  1.8490 -0.2216
17177SOL    HW252110   1.208   2.348   5.912  0.0272 -0.0546 -0.5408
17178SOL     OW52111   9.785   4.325   8.040 -0.1297 -0.1872 -0.3319
17178SOL    HW152112   9.856   4.374   7.998 -0.6898  1.3648  0.4519
17178SOL    HW252113   9.714   4.327   7.976 -0.6399  1.3126  0.2374
17179SOL     OW52114   2.640   5.290   5.794  0.1242  0.1024  0.4178
17179SOL    HW152115   2.600   5.369   5.758 -0.6933 -0.6104 -0.3031
17179SOL    HW252116   2.588   5.269   5.872 -2.6410 -2.1613 -1.8066
17180SOL     OW52117   9.528   4.129   1.287  0.3888 -0.1481  0.1659
17180SOL    HW152118   9.614   4.139   1.328  1.0053 -0.5539 -0.9816
17180SOL    HW252119   9.469   4.182   1.340  1.1978 -0.4675  1.4228
17181SOL     OW52120   0.795   0.675   2.827  0.3130  0.6329 -0.1163
17181SOL    HW152121   0.793   0.589   2.785  0.3038  1.1169 -1.1442
17181SOL    HW252122   0.821   0.735   2.757 -1.3226  1.7095  0.1317
17182SOL     OW52123   3.179   7.853   2.676 -0.0255  0.6151 -0.7584
17182SOL    HW152124   3.197   7.787   2.609 -0.7160  0.6473 -0.9778
17182SOL    HW252125   3.109   7.815   2.729  1.1013  0.2078  0.4916
17183SOL     OW52126   0.538   6.227   4.999  0.0062  0.0101  0.3128
17183SOL    HW152127   0.462   6.208   4.944 -0.4694 -0.8768  1.2265
17183SOL    HW252128   0.528   6.168   5.074 -0.5644  2.6179  2.4487
17184SOL     OW52129   6.309   5.532   2.643  0.4846  0.0444 -0.0253
17184SOL    HW152130   6.401   5.552   2.656  0.3069  1.2247 -0.4444
17184SOL    HW252131   6.278   5.600   2.584 -0.1806 -1.5131 -1.5658
17185SOL     OW52132   9.635   1.398   1.396 -0.1039  0.1633  0.5411
17185SOL    HW152133   9.610   1.478   1.444  1.3841  1.2105 -0.3647
17185SOL    HW252134   9.726   1.412   1.371 -0.5228 -0.7586 -1.7726
17186SOL     OW52135   1.049   3.310   2.875  0.1545 -0.1669  0.4492
17186SOL    HW152136   0.962   3.338   2.904  0.6424 -0.4143  2.3255
17186SOL    HW252137   1.061   3.223   2.914  0.7521 -0.7116 -0.8672
17187SOL     OW52138   7.137   7.145   6.686 -1.1100 -0.0831  0.3412
17187SOL    HW152139   7.082   7.209   6.639 -0.0126 -0.3419 -1.4006
17187SOL    HW252140   7.123   7.063   6.638 -2.0332 -1.0459  2.1825
17188SOL     OW52141   0.559   7.666   4.665  0.0144 -0.4512 -0.3600
17188SOL    HW152142   0.473   7.676   4.624  0.3093  1.1087 -0.6549
17188SOL    HW252143   0.541   7.673   4.759 -0.2477 -0.6442 -0.3946
17189SOL     OW52144   2.544   1.682   8.009  0.1318 -0.0456 -0.2635
17189SOL    HW152145   2.585   1.756   8.054 -1.1014  0.0038  0.8408
17189SOL    HW252146   2.588   1.605   8.046  0.4143  0.0685 -0.3574
17190SOL     OW52147   9.603   7.413   0.806  0.3015 -0.2459 -0.1452
17190SOL    HW152148   9.630   7.396   0.715 -0.6724 -0.7377 -0.3545
17190SOL    HW252149   9.685   7.430   0.852  0.6406  3.0858 -1.6994
17191SOL     OW52150   6.732   9.575   5.223 -0.1584 -0.6010  0.4210
17191SOL    HW152151   6.726   9.652   5.166  1.1429  0.4716  1.6310
17191SOL    HW252152   6.697   9.605   5.307  0.6731 -1.2135  0.9992
17192SOL     OW52153   5.270   9.454   1.571  0.0294 -0.3309  0.2667
17192SOL    HW152154   5.246   9.415   1.655  1.5114 -5.9526 -1.5015
17192SOL    HW252155   5.361   9.481   1.582 -0.7385  2.0708  1.2537
17193SOL     OW52156   8.507   2.956   7.844 -0.1639  0.1163 -0.0955
17193SOL    HW152157   8.540   3.007   7.917  1.3057 -2.6663  1.3594
17193SOL    HW252158   8.579   2.958   7.780  0.3706 -0.9180  0.4380
17194SOL     OW52159   4.723   2.724   5.974 -0.0880  0.0642 -0.2534
17194SOL    HW152160   4.729   2.818   5.952 -0.6966 -0.1055 -1.2417
17194SOL    HW252161   4.739   2.720   6.068 -1.8532  1.3911  0.1750
17195SOL     OW52162   4.460   0.340   4.569  0.2905 -0.7114 -0.1500
17195SOL    HW152163   4.408   0.260   4.578 -1.5092  0.3686 -0.5146
17195SOL    HW252164   4.466   0.375   4.658 -0.1184 -0.5420 -0.1864
17196SOL     OW52165   2.295   3.117   6.244 -0.1535 -0.3944 -0.6556
17196SOL    HW152166   2.310   3.088   6.334  1.9970  0.0534 -0.8047
17196SOL    HW252167   2.326   3.044   6.191 -2.0899 -0.9551 -1.0711
17197SOL     OW52168   9.284   1.289   7.123 -0.3412  0.3721  0.0717
17197SOL    HW152169   9.204   1.277   7.174 -0.5197  0.1327 -0.2590
17197SOL    HW252170   9.253   1.296   7.032  0.1770 -2.4783 -0.4114
17198SOL     OW52171   0.948   6.046   1.247  0.2831  0.1360  0.4617
17198SOL    HW152172   0.986   5.971   1.201 -1.4655 -0.0771 -0.7367
17198SOL    HW252173   1.020   6.080   1.300  1.4539 -1.6441  0.1117
17199SOL     OW52174   8.012   9.443   9.304 -0.1902  0.0085 -0.0438
17199SOL    HW152175   8.051   9.417   9.388  0.7989  1.4942 -0.0077
17199SOL    HW252176   8.001   9.361   9.257 -1.6895 -0.9870  1.8949
17200SOL     OW52177   7.383   8.529   9.576  0.3051  0.1062  0.6903
17200SOL    HW152178   7.343   8.442   9.579  1.0552 -0.2173  2.4150
17200SOL    HW252179   7.477   8.514   9.588  0.6199  1.0716 -0.3347
17201SOL     OW52180   2.550   7.224   6.027  0.1053  0.1421 -0.2119
17201SOL    HW152181   2.575   7.174   6.105 -2.0082  2.0039  1.8141
17201SOL    HW252182   2.482   7.172   5.986  0.9488 -0.6555 -0.6470
17202SOL     OW52183   0.999   2.794   7.152  0.0129  0.1795  0.1601
17202SOL    HW152184   0.993   2.699   7.157 -1.2096  0.2570  0.4839
17202SOL    HW252185   1.081   2.815   7.197  0.2151 -0.7023  0.2279
17203SOL     OW52186   1.389   6.116   5.452  0.4063 -0.0818 -0.2279
17203SOL    HW152187   1.376   6.129   5.358 -1.1322 -0.3717 -0.0904
17203SOL    HW252188   1.313   6.064   5.480  0.7082  0.1957  1.2164
17204SOL     OW52189   3.440   9.222   5.181  0.2851 -0.3296 -0.0381
17204SOL    HW152190   3.460   9.191   5.092 -0.0188  3.2448 -1.5191
17204SOL    HW252191   3.345   9.213   5.188  0.4440 -1.8728  0.5239
17205SOL     OW52192   1.846   5.721   4.470  0.2817 -0.7911  0.6505
17205SOL    HW152193   1.851   5.801   4.523 -0.2718 -0.1539 -0.2424
17205SOL    HW252194   1.762   5.727   4.424  1.2338 -0.7611 -1.1793
17206SOL     OW52195   5.314   7.555   4.034 -0.0883  0.1121 -0.1418
17206SOL    HW152196   5.372   7.496   3.986  0.7606 -0.7632  1.8313
17206SOL    HW252197   5.231   7.507   4.040 -0.1074  0.1021 -0.4548
17207SOL     OW52198   9.953   9.267   5.465  0.2736  0.2176  0.5316
17207SOL    HW152199   9.887   9.203   5.438 -0.9013  1.2241  0.8972
17207SOL    HW252200   9.974   9.314   5.384  1.1325 -0.6199  0.2651
17208SOL     OW52201   3.124   2.020   8.397  0.0889 -0.4506  0.4750
17208SOL    HW152202   3.092   2.080   8.331  1.3050  1.3404  1.4437
17208SOL    HW252203   3.047   2.002   8.452 -0.4560 -0.4065 -0.2538
17209SOL     OW52204   9.461   5.871   4.295 -0.2909 -0.0315 -0.5924
17209SOL    HW152205   9.416   5.824   4.365  1.3265 -0.1700  0.4038
17209SOL    HW252206   9.419   5.840   4.215 -2.1010  0.0355  0.2837
17210SOL     OW52207   2.250   8.054   9.267  0.0850 -0.2498 -0.0608
17210SOL    HW152208   2.245   8.105   9.347 -0.1202 -1.4225  0.6918
17210SOL    HW252209   2.254   7.963   9.296 -1.6354 -0.8098 -1.4060
17211SOL     OW52210   7.347   8.343   0.511 -0.1862 -0.2256 -0.2866
17211SOL    HW152211   7.361   8.268   0.453  0.5502  0.3674 -0.8954
17211SOL    HW252212   7.395   8.415   0.470  0.3640  0.2100  1.0517
17212SOL     OW52213   5.621   7.093   6.247  0.1983 -0.8097  0.0406
17212SOL    HW152214   5.554   7.058   6.305 -0.5469 -0.5540 -0.6569
17212SOL    HW252215   5.573   7.134   6.176  1.0855 -1.9653 -1.2830
17213SOL     OW52216   2.362   1.664   4.825 -0.1872 -0.3148  0.0197
17213SOL    HW152217   2.433   1.620   4.872 -0.7732 -1.4157 -0.0994
17213SOL    HW252218   2.389   1.756   4.821  1.1832 -0.6988  0.0572
17214SOL     OW52219   5.290   8.160   0.140  0.1242  0.1313 -0.4134
17214SOL    HW152220   5.356   8.222   0.171  0.3875  0.2760 -1.2226
17214SOL    HW252221   5.323   8.075   0.167  0.0766  0.2898  0.1575
17215SOL     OW52222   7.712   1.882   6.621  0.5003  0.1473 -0.1517
17215SOL    HW152223   7.628   1.899   6.579  0.0824 -0.6288  0.3560
17215SOL    HW252224   7.725   1.788   6.613  0.2819 -0.0773  1.6713
17216SOL     OW52225   1.407   3.344   7.348  0.7000  0.0266 -0.2149
17216SOL    HW152226   1.389   3.381   7.434  0.0771 -1.3611  0.2783
17216SOL    HW252227   1.502   3.346   7.340  0.7766 -0.0291  0.5971
17217SOL     OW52228   7.839   5.121   0.796 -0.3025 -0.1655 -0.1515
17217SOL    HW152229   7.921   5.163   0.768  0.3126 -1.0674  0.2757
17217SOL    HW252230   7.780   5.134   0.722  0.6062 -0.5466 -0.9658
17218SOL     OW52231   5.068   4.688   1.299 -0.3485  0.3986  0.7022
17218SOL    HW152232   5.021   4.757   1.346  0.7115  0.9560  0.9717
17218SOL    HW252233   5.043   4.699   1.208 -0.3353  1.0141  0.7732
17219SOL     OW52234   1.824   8.238   9.858  0.0729 -0.3471  0.2212
17219SOL    HW152235   1.760   8.198   9.917  0.3509  0.1412  0.8649
17219SOL    HW252236   1.902   8.183   9.865  0.5825  0.4886  1.3898
17220SOL     OW52237   7.005   2.547   2.039 -0.0568  0.2093  0.1534
17220SOL    HW152238   7.069   2.597   2.089  0.3190  0.3007 -0.4175
17220SOL    HW252239   7.000   2.592   1.955 -0.9621  0.2785  0.2322
17221SOL     OW52240   6.134   6.589   1.577  0.5458 -0.3254 -0.5877
17221SOL    HW152241   6.046   6.567   1.545 -0.1246  1.0655  0.2213
17221SOL    HW252242   6.170   6.648   1.510 -0.1531  1.1303  0.2694
17222SOL     OW52243   9.782   9.072   9.369 -0.2285 -0.1797 -0.1197
17222SOL    HW152244   9.870   9.037   9.354 -0.5301 -0.2356 -2.0104
17222SOL    HW252245   9.735   9.001   9.412  0.3085 -0.5993 -0.2152
17223SOL     OW52246   9.355   6.813   2.701 -0.1710 -0.3129  0.6782
17223SOL    HW152247   9.448   6.835   2.701  0.1192 -1.4762  0.4206
17223SOL    HW252248   9.345   6.749   2.771 -0.6721 -0.6287  0.3247
17224SOL     OW52249   0.881   6.251   0.799 -0.3918  0.3276  0.1139
17224SOL    HW152250   0.904   6.224   0.710 -0.9199 -1.5269  0.4812
17224SOL    HW252251   0.811   6.190   0.825 -1.7272  2.1476  1.0631
17225SOL     OW52252   2.847   5.376   0.599  0.1512  0.5507  0.1012
17225SOL    HW152253   2.851   5.464   0.561 -0.2636  0.2171 -0.7252
17225SOL    HW252254   2.762   5.373   0.643  0.7156  1.0074  1.2610
17226SOL     OW52255   4.439   0.234   3.994  0.2659  0.1249 -0.5123
17226SOL    HW152256   4.456   0.301   3.928 -1.5378 -0.5190 -1.7034
17226SOL    HW252257   4.522   0.185   4.000  0.3417 -0.1295 -2.7051
17227SOL     OW52258   8.678   8.967   4.180  0.3134  0.3488  0.3300
17227SOL    HW152259   8.727   9.006   4.253  2.0933 -1.5861  0.2730
17227SOL    HW252260   8.651   8.882   4.213 -0.5541  0.2416 -0.6362
17228SOL     OW52261   1.064   0.411   8.599 -0.3334  0.4153  0.1406
17228SOL    HW152262   0.980   0.457   8.593 -0.3170  0.2910 -1.4006
17228SOL    HW252263   1.044   0.322   8.570  0.1551  0.1242  0.6816
17229SOL     OW52264   9.009   7.227   0.200  0.1053 -0.0790 -0.3874
17229SOL    HW152265   9.033   7.318   0.213  0.4536 -0.2783  0.4822
17229SOL    HW252266   9.062   7.198   0.126 -2.2202  1.2219 -2.7091
17230SOL     OW52267   0.894   4.940   7.374  0.1287  0.3064 -0.3102
17230SOL    HW152268   0.931   5.026   7.355  0.4150  0.7898  2.1495
17230SOL    HW252269   0.965   4.891   7.415 -0.8716  0.0103  1.1691
17231SOL     OW52270   3.974   4.287   2.706 -0.0190  0.0135  0.1181
17231SOL    HW152271   4.013   4.214   2.754  1.9649  0.3347 -0.9298
17231SOL    HW252272   3.959   4.254   2.618 -2.4707 -0.1814  0.5420
17232SOL     OW52273   0.513   5.865   3.103 -0.0533 -0.2584 -0.4079
17232SOL    HW152274   0.419   5.865   3.086 -0.2933  1.9336  0.5459
17232SOL    HW252275   0.553   5.868   3.017 -0.8336 -1.5269 -0.8327
17233SOL     OW52276   5.080   6.299   4.486  0.4479  0.1338  0.3835
17233SOL    HW152277   5.058   6.276   4.396  2.0225 -0.6606  0.1701
17233SOL    HW252278   5.100   6.392   4.483  1.4845 -0.0863 -0.3355
17234SOL     OW52279   4.626   4.039   1.361 -0.5386  0.0961 -0.2020
17234SOL    HW152280   4.612   4.134   1.355 -1.8739  0.2368  3.1978
17234SOL    HW252281   4.561   4.009   1.424  0.9420 -2.8447  0.0751
17235SOL     OW52282   4.229   6.255   5.960  0.2775  0.7287  0.3804
17235SOL    HW152283   4.225   6.178   6.018  0.6209  0.8195  0.5277
17235SOL    HW252284   4.321   6.261   5.935  0.2278  1.0191  0.2680
17236SOL     OW52285   0.685   9.748   0.189  0.3144  0.2007  0.0735
17236SOL    HW152286   0.704   9.654   0.193 -0.2508  0.0826  0.0554
17236SOL    HW252287   0.768   9.788   0.162  0.9040 -0.1673  1.2636
17237SOL     OW52288   3.636   7.210   9.723 -0.4088  0.7095  0.3647
17237SOL    HW152289   3.680   7.195   9.807  0.0996 -0.1463 -0.0394
17237SOL    HW252290   3.668   7.295   9.693  1.2095 -0.0119 -0.0534
17238SOL     OW52291   3.763   1.519   6.474  0.3839 -0.0190 -0.0069
17238SOL    HW152292   3.738   1.475   6.393 -0.6274 -0.0207  0.2896
17238SOL    HW252293   3.742   1.611   6.460  0.4458  0.0212  0.1567
17239SOL     OW52294   6.934   8.852   5.349  0.2856 -0.2426 -0.8252
17239SOL    HW152295   6.888   8.768   5.342 -3.1511  1.5046 -1.4777
17239SOL    HW252296   6.876   8.906   5.401  2.8774  1.5178  0.4204
17240SOL     OW52297   3.952   8.445   2.771 -0.2098 -0.0037  0.2059
17240SOL    HW152298   3.988   8.375   2.717 -1.6857 -0.6233 -0.0193
17240SOL    HW252299   4.021   8.464   2.835  0.9890 -0.2668 -0.9661
17241SOL     OW52300   9.722   1.441   1.715 -0.1326 -0.2727  0.0355
17241SOL    HW152301   9.781   1.454   1.790 -0.0150 -1.1828  0.1132
17241SOL    HW252302   9.754   1.360   1.674 -1.9899 -1.4218  0.7294
17242SOL     OW52303   0.628   4.751   3.286  0.2756  0.1927  0.3118
17242SOL    HW152304   0.667   4.733   3.201 -0.9030 -0.3862 -0.1196
17242SOL    HW252305   0.637   4.845   3.297  2.0517  0.0610  0.3734
17243SOL     OW52306   3.674   2.150   9.848 -0.6795  0.0861  0.3137
17243SOL    HW152307   3.764   2.183   9.840  0.1469 -2.2107 -1.0090
17243SOL    HW252308   3.622   2.207   9.792  0.3444  0.2642 -0.4833
17244SOL     OW52309   4.691   5.347   8.949  0.3562  0.6125  0.6237
17244SOL    HW152310   4.678   5.439   8.973 -1.7666  0.2155  1.2152
17244SOL    HW252311   4.610   5.323   8.902  1.4237 -0.6084 -0.6737
17245SOL     OW52312   0.935   2.423   8.193 -0.1408  0.1351 -0.0814
17245SOL    HW152313   0.983   2.412   8.275  0.6543  0.3964 -0.5046
17245SOL    HW252314   0.968   2.505   8.157  0.3274 -0.5298 -1.2068
17246SOL     OW52315   4.011   9.426   0.495 -0.6926 -0.2494 -0.5783
17246SOL    HW152316   3.921   9.420   0.528  0.0488 -0.9145  1.4670
17246SOL    HW252317   4.023   9.344   0.447 -0.8228 -0.6973  0.1366
17247SOL     OW52318   1.617   2.105   1.216  1.1402 -0.0671  0.0899
17247SOL    HW152319   1.705   2.113   1.252  1.7756 -1.5177 -1.0684
17247SOL    HW252320   1.602   2.011   1.208 -0.9745  0.1032  1.2916
17248SOL     OW52321   1.759   9.460   0.567  0.5876  0.3321  0.0596
17248SOL    HW152322   1.752   9.534   0.627  1.1414  1.4450 -1.1959
17248SOL    HW252323   1.721   9.386   0.615 -2.4488  1.9561  0.3971
17249SOL     OW52324   5.515   6.932   1.429  0.1589  0.0095  0.3129
17249SOL    HW152325   5.498   6.872   1.357  0.8404 -1.5626  1.3994
17249SOL    HW252326   5.433   6.933   1.478 -0.1018  0.5843 -0.1296
17250SOL     OW52327   0.628   6.519   5.357  0.3317 -0.0284  0.7014
17250SOL    HW152328   0.662   6.508   5.268  0.8412  2.6647  0.4779
17250SOL    HW252329   0.681   6.460   5.410  2.4156  0.8187 -0.3117
17251SOL     OW52330   5.336   5.605   6.463  0.2138  0.8097  0.7370
17251SOL    HW152331   5.279   5.682   6.465  1.3477  1.6643  1.1087
17251SOL    HW252332   5.276   5.531   6.464 -1.0145  1.6445 -1.9325
17252SOL     OW52333   5.269   1.177   1.585  0.2614 -0.4087 -0.0574
17252SOL    HW152334   5.275   1.271   1.599 -1.0354 -0.4589  1.0166
17252SOL    HW252335   5.207   1.166   1.513  0.6057 -0.4446 -0.3534
17253SOL     OW52336   3.079   8.615   8.645  0.3368  0.3856 -0.1123
17253SOL    HW152337   3.051   8.682   8.583  0.3934  0.7363  0.2377
17253SOL    HW252338   3.148   8.567   8.599  1.8352  1.9289  0.3875
17254SOL     OW52339   2.351   1.248   8.845  0.8781 -0.4202 -0.0985
17254SOL    HW152340   2.387   1.271   8.931 -1.9473  0.7214  0.8641
17254SOL    HW252341   2.337   1.332   8.801 -0.7162 -0.7944 -0.3508
17255SOL     OW52342   3.002   5.903   3.291  0.4620 -0.4625 -0.1247
17255SOL    HW152343   2.915   5.869   3.268  0.2029  0.1840 -0.1175
17255SOL    HW252344   3.055   5.825   3.306 -0.0965 -0.8636 -0.2118
17256SOL     OW52345   3.982   6.264   9.385  0.4250 -0.0501 -0.2734
17256SOL    HW152346   3.976   6.190   9.444  1.2851 -0.8144 -1.1128
17256SOL    HW252347   3.954   6.339   9.438 -0.0465 -0.8904  0.7108
17257SOL     OW52348   5.761   2.542   6.437 -0.8859  0.0393  0.0488
17257SOL    HW152349   5.747   2.593   6.358 -1.8413 -1.2205 -0.6216
17257SOL    HW252350   5.852   2.514   6.433 -1.0066 -0.2396 -0.7419
17258SOL     OW52351   4.157   5.870   0.087  0.2437 -0.0457 -0.1772
17258SOL    HW152352   4.173   5.906   0.174  2.2075  0.7200 -0.7891
17258SOL    HW252353   4.213   5.792   0.083 -2.2792 -2.0034  0.3365
17259SOL     OW52354   2.997   9.875   6.332 -0.2510 -0.5469 -0.2111
17259SOL    HW152355   3.036   9.788   6.328  0.5269 -0.3117  1.2791
17259SOL    HW252356   2.974   9.887   6.424 -1.8582  0.2019 -0.6704
17260SOL     OW52357   5.753   3.005   9.903  0.4777 -0.1892 -0.0731
17260SOL    HW152358   5.687   2.958   9.853  0.0853  0.2889 -0.0224
17260SOL    HW252359   5.703   3.052   9.970  1.0586 -1.3895  1.2335
17261SOL     OW52360   9.606   2.972   1.897  0.5248 -0.1564  0.3067
17261SOL    HW152361   9.642   2.970   1.985 -2.0083  1.7169  1.4880
17261SOL    HW252362   9.554   2.892   1.890  0.6144 -0.2367  0.5538
17262SOL     OW52363   6.726   4.381   5.806 -0.8368 -0.1845 -0.1433
17262SOL    HW152364   6.665   4.315   5.838 -0.8886  0.4296  1.0896
17262SOL    HW252365   6.812   4.352   5.839 -0.8303  0.2369  0.2268
17263SOL     OW52366   4.553   1.171   0.276  0.0737  0.4530  0.2100
17263SOL    HW152367   4.619   1.137   0.217 -1.1149 -2.6910  0.5329
17263SOL    HW252368   4.482   1.201   0.219  0.6745  1.4488 -0.0397
17264SOL     OW52369   9.918   9.264   8.872 -1.1563  0.0905 -0.0682
17264SOL    HW152370   9.879   9.201   8.933 -1.5110  0.7334  0.3740
17264SOL    HW252371  10.008   9.275   8.904 -1.2400  0.1737  0.1417
17265SOL     OW52372   0.388   5.980   9.117 -0.2472  0.0820  0.6004
17265SOL    HW152373   0.296   5.994   9.139 -0.7783 -2.8795  0.6122
17265SOL    HW252374   0.415   5.905   9.170  1.8038  0.0418 -0.3893
17266SOL     OW52375   5.801   5.527   3.385 -0.2104 -0.4366 -0.0212
17266SOL    HW152376   5.808   5.552   3.477  1.5559  0.8185 -0.4557
17266SOL    HW252377   5.848   5.595   3.337 -0.5080 -1.4126 -1.8053
17267SOL     OW52378   2.325   3.215   6.602 -0.1551  0.3110 -0.4276
17267SOL    HW152379   2.300   3.236   6.692  3.1888  0.8197  0.4996
17267SOL    HW252380   2.294   3.126   6.588 -2.1016  0.7730  0.6187
17268SOL     OW52381   2.825   3.326   9.640 -0.6546  0.1732  0.4754
17268SOL    HW152382   2.762   3.277   9.694 -0.7879 -1.2861 -0.9342
17268SOL    HW252383   2.787   3.413   9.633 -1.2041  0.0642  1.7850
17269SOL     OW52384   9.234   5.483   7.378 -0.3355  0.0503  0.3270
17269SOL    HW152385   9.232   5.524   7.464 -3.0859 -1.6956  1.2225
17269SOL    HW252386   9.229   5.389   7.396 -0.9860 -0.3599 -1.7050
17270SOL     OW52387   3.197   6.614   9.638  0.9111 -0.5363  0.2407
17270SOL    HW152388   3.132   6.674   9.601  1.3888 -0.1749 -0.0355
17270SOL    HW252389   3.168   6.599   9.727 -0.4718 -1.7144 -0.3669
17271SOL     OW52390   0.083   2.371   2.568  0.0532  0.1987  0.0735
17271SOL    HW152391   0.150   2.311   2.537 -1.1458 -1.2585  0.1714
17271SOL    HW252392   0.046   2.328   2.645 -0.6028  1.2453  0.3710
17272SOL     OW52393   8.843   3.069   8.829  0.2320  0.8097 -0.0188
17272SOL    HW152394   8.928   3.048   8.868 -0.4546 -0.2982  0.9583
17272SOL    HW252395   8.825   3.159   8.858  0.9223  0.9423  0.0223
17273SOL     OW52396   8.761   4.885   7.891 -0.2897 -0.7832 -0.0214
17273SOL    HW152397   8.740   4.829   7.816 -1.8778  0.4059 -0.5260
17273SOL    HW252398   8.802   4.963   7.852 -1.8106  0.1794  0.2013
17274SOL     OW52399   7.354   6.362   1.553 -0.1523  0.1080 -0.9982
17274SOL    HW152400   7.351   6.349   1.458  2.5387 -1.7328 -0.9535
17274SOL    HW252401   7.296   6.294   1.588 -0.3166  0.0975 -1.2839
17275SOL     OW52402   8.801   2.771   3.454  0.6831 -0.3350  0.2348
17275SOL    HW152403   8.824   2.743   3.542 -1.6377 -2.2687  0.3154
17275SOL    HW252404   8.706   2.766   3.450  0.4220  2.8825 -1.4241
17276SOL     OW52405   0.238   3.849   5.187 -0.7008 -0.1904  0.0886
17276SOL    HW152406   0.202   3.812   5.107 -1.9931 -0.2835  0.6746
17276SOL    HW252407   0.318   3.799   5.204 -0.9350 -0.8162 -0.6249
17277SOL     OW52408   5.234   1.636   5.806 -0.2035  0.2598  0.1421
17277SOL    HW152409   5.245   1.706   5.871 -0.1125  1.4604 -1.1048
17277SOL    HW252410   5.323   1.604   5.791 -0.4247 -1.4599  2.0488
17278SOL     OW52411   8.724   5.228   2.427 -0.2773 -0.0621  0.0128
17278SOL    HW152412   8.639   5.189   2.446 -0.6396  1.5019  1.8581
17278SOL    HW252413   8.729   5.230   2.331 -2.3507 -0.1107 -0.1270
17279SOL     OW52414   6.919   8.837   2.963  0.2521  0.2718  0.0931
17279SOL    HW152415   6.844   8.792   2.925  1.1218 -1.3445  0.1999
17279SOL    HW252416   6.925   8.919   2.914 -0.1543 -0.6250 -1.5365
17280SOL     OW52417   3.704   3.550   3.498  0.1237  0.1863 -0.1100
17280SOL    HW152418   3.696   3.518   3.588 -3.3221  0.8294 -0.0495
17280SOL    HW252419   3.799   3.560   3.484  0.7838  0.3692  3.5310
17281SOL     OW52420   6.241   9.874   5.218  0.6047 -0.3576 -0.4954
17281SOL    HW152421   6.313   9.836   5.167  0.7627  0.9801 -1.3182
17281SOL    HW252422   6.166   9.872   5.159  0.5678  0.3892 -0.4838
17282SOL     OW52423   3.169   5.288   6.742  0.0120  0.2268  0.0122
17282SOL    HW152424   3.144   5.370   6.783  0.9365  1.0167 -0.9428
17282SOL    HW252425   3.145   5.299   6.650  1.7795  0.1745 -0.4981
17283SOL     OW52426   0.585   9.314   8.285 -0.5791 -0.1252 -0.2249
17283SOL    HW152427   0.512   9.361   8.327  1.9786  0.5286  4.0130
17283SOL    HW252428   0.643   9.291   8.357  2.9158 -1.5996 -3.2402
17284SOL     OW52429   6.941   2.811   4.828 -0.0121  0.4320  0.0071
17284SOL    HW152430   7.029   2.843   4.808  0.6595 -0.9474  0.6089
17284SOL    HW252431   6.895   2.887   4.863  0.6638  1.3804 -1.0687
17285SOL     OW52432   0.115   1.542   8.494 -0.1896 -1.0949  0.1770
17285SOL    HW152433   0.111   1.451   8.463  2.2063 -1.1932 -0.0561
17285SOL    HW252434   0.185   1.582   8.443  2.6517 -0.7202  3.8979
17286SOL     OW52435   9.355   7.543   0.771 -0.5820  0.3715  0.0111
17286SOL    HW152436   9.307   7.528   0.852 -0.0649  2.5129  0.7714
17286SOL    HW252437   9.440   7.500   0.784 -1.1312 -0.7987 -0.1338
17287SOL     OW52438   1.976   5.639   3.541 -0.3383  0.0140  0.0590
17287SOL    HW152439   1.915   5.597   3.601  0.3617  0.0802  0.8379
17287SOL    HW252440   2.048   5.669   3.597  0.8872 -0.9382 -0.9543
17288SOL     OW52441   2.417   5.897   5.611  0.1293 -0.3263  0.2178
17288SOL    HW152442   2.328   5.862   5.621 -0.2412  0.9119  1.5433
17288SOL    HW252443   2.420   5.971   5.671  2.1013 -0.4017  0.2478
17289SOL     OW52444   0.882   9.739   3.494 -0.5944 -0.1174 -0.2444
17289SOL    HW152445   0.832   9.743   3.575  0.4520 -2.3083  0.5815
17289SOL    HW252446   0.973   9.728   3.521 -0.0738  0.2417 -1.7207
17290SOL     OW52447   6.055   8.963   5.517  0.2627  0.0441  0.4126
17290SOL    HW152448   6.147   8.939   5.509  1.3898  2.8509  2.9165
17290SOL    HW252449   6.027   8.927   5.601 -0.5208  0.3167  0.2832
17291SOL     OW52450   2.605   2.697   6.975  0.0010  0.0696 -0.1766
17291SOL    HW152451   2.607   2.659   6.888 -1.3558 -0.2829 -0.0724
17291SOL    HW252452   2.671   2.647   7.024  0.8978  0.3907 -1.0277
17292SOL     OW52453   5.871   8.715   7.585 -0.3449 -0.0498  0.0759
17292SOL    HW152454   5.843   8.767   7.509  1.8695  0.5082 -0.4362
17292SOL    HW252455   5.858   8.773   7.660 -1.0025  0.0078 -0.0757
17293SOL     OW52456   5.275   9.113   8.397 -0.6895 -0.1515  0.2859
17293SOL    HW152457   5.182   9.102   8.378 -0.7358  1.9454 -1.0646
17293SOL    HW252458   5.282   9.200   8.435  0.7593 -0.1312  0.0441
17294SOL     OW52459   9.600   1.482   3.157  0.0160  0.1189  0.3263
17294SOL    HW152460   9.619   1.511   3.247  0.9130 -0.0553  0.1969
17294SOL    HW252461   9.657   1.535   3.102  1.0906 -1.2892  0.0214
17295SOL     OW52462   6.996   9.572   3.940  0.0251  0.1361 -0.1906
17295SOL    HW152463   7.071   9.599   3.887  0.3270 -1.3114 -0.5251
17295SOL    HW252464   7.034   9.540   4.022 -0.3330  0.7497  0.2254
17296SOL     OW52465   4.489   7.732   0.750  0.2090 -0.2919  0.3373
17296SOL    HW152466   4.478   7.818   0.709  0.5121  0.2725  1.3830
17296SOL    HW252467   4.415   7.680   0.719 -0.1542  0.4497 -0.0591
17297SOL     OW52468   8.550   9.028   6.838  0.2201  0.1347  0.3338
17297SOL    HW152469   8.510   8.997   6.920  0.5961 -0.3883  0.3224
17297SOL    HW252470   8.640   8.997   6.842 -0.0462 -0.8286 -0.7803
17298SOL     OW52471   6.418   2.625   1.275 -0.0261  0.0603 -0.4050
17298SOL    HW152472   6.490   2.563   1.278  0.1918  0.3324  0.7880
17298SOL    HW252473   6.357   2.590   1.210  0.0641 -1.4299  0.2712
17299SOL     OW52474   5.246   7.488   7.304 -0.2491 -0.5875 -0.6267
17299SOL    HW152475   5.341   7.493   7.294 -0.2565  0.4568 -0.2792
17299SOL    HW252476   5.232   7.411   7.359  0.5117  0.1083  0.5902
17300SOL     OW52477   8.929   9.190   3.238 -0.3683 -0.3922  0.2216
17300SOL    HW152478   8.874   9.120   3.274 -1.6186  0.0806 -0.7393
17300SOL    HW252479   8.946   9.163   3.148  1.8195 -1.0122  0.7583
17301SOL     OW52480   7.918   4.072   8.001  0.6865  0.1266  0.6860
17301SOL    HW152481   7.861   4.106   8.069  1.1914 -0.2311  1.2983
17301SOL    HW252482   7.867   4.080   7.920 -0.3694 -0.5288  1.2649
17302SOL     OW52483   0.505   4.235   1.509  0.7578 -0.0867  0.5138
17302SOL    HW152484   0.449   4.157   1.500  0.5215  0.0858  0.4811
17302SOL    HW252485   0.594   4.200   1.509  0.9788 -0.1341 -3.8406
17303SOL     OW52486   4.729   3.318   1.855  0.3429 -0.0467  0.5713
17303SOL    HW152487   4.754   3.256   1.922  1.4800  0.4073  0.5796
17303SOL    HW252488   4.758   3.403   1.888 -0.6066  0.4094  0.2671
17304SOL     OW52489   0.883   3.816   8.525  0.0610  0.1174 -0.0172
17304SOL    HW152490   0.893   3.889   8.585 -1.7280  0.9421 -0.6366
17304SOL    HW252491   0.952   3.754   8.550  0.1833  0.9887  2.0113
17305SOL     OW52492   1.736   4.893   0.186 -0.2035 -0.4576 -0.5756
17305SOL    HW152493   1.676   4.939   0.127 -4.0683 -1.8240  1.8910
17305SOL    HW252494   1.732   4.801   0.159 -1.7872 -1.0555  1.4128
17306SOL     OW52495   1.562   9.699   3.623  0.3317  0.7500  0.0343
17306SOL    HW152496   1.473   9.664   3.623  0.0795  1.3766  0.6808
17306SOL    HW252497   1.568   9.752   3.543  0.4615 -0.1039 -0.5357
17307SOL     OW52498   5.712   1.597   5.650  0.1610 -0.4149  0.4414
17307SOL    HW152499   5.766   1.526   5.686  1.0457 -0.0161 -0.0568
17307SOL    HW252500   5.708   1.579   5.557 -2.1218 -1.4410  0.6744
17308SOL     OW52501   1.372   7.670   0.683  0.3585  0.2861  0.4403
17308SOL    HW152502   1.427   7.686   0.606  0.4485 -0.3299  0.3706
17308SOL    HW252503   1.404   7.587   0.719  1.4836  1.4175  2.1765
17309SOL     OW52504   4.515   4.405   9.320  0.2100  0.0618  0.3828
17309SOL    HW152505   4.593   4.354   9.301 -0.5280  0.0170 -3.2853
17309SOL    HW252506   4.548   4.491   9.344  1.5594  0.6108 -2.8862
17310SOL     OW52507   3.221   3.970   3.890 -0.3486  0.4070 -0.3355
17310SOL    HW152508   3.235   4.043   3.951 -0.6293  0.4664 -0.3422
17310SOL    HW252509   3.210   3.894   3.947  1.6528  0.0460 -0.3464
17311SOL     OW52510   8.632   4.171   1.347  0.0353  0.5475 -0.3849
17311SOL    HW152511   8.544   4.131   1.345 -0.1660  0.9188  0.5207
17311SOL    HW252512   8.690   4.102   1.314 -0.2892 -0.6043  1.3041
17312SOL     OW52513   1.298   9.605   4.180 -0.0867  0.4877 -0.2187
17312SOL    HW152514   1.374   9.652   4.214 -0.2373 -0.0311  0.8834
17312SOL    HW252515   1.223   9.658   4.209 -0.3155 -0.8628  1.8841
17313SOL     OW52516   0.928   4.971   8.024 -0.1440 -0.5371  0.5397
17313SOL    HW152517   1.012   4.937   8.054 -0.4681 -1.3266  0.5588
17313SOL    HW252518   0.892   5.016   8.101 -0.6614 -1.9765  1.1768
17314SOL     OW52519   7.246   0.641   2.569 -0.2124 -0.8569 -0.0576
17314SOL    HW152520   7.306   0.711   2.543 -0.9307 -0.3948 -0.5269
17314SOL    HW252521   7.239   0.648   2.664 -0.4532 -0.1305 -0.1244
17315SOL     OW52522   8.113   2.123   8.646  0.6163  0.4578 -0.4971
17315SOL    HW152523   8.032   2.117   8.595  0.3103  1.7763 -0.1991
17315SOL    HW252524   8.084   2.140   8.735  1.2056  2.4821 -0.6306
17316SOL     OW52525   2.491   1.598   4.026 -0.9337 -0.2578 -0.0446
17316SOL    HW152526   2.490   1.503   4.032 -1.6488 -0.5072 -2.7386
17316SOL    HW252527   2.532   1.616   3.942  0.1971  1.8970  0.8949
17317SOL     OW52528   3.340   9.456   1.595  0.1739 -0.4018  0.0810
17317SOL    HW152529   3.288   9.434   1.518 -1.5641  0.8981  0.8290
17317SOL    HW252530   3.411   9.511   1.562 -0.0632 -0.5579 -0.7023
17318SOL     OW52531   5.602   7.369   0.510 -0.1259  0.7708 -0.3216
17318SOL    HW152532   5.695   7.385   0.489  0.8114 -1.7085  1.4260
17318SOL    HW252533   5.603   7.287   0.560 -3.3273  0.5482 -0.4462
17319SOL     OW52534   2.699   5.796   0.200  0.1529 -0.6467 -0.0706
17319SOL    HW152535   2.628   5.857   0.179  0.7963 -0.1075 -0.7292
17319SOL    HW252536   2.654   5.716   0.227 -0.7362  0.4703  2.0007
17320SOL     OW52537   7.420   7.683   5.070  0.0362 -0.0197  0.1176
17320SOL    HW152538   7.347   7.742   5.054 -0.5216 -0.1505  1.9225
17320SOL    HW252539   7.441   7.696   5.163 -0.3878 -2.9194  0.7185
17321SOL     OW52540   2.705   5.398   4.764 -0.0449  0.3231 -0.1742
17321SOL    HW152541   2.707   5.405   4.859  0.0233  0.4379 -0.1831
17321SOL    HW252542   2.616   5.426   4.740 -0.5788 -1.1812 -0.0403
17322SOL     OW52543   3.776   1.918   6.881  0.4499 -0.3396  0.1787
17322SOL    HW152544   3.731   1.978   6.821  2.2925  1.6965  0.7132
17322SOL    HW252545   3.863   1.908   6.842  0.3859 -2.2216  0.4521
17323SOL     OW52546   1.019   4.455   5.971 -0.3738 -0.2716 -0.4125
17323SOL    HW152547   0.983   4.507   5.899  1.9194 -0.2588 -1.6244
17323SOL    HW252548   0.962   4.378   5.975 -1.2553  0.2982 -1.4259
17324SOL     OW52549   0.952   9.245   7.397 -0.0253 -0.3169 -0.1790
17324SOL    HW152550   0.993   9.290   7.323  2.0458 -1.4329  0.2104
17324SOL    HW252551   0.951   9.310   7.467  0.2720  0.0153 -0.4783
17325SOL     OW52552   7.719   3.068   9.109 -0.1828  0.3697  0.1780
17325SOL    HW152553   7.660   3.137   9.139 -0.2212 -0.6479  2.7068
17325SOL    HW252554   7.668   3.020   9.044 -0.3433  2.3330 -1.2151
17326SOL     OW52555   4.163   1.049   7.701 -0.5498  0.4149 -0.8945
17326SOL    HW152556   4.254   1.026   7.720 -0.8313 -0.5166 -0.6020
17326SOL    HW252557   4.168   1.132   7.654  0.3431  1.3713  0.8184
17327SOL     OW52558   6.227   1.811   7.038 -0.1246 -0.3246  0.4337
17327SOL    HW152559   6.266   1.882   6.986 -0.3486  0.2131  0.9859
17327SOL    HW252560   6.141   1.844   7.063 -0.1581 -0.7198  0.8529
17328SOL     OW52561   8.567   5.118   7.207 -0.8186 -0.1623  0.2788
17328SOL    HW152562   8.594   5.177   7.136  1.2890  0.9457  1.8719
17328SOL    HW252563   8.501   5.168   7.255 -0.0449  0.3724  0.8159
17329SOL     OW52564   7.104   3.696   5.771  1.0447 -0.3620 -0.5265
17329SOL    HW152565   7.025   3.715   5.720  0.5889 -1.6068 -0.3272
17329SOL    HW252566   7.072   3.647   5.847  1.5979  2.1558  1.4575
17330SOL     OW52567   0.939   3.049   2.536 -0.2279 -0.1372  0.1705
17330SOL    HW152568   1.024   3.078   2.570 -0.8095  0.5837  1.0304
17330SOL    HW252569   0.955   2.960   2.505  1.4324  0.7798 -1.8830
17331SOL     OW52570   2.760   2.076   2.991 -0.4876  0.1192  0.3034
17331SOL    HW152571   2.775   2.168   3.012  0.8582 -0.2076  0.9145
17331SOL    HW252572   2.805   2.028   3.061 -0.0145 -1.0030 -0.7393
17332SOL     OW52573   8.755   8.382   5.741  0.2936  0.3832  0.1450
17332SOL    HW152574   8.690   8.364   5.809  1.8936 -3.3638  0.9595
17332SOL    HW252575   8.735   8.319   5.672  1.7546  0.6739 -0.5712
17333SOL     OW52576   5.971   7.742   6.315  0.2046  0.0573  0.1217
17333SOL    HW152577   6.065   7.756   6.306  0.5214 -0.4243  2.2606
17333SOL    HW252578   5.953   7.760   6.407 -1.4156 -2.0163  0.2717
17334SOL     OW52579   1.183   7.001   9.442 -1.0426 -0.7461 -0.1708
17334SOL    HW152580   1.098   6.996   9.397 -0.2665  1.4195 -2.0722
17334SOL    HW252581   1.176   7.080   9.496 -0.7748 -1.4870  0.9764
17335SOL     OW52582   2.443   8.668   7.044  0.1644 -0.1191  0.5558
17335SOL    HW152583   2.507   8.730   7.081  2.5786 -2.3046  0.3460
17335SOL    HW252584   2.465   8.666   6.950  0.5746 -1.6855  0.6553
17336SOL     OW52585   8.022   4.119   8.567  0.1340  0.1699  0.2450
17336SOL    HW152586   8.083   4.078   8.506 -1.0406 -2.1334  0.5100
17336SOL    HW252587   8.005   4.051   8.633 -1.7289  1.1649  0.8557
17337SOL     OW52588   8.439   3.501   7.226 -0.3167 -0.4348 -0.5933
17337SOL    HW152589   8.418   3.424   7.280  0.4200 -0.1872  0.0638
17337SOL    HW252590   8.469   3.566   7.289 -0.0771  0.0921 -1.2486
17338SOL     OW52591   3.725   0.801   5.699 -0.8101 -0.4166 -0.2210
17338SOL    HW152592   3.724   0.896   5.701 -2.6112 -0.3743 -1.2906
17338SOL    HW252593   3.818   0.778   5.697 -0.3581  1.3218 -0.7742
17339SOL     OW52594   4.220   4.725   3.613 -0.0072  0.0239  0.1434
17339SOL    HW152595   4.201   4.634   3.591  1.7601 -0.1251 -1.0903
17339SOL    HW252596   4.300   4.721   3.666  0.4995  0.8507 -0.5126
17340SOL     OW52597   5.026   9.626   5.153  0.3711  0.3997  0.0393
17340SOL    HW152598   5.101   9.687   5.154  0.7848 -0.0885 -0.6129
17340SOL    HW252599   5.046   9.565   5.224 -0.5032  1.5291  1.3257
17341SOL     OW52600   7.120   4.546   3.547 -0.1261  0.3928  0.5110
17341SOL    HW152601   7.120   4.527   3.454 -1.0389 -1.2296  0.8099
17341SOL    HW252602   7.045   4.604   3.560 -0.8968 -0.5882  0.4549
17342SOL     OW52603   4.821   7.814   5.439 -0.0569  0.5140 -0.2671
17342SOL    HW152604   4.738   7.862   5.440  0.2953  1.1534  1.6506
17342SOL    HW252605   4.888   7.883   5.439  0.4554  0.0258  0.7061
17343SOL     OW52606   6.026   8.465   6.841  0.0763  0.1511 -0.3182
17343SOL    HW152607   5.982   8.382   6.853  1.2819 -0.5115 -0.2850
17343SOL    HW252608   6.045   8.496   6.929 -0.0924  0.3042 -0.3353
17344SOL     OW52609   5.154   9.722   9.291 -0.1027 -0.0228  0.3037
17344SOL    HW152610   5.219   9.767   9.237  0.5193  1.1567  1.9823
17344SOL    HW252611   5.204   9.685   9.363 -1.2813  1.0594  1.7273
17345SOL     OW52612   7.967   7.699   6.813 -0.1530  0.0162 -0.0477
17345SOL    HW152613   7.920   7.617   6.825 -1.2695  0.3424 -1.7963
17345SOL    HW252614   8.047   7.689   6.864 -0.1519 -2.2426 -0.4056
17346SOL     OW52615   2.565   0.960   8.197  0.0128 -0.3603  0.1837
17346SOL    HW152616   2.654   0.925   8.208 -0.5170 -1.5446  0.9344
17346SOL    HW252617   2.509   0.897   8.243 -1.0306  1.3481  1.3716
17347SOL     OW52618   8.459   7.811   1.793  0.9733 -0.3782  0.0673
17347SOL    HW152619   8.457   7.860   1.875  0.6881 -0.8585  0.3522
17347SOL    HW252620   8.410   7.731   1.812  0.0366 -0.0416 -0.8754
17348SOL     OW52621   0.421   8.451   6.818  0.5351 -0.5339  0.7453
17348SOL    HW152622   0.406   8.516   6.750  0.0037 -2.3189 -0.9446
17348SOL    HW252623   0.461   8.500   6.890  0.0051  1.6513 -0.3657
17349SOL     OW52624   1.216   3.566   3.317  0.2910  0.1032  0.3592
17349SOL    HW152625   1.258   3.648   3.291 -1.5830  1.5410  1.5834
17349SOL    HW252626   1.210   3.571   3.412  1.9299 -2.4388  0.6925
17350SOL     OW52627   0.729   0.320   0.976 -0.0271  0.1567 -0.2678
17350SOL    HW152628   0.653   0.280   1.018 -0.3258  1.8586  0.9359
17350SOL    HW252629   0.804   0.282   1.021 -0.2417 -0.1620 -0.1798
17351SOL     OW52630   2.311   0.835   8.347  0.1526 -0.8363 -0.0493
17351SOL    HW152631   2.349   0.791   8.424 -2.5146 -2.3050  0.5424
17351SOL    HW252632   2.287   0.763   8.288 -1.0769  0.0462 -0.6636
17352SOL     OW52633   0.675   4.635   3.540 -0.3912 -0.2757 -0.0692
17352SOL    HW152634   0.670   4.684   3.458 -1.3799 -0.9888 -0.4524
17352SOL    HW252635   0.671   4.543   3.513  0.1256 -0.5401  0.7291
17353SOL     OW52636   5.514   0.452   2.158 -0.5552  0.2801  0.3507
17353SOL    HW152637   5.427   0.488   2.178 -1.8149 -1.8915 -0.7344
17353SOL    HW252638   5.503   0.412   2.072  1.6152  0.1238  0.0992
17354SOL     OW52639   5.246   5.070   5.853 -0.8176 -0.4906  0.4717
17354SOL    HW152640   5.339   5.061   5.835 -1.3459 -2.1393 -1.9091
17354SOL    HW252641   5.241   5.091   5.947  1.9164  0.1942  0.5378
17355SOL     OW52642   1.388   6.991   5.397  0.3029 -0.5606  0.4815
17355SOL    HW152643   1.306   7.040   5.390  0.9226  0.4963  0.3807
17355SOL    HW252644   1.361   6.899   5.401 -0.8040 -0.4215 -1.8903
17356SOL     OW52645   9.674   2.135   5.203  0.2866  0.0409 -0.0631
17356SOL    HW152646   9.693   2.121   5.295 -0.0039  0.9051  0.1350
17356SOL    HW252647   9.700   2.053   5.160  3.0257  0.6134  0.3769
17357SOL     OW52648   2.968   8.517   6.125  0.3611 -0.4419  0.3076
17357SOL    HW152649   2.985   8.512   6.031  0.8985 -1.1962  0.4369
17357SOL    HW252650   2.976   8.610   6.146  0.9837 -0.3583 -0.2586
17358SOL     OW52651   8.804   9.480   3.016  0.0091 -0.0124  0.3934
17358SOL    HW152652   8.845   9.431   2.945  0.7253  0.9574  0.1165
17358SOL    HW252653   8.721   9.435   3.031 -0.6689  0.3816 -1.7944
17359SOL     OW52654   7.165   6.039   2.343  0.2749  0.3987 -0.2765
17359SOL    HW152655   7.260   6.054   2.345 -0.1039  3.2405  0.4020
17359SOL    HW252656   7.128   6.124   2.319 -2.1954 -0.0318  1.6116
17360SOL     OW52657   7.482   5.519   1.563  0.0770 -0.3905  0.1323
17360SOL    HW152658   7.539   5.589   1.595 -0.1058 -0.0846 -0.1994
17360SOL    HW252659   7.516   5.497   1.477 -0.0401 -0.5065  0.1152
17361SOL     OW52660   3.612   4.509   5.048 -0.4176 -0.0179 -0.1188
17361SOL    HW152661   3.684   4.463   5.093  0.6947  1.0610 -0.7189
17361SOL    HW252662   3.579   4.445   4.985 -0.3991 -0.7417  0.5833
17362SOL     OW52663   5.813   3.981   4.983  0.8066 -0.0932 -0.3141
17362SOL    HW152664   5.747   3.957   4.918  1.7719 -0.6838 -1.1155
17362SOL    HW252665   5.769   4.044   5.041 -1.5044 -2.7872  1.1434
17363SOL     OW52666   5.259   3.182   8.570  0.3044 -0.2920 -0.3831
17363SOL    HW152667   5.166   3.178   8.592  0.3688  1.1928  0.3239
17363SOL    HW252668   5.267   3.257   8.510  0.8988 -1.0915 -1.3367
17364SOL     OW52669   4.718   5.178   4.811 -0.1326 -0.5858 -0.1010
17364SOL    HW152670   4.699   5.262   4.853  1.3182  0.1307 -0.7899
17364SOL    HW252671   4.796   5.146   4.856  0.2813 -0.7590 -0.9197
17365SOL     OW52672   7.938   1.249   3.316 -0.2461 -0.2628  0.0963
17365SOL    HW152673   7.902   1.222   3.400 -1.1458  0.0205 -0.1904
17365SOL    HW252674   7.866   1.294   3.272  0.0507 -0.8694 -1.0472
17366SOL     OW52675   3.988   6.244   3.785 -0.0179  0.3447  0.2028
17366SOL    HW152676   3.903   6.271   3.749  0.3404  1.4571  0.1575
17366SOL    HW252677   3.989   6.283   3.873  1.0984  1.6998 -0.3859
17367SOL     OW52678   4.094   8.773   7.912  0.2201 -0.0242 -0.7995
17367SOL    HW152679   4.183   8.739   7.910 -0.2484 -1.3027 -1.2012
17367SOL    HW252680   4.062   8.759   7.822 -1.1822 -1.9145 -0.0832
17368SOL     OW52681   4.561   7.013   6.899 -0.2619  0.0144  0.4650
17368SOL    HW152682   4.480   6.963   6.898  0.1485 -0.6736 -0.6525
17368SOL    HW252683   4.629   6.950   6.873  0.5734  0.6714  0.9818
17369SOL     OW52684   7.256   4.977   2.564 -0.0405  0.2097  0.0529
17369SOL    HW152685   7.238   4.889   2.530  0.3362  0.8797 -2.0591
17369SOL    HW252686   7.333   5.005   2.515 -0.7193  2.0852  0.0084
17370SOL     OW52687   4.697   1.696   1.628 -0.2787 -0.4194  0.2416
17370SOL    HW152688   4.739   1.685   1.713 -0.4137 -0.0902  0.3536
17370SOL    HW252689   4.615   1.648   1.635 -1.6601  1.9356  1.3064
17371SOL     OW52690   3.117   7.028   9.109 -0.4139 -0.2773 -0.2127
17371SOL    HW152691   3.038   7.050   9.159  0.1209  1.3278 -0.0000
17371SOL    HW252692   3.186   7.078   9.152  0.6406 -1.3223 -0.6706
17372SOL     OW52693   2.525   7.397   3.518 -0.1854  0.3313 -0.0258
17372SOL    HW152694   2.591   7.465   3.531 -0.5917  0.6167  0.5576
17372SOL    HW252695   2.550   7.327   3.579 -0.8230  0.7361  0.7022
17373SOL     OW52696   3.187   5.035   0.351  0.6898  0.2362  0.4744
17373SOL    HW152697   3.242   4.958   0.339  0.6598  0.2347  0.3470
17373SOL    HW252698   3.113   5.021   0.292  0.3724  0.0715  0.8976
17374SOL     OW52699   7.346   1.922   5.801  0.0478  0.6510  0.5541
17374SOL    HW152700   7.425   1.886   5.761 -1.9860 -1.7162 -1.7005
17374SOL    HW252701   7.366   1.926   5.895  2.7376  0.0159  0.0882
17375SOL     OW52702   0.613   2.843   2.355 -0.1398 -0.1887  0.6702
17375SOL    HW152703   0.648   2.810   2.438 -1.1380 -0.3224  1.0397
17375SOL    HW252704   0.541   2.901   2.379  0.5792  1.0579 -0.0442
17376SOL     OW52705   8.733   9.350   5.587  0.6731 -0.0993  0.5148
17376SOL    HW152706   8.718   9.439   5.620  1.3379 -0.5437  2.1286
17376SOL    HW252707   8.649   9.305   5.601  0.0803  0.4632 -1.0579
17377SOL     OW52708   2.880   7.184   6.068  0.0648 -0.3265  0.2889
17377SOL    HW152709   2.847   7.270   6.093  1.0699 -0.1942  1.2780
17377SOL    HW252710   2.852   7.172   5.977 -2.4103 -0.1324  0.9667
17378SOL     OW52711   6.718   9.034   0.615  0.2679  0.6357  0.6188
17378SOL    HW152712   6.771   8.974   0.668  1.1065  1.8915  1.2399
17378SOL    HW252713   6.726   9.118   0.659  0.2310  1.5282 -1.0089
17379SOL     OW52714   9.589   7.763   5.916  0.6747 -0.3796 -0.1628
17379SOL    HW152715   9.533   7.768   5.838  0.5524 -0.9057 -0.1112
17379SOL    HW252716   9.651   7.835   5.905 -0.2642  0.4782 -0.0241
17380SOL     OW52717   6.911   2.934   6.448  0.3181  0.6534  0.2367
17380SOL    HW152718   6.956   3.012   6.415  1.1507  0.4561  0.8732
17380SOL    HW252719   6.921   2.939   6.543 -0.5657  0.3192  0.3585
17381SOL     OW52720   5.698   6.027   8.827  0.3420  0.0779  1.0012
17381SOL    HW152721   5.761   6.089   8.791  0.3691 -0.3610  0.2715
17381SOL    HW252722   5.664   5.980   8.751 -0.8170  0.2547  1.3900
17382SOL     OW52723   6.112   0.369   7.485  0.6992 -0.0234 -0.0230
17382SOL    HW152724   6.161   0.362   7.403 -0.9443  1.9307 -1.2607
17382SOL    HW252725   6.113   0.462   7.506  0.3481 -0.3750  1.7524
17383SOL     OW52726   4.582   9.811   1.832 -0.0661  0.6693  0.7024
17383SOL    HW152727   4.598   9.720   1.858 -2.0428 -0.1207 -0.5848
17383SOL    HW252728   4.540   9.851   1.907  0.2463  0.3517  1.0504
17384SOL     OW52729   1.958   8.348   7.290 -0.2535  0.2400  0.0028
17384SOL    HW152730   1.983   8.289   7.361  0.7880 -1.9859 -2.1154
17384SOL    HW252731   1.869   8.322   7.267 -1.1594  1.9215  1.3290
17385SOL     OW52732   4.551   5.831   9.942  0.2883 -0.1193  0.4651
17385SOL    HW152733   4.585   5.905   9.892  4.0056 -1.6473  0.3771
17385SOL    HW252734   4.584   5.846  10.031 -1.1781 -0.3918  1.0756
17386SOL     OW52735   7.532   4.091   9.313 -0.2441  0.2821 -0.1612
17386SOL    HW152736   7.464   4.026   9.330  0.1241  0.1090  0.7271
17386SOL    HW252737   7.613   4.041   9.309  0.2195  0.7706  1.7769
17387SOL     OW52738   3.969   6.620   6.931  0.3848  0.0966  0.3653
17387SOL    HW152739   3.986   6.527   6.917  1.5624  0.3452  0.0218
17387SOL    HW252740   4.033   6.647   6.997  1.5012  1.1074 -1.0687
17388SOL     OW52741   3.858   1.847   1.191  0.2926 -0.1761 -0.9170
17388SOL    HW152742   3.900   1.879   1.111 -0.5322  1.4132 -0.7555
17388SOL    HW252743   3.835   1.756   1.172  0.1610  0.1648 -2.4833
17389SOL     OW52744   7.328   7.994   6.108  0.1407  0.0460  0.5517
17389SOL    HW152745   7.382   7.918   6.089  1.7258  1.3331 -0.3495
17389SOL    HW252746   7.339   8.051   6.032 -3.2115  0.0387 -0.0966
17390SOL     OW52747   0.464   3.743   5.279 -0.2930  0.7181  0.0900
17390SOL    HW152748   0.555   3.738   5.251 -0.7582  1.5405 -1.7245
17390SOL    HW252749   0.462   3.699   5.364  1.7394  0.5054  0.0647
17391SOL     OW52750   4.245   0.483   7.975 -0.0120 -0.2877  0.0051
17391SOL    HW152751   4.250   0.445   7.887 -1.0109  1.5475 -0.8802
17391SOL    HW252752   4.254   0.577   7.962 -1.2912  0.1301  1.7623
17392SOL     OW52753   1.694   2.310   6.808 -0.7512  0.0295 -0.0015
17392SOL    HW152754   1.753   2.348   6.743  0.8014  1.2592  2.0021
17392SOL    HW252755   1.618   2.282   6.758  1.1509 -0.8761 -2.5993
17393SOL     OW52756   2.374   1.442   0.890 -0.0318 -0.1013 -0.2920
17393SOL    HW152757   2.379   1.526   0.845  1.5854 -1.0042 -1.9309
17393SOL    HW252758   2.286   1.409   0.870 -0.3066  0.7330 -0.4833
17394SOL     OW52759   2.644   5.145   1.625 -0.7104 -0.6191  0.0009
17394SOL    HW152760   2.602   5.125   1.541  2.2420 -2.2008 -1.2478
17394SOL    HW252761   2.689   5.227   1.611 -1.0666 -0.3448  0.4207
17395SOL     OW52762   1.957   8.445   5.506 -0.6097 -0.0038  0.3890
17395SOL    HW152763   1.947   8.354   5.477 -2.0683 -0.4223  2.0437
17395SOL    HW252764   2.027   8.479   5.452 -1.3481 -1.5224 -1.6714
17396SOL     OW52765   3.360   9.955   2.804 -0.1014 -0.2142  0.0739
17396SOL    HW152766   3.370   9.865   2.773 -0.6644 -0.6774  1.1893
17396SOL    HW252767   3.277   9.955   2.851 -0.0808  0.8828  0.1378
17397SOL     OW52768   3.799   0.815   4.308 -0.0076  0.0646  0.0320
17397SOL    HW152769   3.728   0.841   4.249  1.3440 -0.5162 -1.9456
17397SOL    HW252770   3.864   0.885   4.299  0.5368 -0.4097  0.2566
17398SOL     OW52771   3.267   4.345   6.397 -0.0356 -0.3502  0.2169
17398SOL    HW152772   3.338   4.357   6.461  1.3877  1.3430 -1.5579
17398SOL    HW252773   3.202   4.410   6.421  1.0556  1.1439 -0.7103
17399SOL     OW52774   1.639   1.441   8.089 -0.0850 -0.4402  0.2390
17399SOL    HW152775   1.589   1.501   8.145  2.5307  0.7146  1.5244
17399SOL    HW252776   1.585   1.362   8.085 -2.3601  0.9684  0.8128
17400SOL     OW52777   9.053   9.621   1.491  0.2492 -0.2148 -0.1221
17400SOL    HW152778   9.000   9.689   1.449  0.9887  0.8301  0.5924
17400SOL    HW252779   9.107   9.668   1.555  3.5764 -0.8998 -2.1893
17401SOL     OW52780   7.574   2.270   9.321 -0.2381 -0.1151 -0.2367
17401SOL    HW152781   7.509   2.313   9.377  0.0556  0.2021 -0.1344
17401SOL    HW252782   7.566   2.177   9.343 -1.5192 -0.2364 -1.1293
17402SOL     OW52783   8.021   6.463   5.963 -0.2622  0.5367  0.2586
17402SOL    HW152784   8.096   6.419   5.924 -0.2415  0.1625  0.7136
17402SOL    HW252785   8.018   6.549   5.921  0.5841  0.6553  0.4363
17403SOL     OW52786   3.396   3.183   7.182 -0.3007 -0.0034  0.1313
17403SOL    HW152787   3.396   3.100   7.230 -1.1863  0.1644  0.4565
17403SOL    HW252788   3.380   3.250   7.250 -1.7890  0.2192 -0.3955
17404SOL     OW52789   4.364   3.146   6.516 -0.3798 -0.7962 -0.2762
17404SOL    HW152790   4.414   3.108   6.444 -2.8077 -2.4397 -1.2254
17404SOL    HW252791   4.279   3.167   6.478 -0.5555  1.7594  1.2885
17405SOL     OW52792   2.721   5.217   8.806 -0.3258 -0.3575  0.1721
17405SOL    HW152793   2.732   5.308   8.835 -0.9095 -0.4662  0.7601
17405SOL    HW252794   2.804   5.174   8.826 -0.1336 -0.0136  0.1164
17406SOL     OW52795   1.052   3.648   3.717 -0.0810 -1.2363 -0.5423
17406SOL    HW152796   1.131   3.652   3.664 -0.3107 -2.0591 -0.9638
17406SOL    HW252797   0.985   3.614   3.658 -0.3546 -2.1205  0.2495
17407SOL     OW52798   3.177   8.545   4.128  0.3129 -0.0399 -0.1800
17407SOL    HW152799   3.271   8.558   4.140 -0.0311  0.9468  1.7368
17407SOL    HW252800   3.170   8.463   4.079  2.1617 -0.1488 -0.3119
17408SOL     OW52801   2.028   6.945   3.724  0.2315  0.0129  0.4417
17408SOL    HW152802   1.990   7.019   3.678  1.4165  0.4818  0.1766
17408SOL    HW252803   1.956   6.907   3.774 -0.2564  1.7254  1.0837
17409SOL     OW52804   7.874   0.549   4.347  0.6069 -0.2256 -0.6168
17409SOL    HW152805   7.897   0.462   4.378 -1.3395 -1.1679 -1.6376
17409SOL    HW252806   7.806   0.534   4.281 -1.8472  2.1622  1.1515
17410SOL     OW52807   4.306   3.539   1.303  0.3278  0.2676 -0.2493
17410SOL    HW152808   4.326   3.476   1.372 -3.8203 -1.6232 -0.4717
17410SOL    HW252809   4.288   3.621   1.349  0.2120 -0.2503  0.6325
17411SOL     OW52810   1.009   5.067   0.675 -0.3208 -0.0882 -0.0762
17411SOL    HW152811   1.014   5.160   0.651 -4.3178  0.6206  1.0612
17411SOL    HW252812   1.047   5.063   0.763 -0.1312  0.4814 -0.1308
17412SOL     OW52813   1.854   2.076   3.459 -0.2043 -0.2598  0.6162
17412SOL    HW152814   1.915   2.053   3.389  0.7862  0.2701  1.2745
17412SOL    HW252815   1.868   2.169   3.474 -1.6381  0.0266  0.3707
17413SOL     OW52816   5.923   2.406   9.111  0.0941  0.4250  0.1373
17413SOL    HW152817   5.835   2.439   9.097  0.0507  0.4213  0.3838
17413SOL    HW252818   5.922   2.375   9.202 -0.3394 -1.6880 -0.5228
17414SOL     OW52819   1.458   5.819   5.496 -0.0105  0.1532  0.7540
17414SOL    HW152820   1.379   5.769   5.516 -0.2893  1.2265  2.6113
17414SOL    HW252821   1.459   5.889   5.561  0.1527  2.8541 -1.9133
17415SOL     OW52822   5.722   9.889   2.604 -0.2359  0.3084 -0.1525
17415SOL    HW152823   5.746   9.939   2.526 -2.8387  0.7296 -0.7599
17415SOL    HW252824   5.668   9.817   2.571  0.6100 -0.9494  1.0578
17416SOL     OW52825   2.460   3.525   5.334  0.4909  0.0326  0.4329
17416SOL    HW152826   2.386   3.533   5.395  1.8718 -0.3989  2.2694
17416SOL    HW252827   2.526   3.477   5.384  2.1081  0.6491 -1.0401
17417SOL     OW52828   8.271   0.928   0.354 -0.3107 -0.2048  0.4998
17417SOL    HW152829   8.307   0.983   0.424 -1.1101 -0.8878  1.4690
17417SOL    HW252830   8.305   0.841   0.373 -1.7180 -0.6810  0.9009
17418SOL     OW52831   3.050   6.998   6.110  0.3213 -0.0171 -0.8388
17418SOL    HW152832   3.109   7.041   6.172  0.2964 -0.0192 -0.8136
17418SOL    HW252833   2.981   7.062   6.094 -0.7690 -0.7365  0.6887
17419SOL     OW52834   9.841   4.361   1.093  0.2806  0.0675 -0.6535
17419SOL    HW152835   9.924   4.344   1.137  1.0237  1.9006 -1.2733
17419SOL    HW252836   9.806   4.274   1.074  1.6197 -0.7468  0.3966
17420SOL     OW52837   4.850   4.820   1.417 -0.1951 -0.6848 -0.0183
17420SOL    HW152838   4.792   4.744   1.421 -0.0332 -0.9851 -2.1742
17420SOL    HW252839   4.836   4.857   1.330 -0.7708  2.2305  1.1900
17421SOL     OW52840   5.630   9.071   7.471  0.2170  0.2310 -0.4523
17421SOL    HW152841   5.565   9.006   7.496  1.5896 -0.9484  0.1878
17421SOL    HW252842   5.586   9.155   7.483 -1.1319 -0.5338  0.0963
17422SOL     OW52843   4.885   0.868   9.351 -0.1424  0.4344  0.1364
17422SOL    HW152844   4.943   0.936   9.385 -0.4690 -0.1218  1.9456
17422SOL    HW252845   4.827   0.847   9.425 -2.4605  0.7527 -1.4896
17423SOL     OW52846   7.681   4.841   3.609 -0.0799 -0.0021  0.2736
17423SOL    HW152847   7.733   4.775   3.564  1.1840 -0.0052  1.6627
17423SOL    HW252848   7.612   4.864   3.547  0.2437 -1.6465 -0.7435
17424SOL     OW52849   8.720   0.983   6.673  0.1869 -0.7628  0.0981
17424SOL    HW152850   8.769   1.063   6.692 -0.3909 -0.1558 -0.8245
17424SOL    HW252851   8.710   0.940   6.758  0.4140  0.2003  0.6340
17425SOL     OW52852   0.704   2.052   9.956  0.0646 -0.1573 -0.5860
17425SOL    HW152853   0.747   2.136   9.940  0.0128 -0.2232 -1.0814
17425SOL    HW252854   0.630   2.051   9.896  0.6526 -0.9916 -1.3105
17426SOL     OW52855   0.252   9.546   9.450 -0.1556  0.3501 -0.0375
17426SOL    HW152856   0.170   9.525   9.496  0.7231 -1.2937  0.8655
17426SOL    HW252857   0.281   9.463   9.413  0.3188  1.2261 -1.7231
17427SOL     OW52858   6.654   8.359   1.163 -0.6349 -0.8980 -0.0796
17427SOL    HW152859   6.652   8.359   1.259  1.7761  1.2366  0.0830
17427SOL    HW252860   6.734   8.312   1.140 -0.7067 -0.6123 -0.9726
17428SOL     OW52861   9.093   0.829   7.737  0.2199 -0.1696 -1.3344
17428SOL    HW152862   9.101   0.735   7.755  0.2360  0.0034 -0.3557
17428SOL    HW252863   8.998   0.845   7.737  0.2093  0.3086  1.5055
17429SOL     OW52864   1.118   9.612   7.219  1.1505 -0.3761  0.1385
17429SOL    HW152865   1.073   9.696   7.209 -1.7658 -1.6586  1.4476
17429SOL    HW252866   1.113   9.572   7.132 -0.1727 -0.4399  0.2325
17430SOL     OW52867   1.602   6.255   7.208  0.2968  0.5160  0.1012
17430SOL    HW152868   1.623   6.241   7.115 -0.9919  1.2420 -0.3302
17430SOL    HW252869   1.672   6.210   7.255  0.3742 -0.8306 -1.2175
17431SOL     OW52870   9.329   4.552   0.590 -0.3299 -0.0279 -0.2720
17431SOL    HW152871   9.406   4.501   0.614 -0.2574 -0.2536 -0.9850
17431SOL    HW252872   9.256   4.506   0.631 -0.0115  0.7025  1.1976
17432SOL     OW52873   7.242   6.752   0.534  0.5498  0.4431 -0.1134
17432SOL    HW152874   7.253   6.830   0.589 -0.7906  0.9447 -0.5108
17432SOL    HW252875   7.164   6.771   0.481  0.9221 -0.6604 -1.0992
17433SOL     OW52876   1.556   4.594   7.542  0.2724  0.5323 -0.5479
17433SOL    HW152877   1.488   4.535   7.573  0.2127  1.9739  2.4511
17433SOL    HW252878   1.632   4.538   7.529 -0.2898 -0.4884  0.3975
17434SOL     OW52879   8.133   2.382   4.015 -0.5729  0.4599  0.0001
17434SOL    HW152880   8.146   2.326   3.939 -0.4252  1.7513 -0.9498
17434SOL    HW252881   8.195   2.454   4.003 -0.8736  0.9223  1.1009
17435SOL     OW52882   9.327   0.112   9.791  0.7144  0.1275  0.1949
17435SOL    HW152883   9.405   0.167   9.802  0.1170  0.5534  2.9111
17435SOL    HW252884   9.329   0.087   9.699  2.0841  3.1050 -0.7084
17436SOL     OW52885   6.020   5.927   8.887 -0.0582 -0.1294  0.1046
17436SOL    HW152886   6.023   5.868   8.812  0.0303  2.0783 -1.7321
17436SOL    HW252887   5.947   5.986   8.867  0.5713  1.0891  1.3033
17437SOL     OW52888   4.161   2.305   6.439 -0.0133 -0.3433 -0.5456
17437SOL    HW152889   4.167   2.286   6.346  0.5887  0.8295 -0.7621
17437SOL    HW252890   4.219   2.380   6.453 -0.2010 -0.4038  0.7445
17438SOL     OW52891   9.755   1.774   1.675  0.3825  0.2021 -0.2558
17438SOL    HW152892   9.710   1.694   1.648  0.5910  0.1180 -0.3572
17438SOL    HW252893   9.803   1.803   1.598  0.4822  0.3040 -0.1571
17439SOL     OW52894   6.357   4.124   7.984  0.2968 -0.0570 -0.0844
17439SOL    HW152895   6.282   4.175   7.953  1.3106  1.2137 -0.5305
17439SOL    HW252896   6.416   4.189   8.023  1.4940 -0.9245 -0.3856
17440SOL     OW52897   1.419   3.206   3.845 -0.2990 -1.0811 -0.1413
17440SOL    HW152898   1.364   3.285   3.839  1.5872  0.3161 -0.0172
17440SOL    HW252899   1.399   3.170   3.932  0.6948  0.7908  0.9268
17441SOL     OW52900   0.685   3.549   2.413 -0.1418  0.4270 -0.2568
17441SOL    HW152901   0.718   3.486   2.349 -0.1091  0.9490 -0.7600
17441SOL    HW252902   0.610   3.590   2.370 -1.3758 -0.6141  0.8067
17442SOL     OW52903   0.100   7.635   7.359  0.1456 -0.0101 -0.6078
17442SOL    HW152904   0.072   7.553   7.319  1.3530 -0.5050 -0.4720
17442SOL    HW252905   0.045   7.702   7.318 -0.6398 -0.8438 -0.9370
17443SOL     OW52906   0.674   3.786   3.722 -0.3786 -0.2477 -0.0674
17443SOL    HW152907   0.725   3.867   3.711 -2.0333  0.6106 -2.0973
17443SOL    HW252908   0.691   3.736   3.643 -1.9493 -0.3266 -0.3861
17444SOL     OW52909   1.452   1.785   0.427  0.0432  0.6891 -0.4906
17444SOL    HW152910   1.532   1.807   0.475 -0.0748  0.5291 -0.2188
17444SOL    HW252911   1.383   1.834   0.472  0.1830  1.9518 -1.5825
17445SOL     OW52912   1.554   6.849   2.080  0.4659 -0.2209 -0.1266
17445SOL    HW152913   1.547   6.836   2.174 -0.6607  0.0220 -0.1628
17445SOL    HW252914   1.549   6.761   2.042  0.6916 -0.2987  0.0234
17446SOL     OW52915   6.037   3.471   7.670 -0.2156  0.3538 -0.1703
17446SOL    HW152916   6.101   3.537   7.644 -0.5468  0.7335 -0.0448
17446SOL    HW252917   6.085   3.412   7.727  0.4061 -0.2405 -1.2823
17447SOL     OW52918   9.296   4.451   2.087  0.0123  0.1253  0.0527
17447SOL    HW152919   9.267   4.525   2.034 -0.3478  0.8104  1.1880
17447SOL    HW252920   9.281   4.478   2.177  1.5676 -0.6163  0.5671
17448SOL     OW52921   4.438   8.947   7.970 -0.1776 -0.3967 -0.0513
17448SOL    HW152922   4.423   9.029   7.924 -1.5264 -0.2405  0.5824
17448SOL    HW252923   4.531   8.946   7.990 -0.1113  0.9059 -0.2297
17449SOL     OW52924   9.704   1.761   6.409  0.0827 -0.2156  0.0440
17449SOL    HW152925   9.708   1.856   6.422  0.2729 -0.1230 -0.6275
17449SOL    HW252926   9.793   1.731   6.424  0.0056 -0.3003  0.3336
17450SOL     OW52927   5.031   1.139   7.086  0.6260  0.1953 -0.0916
17450SOL    HW152928   5.125   1.123   7.078  0.1061 -2.4096 -2.6756
17450SOL    HW252929   5.004   1.091   7.164  1.3711  0.8384  0.5799
17451SOL     OW52930   1.090   5.962   3.580  0.1986  0.2860 -0.2264
17451SOL    HW152931   1.004   5.952   3.538  0.5391 -0.1006 -0.8403
17451SOL    HW252932   1.119   6.050   3.555  0.4905 -0.0172 -0.9912
17452SOL     OW52933   6.028   0.820   3.411 -0.2532 -0.4209 -0.9086
17452SOL    HW152934   5.943   0.864   3.409  0.1982  0.4825 -0.6476
17452SOL    HW252935   6.085   0.876   3.359  0.8325  0.3729  1.0598
17453SOL     OW52936   4.839   7.737   2.439  0.1360 -0.4563  0.7502
17453SOL    HW152937   4.807   7.816   2.483 -0.6356  0.3911 -1.1966
17453SOL    HW252938   4.810   7.665   2.495 -1.8159  0.4925  1.0544
17454SOL     OW52939   4.401   4.501   4.739  0.0785 -0.8382 -0.0837
17454SOL    HW152940   4.404   4.575   4.679 -2.8656 -2.6010 -2.7264
17454SOL    HW252941   4.427   4.426   4.686 -0.1031 -2.1453  1.5937
17455SOL     OW52942   2.548   3.116   5.184 -0.5662  0.3502 -0.4047
17455SOL    HW152943   2.509   3.199   5.156 -1.4207  0.3003  0.5843
17455SOL    HW252944   2.478   3.052   5.175 -0.3689  0.0282  0.2350
17456SOL     OW52945   4.334   1.057   0.442 -0.3470 -0.2245  0.4422
17456SOL    HW152946   4.421   1.092   0.422 -0.9560  1.8604  1.1463
17456SOL    HW252947   4.282   1.076   0.364 -0.3467 -0.8174  0.2974
17457SOL     OW52948   1.282   1.547   0.201  0.6435  0.2805 -0.3660
17457SOL    HW152949   1.250   1.504   0.122 -2.2368  2.0876 -0.3274
17457SOL    HW252950   1.202   1.575   0.247  2.2847  2.2007  1.5182
17458SOL     OW52951   4.738   3.159   1.417  0.3184 -0.0516 -0.0564
17458SOL    HW152952   4.686   3.079   1.416 -0.0090  0.1378  0.8375
17458SOL    HW252953   4.675   3.229   1.399  0.4669  0.0716 -0.0978
17459SOL     OW52954   7.702   6.198   9.295 -0.9205 -0.1566 -0.0505
17459SOL    HW152955   7.660   6.154   9.222 -0.6697 -1.2719  0.4527
17459SOL    HW252956   7.789   6.158   9.301 -0.9218 -0.0541  0.8143
17460SOL     OW52957   3.515   6.846   8.997 -0.3050 -0.0889 -0.0802
17460SOL    HW152958   3.477   6.884   8.918  2.5998 -1.1480 -2.1736
17460SOL    HW252959   3.507   6.915   9.063 -0.8955  1.6877 -1.8952
17461SOL     OW52960   7.420   2.478   7.346  0.0301  0.3704 -0.0485
17461SOL    HW152961   7.490   2.534   7.315 -0.4907  0.8446 -0.3869
17461SOL    HW252962   7.354   2.480   7.276  1.8807 -4.3388 -2.4063
17462SOL     OW52963   1.586   3.342   6.934 -0.0063  0.3872 -1.3993
17462SOL    HW152964   1.584   3.258   6.979 -1.4936  1.5017  0.7386
17462SOL    HW252965   1.568   3.320   6.842 -1.5949 -1.5194 -0.6991
17463SOL     OW52966   3.249   7.405   7.588  0.4256 -0.6556 -0.2214
17463SOL    HW152967   3.312   7.366   7.527 -1.6610 -1.9065 -1.7380
17463SOL    HW252968   3.272   7.498   7.590 -0.0791 -0.2737 -3.9743
17464SOL     OW52969   0.923   6.818   2.580 -0.1859 -0.3709  0.4704
17464SOL    HW152970   0.850   6.794   2.523  0.5749  1.6400 -1.4684
17464SOL    HW252971   1.001   6.795   2.530  0.5050  1.6504  0.5380
17465SOL     OW52972   0.729   9.188   9.107 -0.0970  0.3825  0.0148
17465SOL    HW152973   0.680   9.244   9.046  2.9134  2.1417 -0.9664
17465SOL    HW252974   0.739   9.105   9.061  0.3407  0.9889 -1.0050
17466SOL     OW52975   5.487   4.709   5.890 -0.1834 -0.0654 -0.2210
17466SOL    HW152976   5.433   4.638   5.855 -1.6351  1.5094 -1.3233
17466SOL    HW252977   5.425   4.771   5.927  1.1161  0.1758  1.7297
17467SOL     OW52978  -0.033   8.113   6.796  0.6136  0.1822  0.2451
17467SOL    HW152979   0.017   8.189   6.767  1.0158  0.4293  1.5138
17467SOL    HW252980   0.027   8.039   6.788  0.0012 -0.1488 -1.6497
17468SOL     OW52981   7.038   7.185   9.667  0.0827  0.0247  0.0697
17468SOL    HW152982   6.990   7.196   9.585  0.4957  1.1091 -0.0471
17468SOL    HW252983   7.020   7.265   9.716  0.8749 -0.0381  0.4838
17469SOL     OW52984   6.615   3.758   2.508  0.2822 -0.0876 -0.2846
17469SOL    HW152985   6.663   3.732   2.586 -2.0260 -2.6382  0.4698
17469SOL    HW252986   6.555   3.826   2.538 -1.2420 -1.6961  0.5125
17470SOL     OW52987   3.485   0.822   0.951 -0.5214  0.3706  0.2571
17470SOL    HW152988   3.443   0.741   0.980  2.4397 -1.1912  0.5792
17470SOL    HW252989   3.489   0.813   0.855 -0.8260  0.4998  0.2298
17471SOL     OW52990   8.373   5.133   4.767  0.2536 -0.0029  0.1110
17471SOL    HW152991   8.329   5.110   4.849  0.9220  1.7856  1.0225
17471SOL    HW252992   8.317   5.200   4.728  0.1081 -0.6138 -0.7734
17472SOL     OW52993   1.602   3.720   8.827  0.4588 -0.4095  0.0608
17472SOL    HW152994   1.653   3.801   8.820 -2.0309  1.4865  2.2122
17472SOL    HW252995   1.664   3.657   8.865  1.9362  1.0227  0.1678
17473SOL     OW52996   9.279   9.868   6.051 -0.2607  0.2030 -0.4554
17473SOL    HW152997   9.184   9.857   6.056 -0.3288 -0.9213 -2.7421
17473SOL    HW252998   9.293   9.931   5.981  0.6861  0.2395 -0.2564
17474SOL     OW52999   2.670   8.207   3.656 -0.5567  0.8274  0.6306
17474SOL    HW153000   2.623   8.271   3.711 -1.9508  0.1129  0.3169
17474SOL    HW253001   2.693   8.137   3.717 -0.7275  0.7557  0.6150
17475SOL     OW53002   7.734   3.434   4.626 -0.6713  0.4316  0.3510
17475SOL    HW153003   7.710   3.517   4.667 -0.6430  0.2553  0.7295
17475SOL    HW253004   7.818   3.411   4.665 -0.4964  0.4060 -0.0277
17476SOL     OW53005   8.163   2.214   4.779 -0.1068 -0.1244 -0.5559
17476SOL    HW153006   8.120   2.220   4.694  0.3822  1.6969 -0.7126
17476SOL    HW253007   8.124   2.285   4.831  0.9912  0.0421  0.0826
17477SOL     OW53008   3.500   5.712   6.796  0.2491  0.9149  0.1981
17477SOL    HW153009   3.579   5.761   6.817  0.8560  0.4629 -0.9480
17477SOL    HW253010   3.478   5.740   6.707 -0.0995  0.0134 -0.0045
17478SOL     OW53011   2.204   3.801   7.117 -0.5669  0.0628 -0.3476
17478SOL    HW153012   2.219   3.712   7.149  0.6208  0.0408 -0.9072
17478SOL    HW253013   2.288   3.846   7.128 -1.0441  1.0135 -0.4078
17479SOL     OW53014   4.620   9.892   3.569  0.3550 -0.1523  0.0603
17479SOL    HW153015   4.600   9.799   3.586  0.9333 -0.2445  0.2581
17479SOL    HW253016   4.671   9.919   3.645  0.0580  0.3757  0.0752
17480SOL     OW53017   6.749   8.035   6.289 -0.0834 -0.8342  0.0352
17480SOL    HW153018   6.826   8.032   6.233 -0.3758  0.5802 -0.4621
17480SOL    HW253019   6.674   8.039   6.229 -0.4382 -0.0576  0.5106
17481SOL     OW53020   9.846   1.829   1.425  0.1911  0.7797  0.2500
17481SOL    HW153021   9.900   1.882   1.367  1.0531  0.5542  0.8334
17481SOL    HW253022   9.774   1.798   1.369  0.1722  1.8030 -0.3133
17482SOL     OW53023   1.299   4.910   3.143  0.1457  0.4303  0.1720
17482SOL    HW153024   1.272   4.940   3.230  0.3947  1.7758 -0.1899
17482SOL    HW253025   1.229   4.852   3.115 -0.1368  0.3078  1.1074
17483SOL     OW53026   8.074   8.296   4.093 -0.0196  0.1893  0.0175
17483SOL    HW153027   8.013   8.357   4.136  0.8793  0.5575  0.7948
17483SOL    HW253028   8.113   8.247   4.165  0.4666 -0.1768 -0.4926
17484SOL     OW53029   0.783   6.974   5.638  0.1549  0.2984  0.4681
17484SOL    HW153030   0.751   6.924   5.563  1.4480 -1.5744  1.0828
17484SOL    HW253031   0.810   6.908   5.702 -0.6047  1.8178  2.4960
17485SOL     OW53032   2.570   5.876   5.920  0.0637  0.3437  0.0896
17485SOL    HW153033   2.602   5.829   5.843 -0.5729 -1.4741  0.8771
17485SOL    HW253034   2.646   5.924   5.952  0.8871 -0.5557 -0.4693
17486SOL     OW53035   3.988   5.339   7.010 -0.2233  0.4162 -0.0345
17486SOL    HW153036   4.063   5.345   7.069 -0.0632  1.2392 -0.3005
17486SOL    HW253037   3.934   5.269   7.046  0.6937 -0.2241  0.1368
17487SOL     OW53038   6.717   4.464   7.218  0.4980  0.4119  0.2256
17487SOL    HW153039   6.709   4.378   7.178 -1.8289  0.1849  1.0416
17487SOL    HW253040   6.723   4.448   7.312  2.5747  1.0831  0.2623
17488SOL     OW53041   4.633   3.969   2.287 -0.4177 -0.2490  0.1313
17488SOL    HW153042   4.680   3.886   2.298 -1.4130 -0.6054  2.0823
17488SOL    HW253043   4.700   4.036   2.295  0.1249 -0.8110  0.3739
17489SOL     OW53044   7.460   6.377   4.533  0.1994  0.4530  0.2118
17489SOL    HW153045   7.550   6.399   4.508  0.4774 -0.7846  0.0625
17489SOL    HW253046   7.469   6.314   4.604 -0.5629  0.6077  0.4539
17490SOL     OW53047   8.459   4.141   2.525 -0.0618  0.3477 -0.3369
17490SOL    HW153048   8.407   4.081   2.472  1.7547 -0.8885 -0.7947
17490SOL    HW253049   8.503   4.085   2.589  1.4922  1.2068 -0.6042
17491SOL     OW53050   3.839   3.919   3.533  0.5234 -0.1872  0.1329
17491SOL    HW153051   3.757   3.914   3.485  0.5619  0.5232 -0.0191
17491SOL    HW253052   3.900   3.959   3.472  1.1837 -1.3657 -0.0034
17492SOL     OW53053   4.770   9.332   2.097  0.5717  0.0196 -0.0339
17492SOL    HW153054   4.791   9.377   2.178  1.7975 -1.7165  0.6816
17492SOL    HW253055   4.771   9.400   2.030  2.3656  1.0567  0.9769
17493SOL     OW53056   4.643   9.748   6.230 -0.5360 -0.4979 -0.3417
17493SOL    HW153057   4.592   9.775   6.153 -1.1660 -1.5207 -0.2955
17493SOL    HW253058   4.663   9.830   6.275 -0.9861  0.0328 -1.0866
17494SOL     OW53059   0.058   2.078   7.781 -0.3238 -0.0179  0.2430
17494SOL    HW153060   0.114   2.155   7.770 -0.3504 -0.0055  0.1930
17494SOL    HW253061  -0.021   2.112   7.823  0.4052 -0.3176  1.9421
17495SOL     OW53062   8.454   5.131   2.489 -0.2084 -0.0201 -0.8060
17495SOL    HW153063   8.372   5.171   2.459  0.2217  0.8416 -0.8822
17495SOL    HW253064   8.428   5.078   2.565 -0.6485  1.3803  0.0785
17496SOL     OW53065   4.602   6.696   6.456 -0.0436  0.1075  1.0326
17496SOL    HW153066   4.641   6.778   6.485 -0.4236  0.0662  1.6644
17496SOL    HW253067   4.525   6.684   6.511 -0.3402 -0.3658  0.5347
17497SOL     OW53068   6.308   3.532   4.817 -0.3895  0.5257 -0.3334
17497SOL    HW153069   6.249   3.561   4.748 -1.0869 -1.1648 -0.5141
17497SOL    HW253070   6.250   3.507   4.889  0.2175  0.4665  0.1462
17498SOL     OW53071   5.139   5.202   8.919 -0.2436 -0.1070 -0.0120
17498SOL    HW153072   5.221   5.232   8.879 -1.0571  1.2039 -0.7501
17498SOL    HW253073   5.108   5.133   8.860 -1.2358  1.5480 -1.5285
17499SOL     OW53074   7.626   5.667   9.977  0.9538  0.7915 -0.1621
17499SOL    HW153075   7.580   5.709   9.904 -0.1441 -1.4295 -0.8514
17499SOL    HW253076   7.571   5.685  10.053 -0.4634 -0.7407 -0.7542
17500SOL     OW53077   6.779   0.932   1.762  0.0025  0.3559  0.1403
17500SOL    HW153078   6.698   0.962   1.805  0.8244  0.3104  1.8063
17500SOL    HW253079   6.841   1.003   1.779  0.6902 -0.2398  0.1056
17501SOL     OW53080   5.479   7.762   0.459  0.2508  0.4537 -0.1132
17501SOL    HW153081   5.472   7.708   0.537 -1.0694  2.1464  1.0023
17501SOL    HW253082   5.568   7.748   0.428  0.4320 -1.1348  1.0209
17502SOL     OW53083   8.519   7.324   8.759 -0.2415  0.3952  0.3541
17502SOL    HW153084   8.563   7.255   8.808  1.3865  0.7148 -0.5926
17502SOL    HW253085   8.457   7.362   8.822 -0.4273 -1.2042  1.1998
17503SOL     OW53086   0.938   1.749   3.013  0.4630 -0.1490 -0.0972
17503SOL    HW153087   0.912   1.763   3.105 -1.2297 -0.1472 -0.5386
17503SOL    HW253088   0.990   1.669   3.015  1.0806  0.2637  0.9704
17504SOL     OW53089   6.651   0.954   5.342  0.4990 -0.5580 -0.4825
17504SOL    HW153090   6.710   0.972   5.415  1.0097 -0.7546 -0.8403
17504SOL    HW253091   6.614   1.039   5.318  0.9362 -0.3758 -0.5075
17505SOL     OW53092   3.190   2.580   5.306 -0.0115  0.0150 -0.4812
17505SOL    HW153093   3.282   2.586   5.282  0.4404 -3.6103 -0.1424
17505SOL    HW253094   3.189   2.588   5.402  0.1978 -1.5297 -0.3302
17506SOL     OW53095   8.363   8.451   3.052  0.2845  0.0367 -0.8372
17506SOL    HW153096   8.381   8.438   2.959  1.7452 -2.0634 -0.3175
17506SOL    HW253097   8.449   8.455   3.093 -0.2595  3.2009  0.2327
17507SOL     OW53098   0.826   7.634   4.693 -0.2646  0.2973 -0.1007
17507SOL    HW153099   0.867   7.557   4.653 -0.5743  0.1732 -0.1841
17507SOL    HW253100   0.732   7.620   4.680 -0.3366  0.5474  0.1460
17508SOL     OW53101   7.370   1.046   7.897  0.2309 -0.4080  0.0207
17508SOL    HW153102   7.305   1.096   7.946  1.2128 -0.7818  1.8031
17508SOL    HW253103   7.412   0.990   7.962  0.8911 -1.7299 -1.4614
17509SOL     OW53104   2.457   2.934   5.771 -1.2533  0.9923 -0.2095
17509SOL    HW153105   2.520   2.983   5.718 -0.1188 -1.8340 -1.6924
17509SOL    HW253106   2.503   2.918   5.854 -0.2309 -0.3506 -0.9839
17510SOL     OW53107   5.128   9.513   0.404 -0.3842 -0.3482  0.0146
17510SOL    HW153108   5.072   9.590   0.416 -0.4369 -0.6137  1.7324
17510SOL    HW253109   5.153   9.515   0.312 -1.3399  1.0673 -0.2368
17511SOL     OW53110   6.160   7.224   3.544 -0.6666  0.4026  0.0395
17511SOL    HW153111   6.197   7.161   3.482 -3.3171 -0.2228 -1.0391
17511SOL    HW253112   6.220   7.299   3.541  0.8187 -0.7645 -1.0817
17512SOL     OW53113   8.352   3.630   6.739 -0.0513  0.1412  0.4242
17512SOL    HW153114   8.371   3.701   6.677  0.0893  1.3664  1.8056
17512SOL    HW253115   8.428   3.628   6.797 -0.4491 -0.5532  0.9307
17513SOL     OW53116   6.299   8.855   5.468 -0.3852 -0.8746  0.1928
17513SOL    HW153117   6.375   8.881   5.417 -0.7932 -1.1294 -0.5677
17513SOL    HW253118   6.294   8.760   5.456  0.0308 -1.0688  1.4425
17514SOL     OW53119   9.325   2.463   5.316 -0.3748  0.2718 -0.1459
17514SOL    HW153120   9.318   2.376   5.356  3.6180  0.2594  1.0299
17514SOL    HW253121   9.281   2.521   5.378  0.3174 -0.5245  1.1556
17515SOL     OW53122   5.412   3.872   4.276 -0.0075 -0.2362  0.2049
17515SOL    HW153123   5.387   3.950   4.225 -1.5403 -0.0300  1.2115
17515SOL    HW253124   5.368   3.800   4.231 -1.4205 -0.0450  1.2329
17516SOL     OW53125   9.070   5.339   0.814  0.1023  0.3503 -0.7188
17516SOL    HW153126   9.003   5.397   0.849  0.8328 -1.2575  4.0556
17516SOL    HW253127   9.023   5.257   0.797  0.3831  0.0146  0.0998
17517SOL     OW53128   2.637   9.954   0.151  0.1250 -0.1208 -0.0983
17517SOL    HW153129   2.669   9.878   0.199 -1.0327 -0.3457  0.3340
17517SOL    HW253130   2.623   9.922   0.062  1.2900  0.0439 -0.3655
17518SOL     OW53131   1.750   0.103   1.425 -0.0157  0.1062 -0.2594
17518SOL    HW153132   1.708   0.041   1.484  0.8935 -0.4239 -0.1478
17518SOL    HW253133   1.837   0.116   1.462  0.0870  0.8261 -0.7307
17519SOL     OW53134   8.478   9.365   9.427  0.1216 -0.6083 -0.2426
17519SOL    HW153135   8.456   9.457   9.445 -0.5585 -0.6917 -0.6146
17519SOL    HW253136   8.525   9.336   9.505 -0.8898 -0.3448  0.4888
17520SOL     OW53137   2.355   1.960   6.044  0.0531  0.0766  0.0091
17520SOL    HW153138   2.378   2.052   6.052  0.0585  0.1083 -0.3336
17520SOL    HW253139   2.385   1.920   6.126  1.1661  0.1524 -0.3430
17521SOL     OW53140   1.081   0.867   9.564  0.8052 -0.1990 -0.4093
17521SOL    HW153141   1.146   0.926   9.603  0.7536  0.3806 -1.1782
17521SOL    HW253142   1.064   0.904   9.478 -1.3205  0.2605  0.1595
17522SOL     OW53143   6.378   0.417   4.812 -0.0654 -0.1472 -0.0396
17522SOL    HW153144   6.292   0.381   4.835 -0.1583 -0.5010 -0.8963
17522SOL    HW253145   6.365   0.455   4.725  0.0578  1.9281  0.8015
17523SOL     OW53146   9.833   7.249   4.813  0.3943 -0.1860 -0.1910
17523SOL    HW153147   9.915   7.201   4.799  0.6545 -0.5698  2.1766
17523SOL    HW253148   9.832   7.268   4.907 -0.9819  2.1789 -0.5970
17524SOL     OW53149   1.446   6.350   8.449 -0.1934 -0.2443  0.1022
17524SOL    HW153150   1.446   6.257   8.474 -0.9985  0.0255  1.1773
17524SOL    HW253151   1.395   6.393   8.518  1.0284  1.1577  0.1599
17525SOL     OW53152   3.140   0.450   9.033  0.2306 -0.1032  0.2970
17525SOL    HW153153   3.199   0.378   9.054 -0.2424 -0.9913 -1.2329
17525SOL    HW253154   3.053   0.418   9.058 -0.0960 -0.4525 -1.2017
17526SOL     OW53155   1.971   8.898   3.639 -0.0735  0.1002  0.1308
17526SOL    HW153156   1.959   8.890   3.734 -2.5191  0.3517 -0.0823
17526SOL    HW253157   1.905   8.840   3.602  0.0639  0.8872 -1.4157
17527SOL     OW53158   1.892   1.843   8.543  0.1160 -0.0350  0.2810
17527SOL    HW153159   1.936   1.765   8.509  1.9139  0.4560  1.3414
17527SOL    HW253160   1.948   1.916   8.515 -2.2825  1.0786 -1.9328
17528SOL     OW53161   0.379   1.442   9.274  0.6020 -0.1874  0.2165
17528SOL    HW153162   0.365   1.464   9.366 -0.6286  0.7932 -0.1821
17528SOL    HW253163   0.434   1.512   9.240  0.7974 -0.3831  0.1224
17529SOL     OW53164   1.626   1.760   1.496 -0.5018  0.1831  0.1012
17529SOL    HW153165   1.653   1.668   1.505  0.6905  0.5574  0.5027
17529SOL    HW253166   1.547   1.756   1.442 -2.2443 -1.3327  2.5146
17530SOL     OW53167   4.677   5.970   0.469  0.1095 -0.5819  0.2811
17530SOL    HW153168   4.722   6.045   0.429 -1.0987 -0.0752 -0.1778
17530SOL    HW253169   4.673   5.904   0.399 -0.3500 -0.4097  0.1417
17531SOL     OW53170   3.984   7.802   1.777 -0.1662 -0.0976  0.4438
17531SOL    HW153171   3.968   7.725   1.832 -0.1606 -0.8300 -0.5580
17531SOL    HW253172   3.913   7.801   1.713 -0.6862  1.2544  0.9560
17532SOL     OW53173   2.544   9.888   5.575 -0.3972  0.3965  0.1411
17532SOL    HW153174   2.546   9.909   5.482  1.2769  0.0113  0.0625
17532SOL    HW253175   2.612   9.943   5.614 -0.7226  0.1753  1.0505
17533SOL     OW53176   1.377   1.143   7.306  0.0934 -0.8492  0.1505
17533SOL    HW153177   1.371   1.221   7.362 -0.4088 -0.8797  0.1460
17533SOL    HW253178   1.318   1.162   7.233 -0.7597 -1.6040  0.6163
17534SOL     OW53179   8.294   2.324   6.049  0.4840  0.0474 -0.3092
17534SOL    HW153180   8.216   2.319   6.104  0.5931 -0.5562 -0.2036
17534SOL    HW253181   8.283   2.405   5.999  0.2666  0.4720  0.4206
17535SOL     OW53182   5.372   4.080   4.116 -0.4570 -0.5105  0.7450
17535SOL    HW153183   5.437   4.096   4.047  1.6764 -0.5885  2.5891
17535SOL    HW253184   5.368   4.163   4.164 -0.8592 -0.8709  1.3449
17536SOL     OW53185   0.223   4.689   7.866 -0.7520 -0.0604 -0.0251
17536SOL    HW153186   0.265   4.753   7.809 -1.6018 -0.9779 -1.7729
17536SOL    HW253187   0.170   4.741   7.926  1.5877  1.0347  1.2500
17537SOL     OW53188   3.767   6.598   6.101 -0.1133  0.0223 -0.1062
17537SOL    HW153189   3.672   6.588   6.093 -0.5406  1.0493  2.5341
17537SOL    HW253190   3.804   6.520   6.059 -2.1622 -0.9149 -0.2563
17538SOL     OW53191   3.868   8.996   6.579 -0.4459  0.1788 -0.1130
17538SOL    HW153192   3.792   9.016   6.634  0.6045 -0.2323  1.5593
17538SOL    HW253193   3.941   8.993   6.640  0.7469 -0.5397 -1.5237
17539SOL     OW53194   0.154   2.079   6.245 -0.1048  0.3084 -0.2392
17539SOL    HW153195   0.093   2.152   6.233  0.8270  1.1775  0.1690
17539SOL    HW253196   0.236   2.110   6.206  0.2498 -0.6116 -0.2429
17540SOL     OW53197   3.841   0.852   6.592 -0.2559 -0.0476 -0.1463
17540SOL    HW153198   3.818   0.759   6.591 -0.3659 -0.1003  1.9104
17540SOL    HW253199   3.932   0.853   6.622 -0.9452  0.5340  2.1395
17541SOL     OW53200   1.769   7.785   3.269 -0.2540 -0.1189  0.1922
17541SOL    HW153201   1.699   7.761   3.329 -0.0591 -3.0405 -0.5905
17541SOL    HW253202   1.727   7.844   3.205 -2.0381 -1.7259 -0.2204
17542SOL     OW53203   4.756   8.920   7.316 -0.0049  0.7156  0.0791
17542SOL    HW153204   4.700   8.995   7.333 -0.1163  1.1141 -1.8074
17542SOL    HW253205   4.698   8.844   7.324 -0.0484  0.8587  1.2921
17543SOL     OW53206   5.412   3.046   9.690  0.3030 -0.0316  0.6541
17543SOL    HW153207   5.375   2.995   9.762 -0.2957 -0.6814 -0.0854
17543SOL    HW253208   5.464   3.114   9.732 -1.4640  0.7117  1.7554
17544SOL     OW53209   6.838   8.645   1.738 -0.7381  0.3144  0.1617
17544SOL    HW153210   6.748   8.611   1.740 -1.4464  2.0788  0.3884
17544SOL    HW253211   6.891   8.571   1.710 -2.1907 -0.9312  0.5608
17545SOL     OW53212   3.551   0.276   0.430  0.1091  0.6778 -0.1565
17545SOL    HW153213   3.633   0.234   0.454 -0.4888 -1.2696 -1.2720
17545SOL    HW253214   3.529   0.238   0.344 -2.1307  0.8527  0.2748
17546SOL     OW53215   0.294   5.219   5.026  0.2966 -0.2967 -0.1953
17546SOL    HW153216   0.277   5.137   4.979  1.1900 -0.0629 -0.9631
17546SOL    HW253217   0.216   5.272   5.009 -0.5390 -1.1753  0.7737
17547SOL     OW53218   7.165   6.422   3.631 -0.0622  0.1318 -0.1144
17547SOL    HW153219   7.078   6.431   3.669 -0.2083 -0.1900 -0.3640
17547SOL    HW253220   7.151   6.370   3.551  0.0708  1.8403 -1.2856
17548SOL     OW53221   6.654   4.244   1.836 -0.1374  0.1145 -0.3415
17548SOL    HW153222   6.703   4.164   1.817  0.5519  0.3569  0.3655
17548SOL    HW253223   6.588   4.217   1.899  0.6882  0.2664  0.6147
17549SOL     OW53224   1.020   0.468   6.643 -0.0569 -0.2244  0.9391
17549SOL    HW153225   1.099   0.415   6.638  0.7843  1.0642 -0.5444
17549SOL    HW253226   0.967   0.439   6.568  0.5486  1.1539 -0.0729
17550SOL     OW53227   7.577   9.537   7.562 -0.1378  0.2872 -0.8355
17550SOL    HW153228   7.523   9.559   7.637  0.5136  0.4021 -0.3923
17550SOL    HW253229   7.608   9.622   7.529  1.4718  0.1471  0.1966
17551SOL     OW53230   2.044   6.795   3.072 -0.1101 -0.8295 -0.2251
17551SOL    HW153231   2.111   6.764   3.133 -0.5990  2.2346  2.1456
17551SOL    HW253232   2.079   6.878   3.039 -2.5929  0.8597  1.0881
17552SOL     OW53233   7.400   1.747   0.746  0.4193  0.5240 -0.5329
17552SOL    HW153234   7.329   1.686   0.766  0.1574  0.7293 -0.8181
17552SOL    HW253235   7.407   1.802   0.824 -0.1102  0.8586 -0.7129
17553SOL     OW53236   9.981   1.430   5.019 -0.3986  0.1632 -0.5385
17553SOL    HW153237   9.950   1.371   5.088  0.5994  0.6999  0.4034
17553SOL    HW253238   9.955   1.387   4.938  1.9639 -2.6797  0.0055
17554SOL     OW53239   2.133   4.855   3.186  0.3415  0.1806 -0.3856
17554SOL    HW153240   2.156   4.909   3.262  1.5305  1.0890 -1.3636
17554SOL    HW253241   2.210   4.799   3.173 -1.0182 -2.1448  0.8729
17555SOL     OW53242   0.674   4.436   7.433  0.4411  0.3134 -0.6868
17555SOL    HW153243   0.608   4.437   7.364  1.5644  1.0791 -1.7891
17555SOL    HW253244   0.723   4.518   7.421  1.0757  0.1599  0.6167
17556SOL     OW53245   6.114   3.042   7.081  0.1200 -0.0505 -0.2063
17556SOL    HW153246   6.073   2.980   7.021  0.5378 -0.5288  0.0043
17556SOL    HW253247   6.184   2.993   7.123 -0.3366  0.2044  0.8773
17557SOL     OW53248   3.392   4.387   1.974 -0.1451 -0.1258 -0.4122
17557SOL    HW153249   3.358   4.395   1.885 -0.8129  2.1889 -0.0083
17557SOL    HW253250   3.316   4.365   2.028 -0.0317  0.0387 -0.1845
17558SOL     OW53251   5.306   1.876   2.569  0.0806 -0.0907  0.3972
17558SOL    HW153252   5.312   1.971   2.559  2.1325 -0.3402 -1.3801
17558SOL    HW253253   5.394   1.843   2.548 -0.6024 -2.3993  0.8174
17559SOL     OW53254   8.246   9.555   8.833 -0.2071 -0.0806  0.1501
17559SOL    HW153255   8.300   9.552   8.912  0.1113 -0.3653 -0.0752
17559SOL    HW253256   8.244   9.464   8.803 -2.4519 -0.4759  1.2657
17560SOL     OW53257   3.378   1.186   4.284  0.2775  0.6071 -0.4958
17560SOL    HW153258   3.390   1.238   4.204 -0.2127 -0.9617 -1.6402
17560SOL    HW253259   3.287   1.158   4.281  0.9185 -1.6945 -0.8429
17561SOL     OW53260   9.882   6.477   8.196  0.0375 -0.2613  0.0376
17561SOL    HW153261   9.909   6.390   8.167 -0.9235 -0.5228 -0.1237
17561SOL    HW253262   9.925   6.489   8.280  0.7257 -0.6041 -0.2549
17562SOL     OW53263   7.772   2.360   5.760  0.1232  0.3673 -0.3527
17562SOL    HW153264   7.799   2.297   5.694  0.1932 -0.6519  0.6163
17562SOL    HW253265   7.838   2.430   5.754 -0.3739  0.7457 -1.9333
17563SOL     OW53266   5.399   8.728   3.644  0.0766  0.1206  0.3207
17563SOL    HW153267   5.450   8.675   3.583  0.3272  2.9530 -2.1273
17563SOL    HW253268   5.349   8.664   3.695  1.9023 -2.5057 -0.9483
17564SOL     OW53269   4.684   9.415   3.016 -0.3988  0.4959 -0.4795
17564SOL    HW153270   4.728   9.336   3.045 -1.0650 -0.2753 -1.5073
17564SOL    HW253271   4.640   9.390   2.934 -3.0779  1.0586  0.6714
17565SOL     OW53272   3.980   6.301   1.552  0.2470  0.0530  0.0404
17565SOL    HW153273   4.004   6.234   1.616  1.2221  0.5312  0.2050
17565SOL    HW253274   3.898   6.338   1.584  0.4835 -0.0363  0.7702
17566SOL     OW53275   4.791   7.919   0.155 -0.4616  0.0755  0.1065
17566SOL    HW153276   4.855   7.982   0.188 -0.0400  1.1088 -2.5027
17566SOL    HW253277   4.837   7.835   0.154 -0.8683 -0.3114  3.1139
17567SOL     OW53278   3.734   2.299   2.822 -0.1395 -0.8046 -0.1257
17567SOL    HW153279   3.719   2.316   2.729  1.1152 -1.2554 -0.4343
17567SOL    HW253280   3.791   2.222   2.823 -0.1020 -0.7731  1.0139
17568SOL     OW53281   4.299   4.101   3.804 -0.6471  0.1366  0.4274
17568SOL    HW153282   4.204   4.106   3.815 -0.7520  0.9649 -0.6852
17568SOL    HW253283   4.321   4.176   3.749  0.7570  0.3574  1.2360
17569SOL     OW53284   0.808   4.640   3.064 -0.4722  0.0366  0.2931
17569SOL    HW153285   0.903   4.636   3.053 -0.4939 -2.6409  0.6098
17569SOL    HW253286   0.774   4.652   2.975  0.1349  3.1499  0.3598
17570SOL     OW53287   3.850  -0.015   8.496  0.4552  0.0354  0.4960
17570SOL    HW153288   3.762  -0.045   8.517  0.4356  0.4068  0.9564
17570SOL    HW253289   3.837   0.069   8.452  0.5335 -0.3999 -0.3970
17571SOL     OW53290   8.287   3.000   6.727 -0.3652  0.0608 -0.6290
17571SOL    HW153291   8.373   2.963   6.750 -0.5433  0.2685  0.3963
17571SOL    HW253292   8.308   3.078   6.676  0.0671  0.2961 -0.1025
17572SOL     OW53293   0.251   4.107   4.376  0.0218 -0.1639  0.1791
17572SOL    HW153294   0.342   4.132   4.363 -0.3693  0.3901 -1.7787
17572SOL    HW253295   0.233   4.130   4.467  1.8328 -0.3358  0.6175
17573SOL     OW53296   4.378   2.430   4.584  0.0570 -0.4198  0.0804
17573SOL    HW153297   4.337   2.480   4.654 -0.6021 -1.1204  0.2139
17573SOL    HW253298   4.447   2.380   4.627 -1.2814 -1.9774  0.5579
17574SOL     OW53299   2.911   7.678   4.567  0.6354  0.4721  0.0671
17574SOL    HW153300   2.908   7.773   4.553  0.1164  0.4132 -0.2592
17574SOL    HW253301   2.990   7.649   4.522 -0.4451  0.4257 -1.9041
17575SOL     OW53302   8.802   5.516   7.452 -0.5982 -0.3638 -0.2510
17575SOL    HW153303   8.849   5.434   7.437 -0.5363 -0.3467 -0.1454
17575SOL    HW253304   8.827   5.543   7.540 -2.0629 -1.2008  0.4663
17576SOL     OW53305   8.803   3.955   1.295 -0.4666  0.0243  0.3396
17576SOL    HW153306   8.888   3.961   1.251 -0.2884  0.9151  0.7771
17576SOL    HW253307   8.800   3.865   1.328  0.3007 -0.0257  0.2931
17577SOL     OW53308   4.906   2.414   3.424  0.4032  0.0059  0.2538
17577SOL    HW153309   4.910   2.448   3.514 -2.1526  2.8029 -0.5214
17577SOL    HW253310   4.995   2.426   3.391  0.8702  1.0427  1.7434
17578SOL     OW53311   2.459   7.050   0.047 -0.0197 -0.4739 -0.0676
17578SOL    HW153312   2.538   7.035  -0.005 -0.8092 -0.4693 -1.2909
17578SOL    HW253313   2.478   7.008   0.131  2.1063  1.3051  0.4486
17579SOL     OW53314   6.580   7.402   1.728 -0.1352 -0.5888  0.2596
17579SOL    HW153315   6.487   7.385   1.740 -0.2286  0.5823  1.3557
17579SOL    HW253316   6.613   7.422   1.816  0.9705 -0.1481 -0.2272
17580SOL     OW53317   5.992   8.278   1.776  0.2408 -0.4937  0.0952
17580SOL    HW153318   5.956   8.349   1.828  1.2233  0.0717  0.0236
17580SOL    HW253319   5.920   8.214   1.770 -0.2500 -0.0766  1.1917
17581SOL     OW53320   3.773   2.067   3.694 -0.3685  0.0341 -0.7787
17581SOL    HW153321   3.857   2.022   3.692  0.3098  1.1684  0.3528
17581SOL    HW253322   3.787   2.141   3.753 -1.6948  1.1796 -1.8116
17582SOL     OW53323   3.912   9.918   6.832 -0.5037  0.2372 -0.2231
17582SOL    HW153324   3.851   9.979   6.790 -2.1817 -1.3210 -0.1603
17582SOL    HW253325   3.932   9.959   6.916 -1.9705  0.5066  0.0252
17583SOL     OW53326   4.082   5.102   9.656 -0.7172  0.4385  0.1898
17583SOL    HW153327   4.046   5.102   9.745 -0.0087  0.6686  0.4791
17583SOL    HW253328   4.012   5.140   9.603 -1.6468 -0.8572  0.4293
17584SOL     OW53329   8.645   0.361   5.483 -0.3721 -0.0187 -0.1487
17584SOL    HW153330   8.616   0.432   5.540  1.7577  0.0315  1.0032
17584SOL    HW253331   8.683   0.406   5.407 -2.4854 -0.0697 -1.2997
17585SOL     OW53332   3.268   1.899   3.676 -0.2960 -0.2335 -0.1970
17585SOL    HW153333   3.279   1.913   3.770 -2.7822  3.5636 -0.2513
17585SOL    HW253334   3.337   1.952   3.636 -0.1961 -0.6252 -0.5548
17586SOL     OW53335   0.495   5.186   4.529 -0.0263  0.2728  0.4162
17586SOL    HW153336   0.548   5.157   4.603  0.6478  2.2057  0.7606
17586SOL    HW253337   0.547   5.164   4.452 -0.3883 -1.0689  0.5306
17587SOL     OW53338   4.897   8.292   6.597 -0.1121  0.6184  0.1079
17587SOL    HW153339   4.887   8.217   6.657  1.3629 -0.6930 -1.1994
17587SOL    HW253340   4.808   8.326   6.588 -0.5861  0.0498  1.9857
17588SOL     OW53341   6.902   1.277   4.017 -0.1790 -0.1649 -0.0650
17588SOL    HW153342   6.961   1.224   3.963 -1.1749 -1.3689 -0.0274
17588SOL    HW253343   6.850   1.212   4.066 -1.6112  0.8301 -0.1918
17589SOL     OW53344   1.025   5.552   2.454  0.6766  0.9946 -0.5902
17589SOL    HW153345   1.049   5.569   2.545 -1.5155  0.2085  0.1784
17589SOL    HW253346   1.100   5.503   2.419  0.5359 -0.8763  1.5247
17590SOL     OW53347   3.209   5.556   2.877 -0.0779 -0.3622 -0.3330
17590SOL    HW153348   3.275   5.624   2.863  0.0357 -0.1636  1.0265
17590SOL    HW253349   3.129   5.604   2.900 -0.7259 -0.6000 -1.9739
17591SOL     OW53350   9.539   4.448   3.521  0.1365  0.4455 -0.3893
17591SOL    HW153351   9.489   4.388   3.465  2.2897 -1.2769 -0.5863
17591SOL    HW253352   9.474   4.486   3.580 -1.4087 -1.6046 -0.6904
17592SOL     OW53353   1.556   9.073   8.473 -0.2644 -0.7619 -0.7367
17592SOL    HW153354   1.539   9.093   8.566  1.4347  1.2899 -0.7871
17592SOL    HW253355   1.628   9.009   8.475 -0.4630 -0.9823 -0.6345
17593SOL     OW53356   2.325   3.564   4.631  0.2109 -0.4151  0.0837
17593SOL    HW153357   2.254   3.549   4.569  1.1421 -1.5220 -0.7506
17593SOL    HW253358   2.331   3.483   4.681 -0.0165  0.1865  1.1112
17594SOL     OW53359   7.357   6.375   7.376 -0.2821  0.3015 -0.4376
17594SOL    HW153360   7.318   6.375   7.289 -0.9544 -1.7419 -0.1788
17594SOL    HW253361   7.287   6.346   7.434  0.6394 -0.0073  0.5437
17595SOL     OW53362   6.017   6.365   4.592  0.5077 -0.1636  0.0587
17595SOL    HW153363   6.079   6.348   4.521  0.7239  0.7167  0.0255
17595SOL    HW253364   5.942   6.309   4.572  0.5263  0.1480 -0.9249
17596SOL     OW53365   6.665   9.503   1.469 -0.4697 -0.3834  0.3062
17596SOL    HW153366   6.724   9.463   1.405 -0.1645 -0.3565  0.5671
17596SOL    HW253367   6.715   9.505   1.550 -0.0547  1.5442  0.0545
17597SOL     OW53368   7.084   6.969   8.474 -0.0780 -0.3425  0.1247
17597SOL    HW153369   7.120   6.910   8.541 -0.5541 -0.5295  0.2179
17597SOL    HW253370   7.084   7.055   8.515 -0.3338 -0.4499  0.3574
17598SOL     OW53371   5.719   7.889   3.019 -0.4479 -0.4044  0.3644
17598SOL    HW153372   5.629   7.899   3.050 -1.1465 -2.4419 -0.8136
17598SOL    HW253373   5.750   7.809   3.061  0.1496 -0.7239 -0.6442
17599SOL     OW53374   0.870   9.419   2.543  0.0920 -0.2698  0.3570
17599SOL    HW153375   0.929   9.401   2.470 -0.5534 -0.6100 -0.0865
17599SOL    HW253376   0.784   9.430   2.503 -0.6483 -2.3720  1.2145
17600SOL     OW53377   5.734   4.520   9.320  0.4938  0.3066 -0.4258
17600SOL    HW153378   5.736   4.450   9.386  2.8957  0.7516  0.0672
17600SOL    HW253379   5.678   4.485   9.250 -1.5686 -0.4649  1.4911
17601SOL     OW53380   4.860   5.371   5.497  0.0149  0.3507 -1.0710
17601SOL    HW153381   4.881   5.401   5.409  0.1092 -0.7423 -1.4325
17601SOL    HW253382   4.945   5.366   5.541  0.6310 -3.2648 -2.2825
17602SOL     OW53383   9.441   0.742   3.115 -0.1318 -0.3410 -0.0463
17602SOL    HW153384   9.460   0.826   3.074  1.1914 -0.4607  0.2860
17602SOL    HW253385   9.353   0.753   3.151 -0.0180  0.8733 -0.0820
17603SOL     OW53386   6.752   9.525   4.488 -0.7575 -0.2690 -0.6938
17603SOL    HW153387   6.783   9.497   4.402 -1.2068 -0.5819 -0.7555
17603SOL    HW253388   6.822   9.499   4.548  0.4854  1.6972 -1.1790
17604SOL     OW53389   2.944   5.986   1.263 -0.0810 -0.1584  0.6498
17604SOL    HW153390   2.876   6.053   1.261 -0.3800 -0.4041  1.7238
17604SOL    HW253391   3.009   6.016   1.200 -0.5291  0.7956  0.6228
17605SOL     OW53392   6.771   1.294   8.313 -0.3681 -0.6132  0.2198
17605SOL    HW153393   6.798   1.355   8.382  0.0217  0.3231 -0.7436
17605SOL    HW253394   6.784   1.207   8.351 -1.5743 -0.1275  1.8760
17606SOL     OW53395   0.031   0.609   9.399 -0.0369 -0.1604  0.2802
17606SOL    HW153396   0.026   0.671   9.326 -1.1399  0.5940  0.9438
17606SOL    HW253397   0.121   0.614   9.429 -0.4090  2.3858  1.2951
17607SOL     OW53398   7.017   3.934   6.175 -0.3982 -0.2647 -0.3214
17607SOL    HW153399   7.039   3.901   6.262 -0.4486  0.8486  0.1238
17607SOL    HW253400   6.922   3.944   6.176 -0.2891  0.7760 -0.1311
17608SOL     OW53401   4.104   0.959   4.606  0.2082 -0.6196  0.0896
17608SOL    HW153402   4.140   1.019   4.541  1.1526  1.5670  2.4814
17608SOL    HW253403   4.179   0.909   4.638  0.8355  1.8333  2.9145
17609SOL     OW53404   9.197   9.633   2.054 -0.7475  0.3823 -0.3411
17609SOL    HW153405   9.159   9.717   2.078 -0.3150 -0.0727  2.2954
17609SOL    HW253406   9.288   9.638   2.086 -0.5081 -0.8057 -0.7936
17610SOL     OW53407   0.083   3.728   4.273 -0.3025 -0.2439  0.6553
17610SOL    HW153408   0.003   3.771   4.301  0.5320  1.8168  0.1288
17610SOL    HW253409   0.141   3.800   4.249  0.7842 -1.7117 -1.4789
17611SOL     OW53410   5.329   8.305   3.481 -0.5709 -0.0096 -0.0596
17611SOL    HW153411   5.313   8.301   3.575 -2.1147  0.4278 -0.2621
17611SOL    HW253412   5.360   8.218   3.458 -2.3263 -0.8434  0.5351
17612SOL     OW53413   4.209   2.558   0.925 -0.0354 -0.5433 -0.3756
17612SOL    HW153414   4.203   2.613   0.847 -0.1362 -0.2617 -0.1716
17612SOL    HW253415   4.217   2.469   0.892 -1.8272 -0.6057 -0.6965
17613SOL     OW53416   5.078   8.385   2.744 -0.3564 -0.3022  0.0110
17613SOL    HW153417   5.068   8.471   2.705  0.9108 -0.0820  0.1165
17613SOL    HW253418   5.168   8.384   2.778 -1.1002 -0.7857  2.1617
17614SOL     OW53419   1.031   6.218   5.261  0.3973 -0.0817  0.8767
17614SOL    HW153420   1.044   6.221   5.166  1.5073 -1.2026  0.9604
17614SOL    HW253421   1.089   6.148   5.290 -0.0951  0.1020  2.3654
17615SOL     OW53422   2.171   7.598   8.892 -0.1496  0.0961 -0.7847
17615SOL    HW153423   2.151   7.525   8.950  0.6476  0.3009 -0.2255
17615SOL    HW253424   2.233   7.563   8.829 -1.3214 -0.2313 -1.7864
17616SOL     OW53425   4.263   9.579   4.528  0.0303  0.0983 -0.6070
17616SOL    HW153426   4.259   9.637   4.604 -0.3737 -0.6833 -0.0088
17616SOL    HW253427   4.276   9.492   4.565  1.5836 -0.0972 -1.5356
17617SOL     OW53428   6.558   4.425   2.940  0.2424 -0.1507  0.0348
17617SOL    HW153429   6.535   4.466   2.856 -0.3579  0.7640  0.6162
17617SOL    HW253430   6.613   4.351   2.917  0.2768  0.2252 -1.1546
17618SOL     OW53431   2.480   8.100   7.275 -0.3995 -0.1307 -0.0037
17618SOL    HW153432   2.413   8.064   7.218  0.5118 -1.8807 -0.0566
17618SOL    HW253433   2.555   8.116   7.217 -0.8837  2.3569 -0.0613
17619SOL     OW53434   4.332   0.821   3.937 -0.3291  0.3502 -0.0773
17619SOL    HW153435   4.414   0.844   3.895  0.1089  2.5104  1.7942
17619SOL    HW253436   4.349   0.830   4.031 -2.5871  0.5215  0.3737
17620SOL     OW53437   8.573   2.194   6.131 -0.6075  0.3381  0.1291
17620SOL    HW153438   8.590   2.285   6.105 -1.9110  0.8566  1.0172
17620SOL    HW253439   8.492   2.171   6.086  0.2161 -0.7506 -0.8716
17621SOL     OW53440   1.089   5.407   8.774  0.4763 -0.5796 -0.8520
17621SOL    HW153441   1.032   5.372   8.705  0.7692 -0.7741 -0.9993
17621SOL    HW253442   1.029   5.436   8.842  0.2203 -1.2750 -0.7710
17622SOL     OW53443   4.010   8.474   9.568 -0.1005  0.3157  0.1406
17622SOL    HW153444   3.922   8.510   9.572 -0.1547  0.2664 -0.4244
17622SOL    HW253445   4.024   8.434   9.654 -2.1321 -3.1368 -0.9205
17623SOL     OW53446   6.631   4.167   9.232  0.6588 -0.2769 -0.4346
17623SOL    HW153447   6.651   4.257   9.259  0.5338 -0.9358  2.0462
17623SOL    HW253448   6.707   4.116   9.262 -0.0211 -1.2471 -0.3349
17624SOL     OW53449   1.931   7.787   3.498 -0.4120 -0.5117  0.8003
17624SOL    HW153450   2.010   7.741   3.469 -0.7913 -1.6210  1.4277
17624SOL    HW253451   1.872   7.784   3.423  0.2510  0.6399  0.2067
17625SOL     OW53452   0.271   8.197   6.386  0.2376 -0.2272 -0.3906
17625SOL    HW153453   0.246   8.192   6.478  0.2366  0.2182 -0.3647
17625SOL    HW253454   0.204   8.146   6.340 -0.2412  0.2491 -0.2308
17626SOL     OW53455   2.760   8.214   1.747 -0.1752  0.2909  0.2739
17626SOL    HW153456   2.807   8.176   1.821 -1.2548 -1.2317  0.2053
17626SOL    HW253457   2.823   8.211   1.675 -0.4524 -2.1792  0.0489
17627SOL     OW53458   0.398   8.405   9.891  0.4545  0.0734 -0.5182
17627SOL    HW153459   0.422   8.482   9.839 -1.3119  0.3085 -1.0667
17627SOL    HW253460   0.353   8.348   9.829  0.1536 -0.5857  0.3006
17628SOL     OW53461   1.456   9.248   8.278  0.5440 -0.2370 -0.4056
17628SOL    HW153462   1.522   9.312   8.304  1.1865 -1.2123  0.4721
17628SOL    HW253463   1.464   9.178   8.344 -2.2765  0.2227  0.5784
17629SOL     OW53464   7.263   7.737   1.855  0.7841 -0.1390 -0.2983
17629SOL    HW153465   7.279   7.763   1.946  0.9798  1.0867 -0.6572
17629SOL    HW253466   7.305   7.652   1.847  0.8506 -0.2212  0.7324
17630SOL     OW53467   2.269   3.568   5.539  0.1347  0.0146  0.0054
17630SOL    HW153468   2.299   3.511   5.610 -0.8169 -1.1702 -0.4925
17630SOL    HW253469   2.174   3.572   5.550 -0.0296 -0.1847 -1.1628
17631SOL     OW53470   8.108   0.437   5.591 -0.2970 -0.7825 -0.0522
17631SOL    HW153471   8.053   0.508   5.558 -1.0206 -0.8982  0.8543
17631SOL    HW253472   8.197   0.472   5.589 -0.6507  0.1679  0.4098
17632SOL     OW53473   1.889   2.369   7.541 -0.1985  0.2843  0.3406
17632SOL    HW153474   1.838   2.294   7.511  0.0541 -0.6372  2.1174
17632SOL    HW253475   1.981   2.342   7.530 -0.0968 -0.0474  1.7661
17633SOL     OW53476   9.942   7.800   6.114 -0.2965 -1.0904 -0.5475
17633SOL    HW153477   9.917   7.837   6.029 -1.7616 -0.2316  0.2191
17633SOL    HW253478   9.859   7.776   6.155  0.3461 -0.9127  0.9172
17634SOL     OW53479   2.637   4.301   6.633  0.3567 -0.2186 -0.0550
17634SOL    HW153480   2.607   4.376   6.582  0.9365  1.2738  1.6775
17634SOL    HW253481   2.716   4.271   6.589  0.0450  0.0998 -0.8374
17635SOL     OW53482   5.968   6.888   7.845 -0.6556  0.2308  0.5747
17635SOL    HW153483   5.884   6.874   7.888 -2.0082  1.4526 -1.4991
17635SOL    HW253484   6.024   6.925   7.913 -1.1966 -2.1249  2.4514
17636SOL     OW53485   3.824   3.895   7.590  0.0331  0.0010 -0.0066
17636SOL    HW153486   3.883   3.826   7.621  0.0372  0.5131  1.1611
17636SOL    HW253487   3.868   3.931   7.513  0.5326 -0.6067 -0.0145
17637SOL     OW53488   0.039   4.110   7.088  0.3576  0.8565 -0.5313
17637SOL    HW153489   0.045   4.072   7.001 -0.2855 -0.7731  0.1054
17637SOL    HW253490   0.128   4.142   7.107  0.4031  1.6012 -1.9145
17638SOL     OW53491   0.669   4.788   2.101 -0.1357  0.5689 -0.5978
17638SOL    HW153492   0.741   4.728   2.122  0.1172  1.1939  0.3696
17638SOL    HW253493   0.709   4.853   2.044 -0.0952  0.5584 -0.5814
17639SOL     OW53494   6.786   6.472   5.069  0.5487  0.1906  0.9212
17639SOL    HW153495   6.790   6.561   5.103  0.9243  0.4997  0.0936
17639SOL    HW253496   6.817   6.417   5.141  1.4739  0.8385  1.0298
17640SOL     OW53497   1.249   9.361   7.636 -0.7053 -0.1095  0.0114
17640SOL    HW153498   1.314   9.414   7.683 -2.6202  0.8235  1.7158
17640SOL    HW253499   1.223   9.416   7.562  0.3919 -0.5011 -0.7065
17641SOL     OW53500   6.330   4.672   7.660  0.3495  0.2771  0.6481
17641SOL    HW153501   6.299   4.699   7.574 -0.4452 -0.9867  0.5187
17641SOL    HW253502   6.250   4.655   7.710  0.8117  0.1773  1.3683
17642SOL     OW53503   1.680   0.531   2.038 -0.0475  0.3667  0.4560
17642SOL    HW153504   1.740   0.488   1.977 -0.2917  0.8660 -0.1472
17642SOL    HW253505   1.593   0.512   2.003 -0.2023  0.4417  0.7979
17643SOL     OW53506   6.480   7.532   3.696 -0.7068  0.3139 -0.2255
17643SOL    HW153507   6.500   7.446   3.732 -0.8903  0.0767 -0.6758
17643SOL    HW253508   6.396   7.520   3.651  0.2493  0.1787 -2.0755
17644SOL     OW53509   2.556   5.591   7.974 -0.2013 -0.2522  0.3854
17644SOL    HW153510   2.512   5.530   7.914  0.0349  0.4136 -0.4812
17644SOL    HW253511   2.649   5.570   7.965 -0.1581 -0.0904  0.4561
17645SOL     OW53512   2.325   9.280   3.917  0.3665  0.4465  0.1555
17645SOL    HW153513   2.361   9.360   3.877  0.0112  0.6886  0.3095
17645SOL    HW253514   2.268   9.244   3.849 -0.2129  0.8408  0.4166
17646SOL     OW53515   0.056   6.736   4.849  0.5596 -0.2902 -0.7592
17646SOL    HW153516   0.029   6.709   4.937  0.1063  0.6001 -0.6144
17646SOL    HW253517   0.076   6.654   4.804  2.5773 -0.6564  0.7180
17647SOL     OW53518   7.618   3.410   6.406  0.9511  0.0296  0.7695
17647SOL    HW153519   7.598   3.476   6.339  2.1721  0.9989  1.3204
17647SOL    HW253520   7.677   3.455   6.466  0.6364 -1.1288  1.9740
17648SOL     OW53521   4.587   9.272   1.613 -0.0597  0.2131  0.1023
17648SOL    HW153522   4.608   9.336   1.545 -2.0478  1.6608  0.7720
17648SOL    HW253523   4.556   9.324   1.687 -2.1387 -1.5014  0.5390
17649SOL     OW53524   2.210   0.671   9.243 -0.1307  0.3601 -0.0698
17649SOL    HW153525   2.262   0.592   9.226  0.8164  1.4783 -2.8684
17649SOL    HW253526   2.156   0.647   9.319 -1.2017 -3.6506 -1.7948
17650SOL     OW53527   6.152   7.767   5.515  0.4253 -0.4017  0.2119
17650SOL    HW153528   6.187   7.750   5.603 -0.3973 -0.2615  0.5819
17650SOL    HW253529   6.085   7.700   5.503  0.2631 -0.1765 -0.1520
17651SOL     OW53530   4.523   2.411   5.417  0.2649 -0.0208  0.6904
17651SOL    HW153531   4.548   2.362   5.339 -2.4532 -0.7436  0.1571
17651SOL    HW253532   4.603   2.456   5.444  1.3394  0.2338 -2.4727
17652SOL     OW53533   0.010   1.136   8.302  0.6564 -0.4679 -0.1653
17652SOL    HW153534   0.069   1.116   8.230 -0.9023  2.5095 -2.4769
17652SOL    HW253535  -0.062   1.074   8.293 -0.6352  1.2483 -2.7424
17653SOL     OW53536   1.900   2.267   8.130 -0.3544 -0.1662 -0.6064
17653SOL    HW153537   1.910   2.185   8.178 -0.7214  0.2237  0.1613
17653SOL    HW253538   1.840   2.246   8.059 -1.5862 -0.2464  0.4184
17654SOL     OW53539   5.904   9.385   3.620 -0.0336  0.1303 -0.0649
17654SOL    HW153540   5.909   9.308   3.675  0.2362  0.6004  0.5808
17654SOL    HW253541   5.913   9.459   3.680  0.9158  0.6377 -0.7972
17655SOL     OW53542   8.092   6.023   8.309  0.1098 -0.1224 -0.0058
17655SOL    HW153543   8.058   5.963   8.376  1.5690 -0.4826  0.4409
17655SOL    HW253544   8.018   6.035   8.249 -0.2664 -2.3306 -0.0810
17656SOL     OW53545   2.314   4.503   9.905  0.1637 -0.4664 -0.1790
17656SOL    HW153546   2.368   4.445   9.851  1.7767  1.4037 -0.6862
17656SOL    HW253547   2.320   4.589   9.862 -1.3082  0.3348  1.0925
17657SOL     OW53548   3.088   6.244   4.028  0.1999 -0.0625 -0.3811
17657SOL    HW153549   3.039   6.325   4.036  1.8179  1.3954 -3.4831
17657SOL    HW253550   3.157   6.251   4.094 -0.9379 -0.0161  0.8587
17658SOL     OW53551   9.886   7.981   7.551 -0.0548 -0.0674  0.0836
17658SOL    HW153552   9.974   7.976   7.589  0.0045  0.2716 -0.0059
17658SOL    HW253553   9.877   8.073   7.524 -0.0456 -0.3344 -0.8550
17659SOL     OW53554   0.199   5.284   9.400  0.2214 -0.2376  0.1014
17659SOL    HW153555   0.143   5.362   9.399 -1.9960 -1.7456 -0.8108
17659SOL    HW253556   0.142   5.213   9.429  1.8876 -1.7352 -0.0817
17660SOL     OW53557   6.340   1.144   7.220  0.1773 -0.4091  0.0014
17660SOL    HW153558   6.275   1.213   7.235  0.0377 -0.7135  0.8841
17660SOL    HW253559   6.303   1.090   7.150 -0.5854 -0.6394  0.5703
17661SOL     OW53560   0.565   0.715   8.083  0.1148 -0.0645 -0.4781
17661SOL    HW153561   0.534   0.695   7.995 -0.2516  1.8122 -0.8172
17661SOL    HW253562   0.505   0.783   8.115  1.3198  0.5677  0.5270
17662SOL     OW53563   3.458   1.818   8.014  0.9292 -0.2390  0.0819
17662SOL    HW153564   3.456   1.742   8.073  1.1469 -0.9357 -0.7797
17662SOL    HW253565   3.456   1.894   8.073 -0.5905 -0.8890  0.9313
17663SOL     OW53566   6.675   6.073   3.515 -0.5416 -0.1872 -0.1677
17663SOL    HW153567   6.741   6.085   3.583 -0.9069 -0.4089  0.2322
17663SOL    HW253568   6.694   6.140   3.450  1.4023 -1.5669 -1.1159
17664SOL     OW53569   7.423   2.094   9.794  0.0351  0.3768 -0.5232
17664SOL    HW153570   7.422   2.099   9.890  0.9925  0.5417 -0.5179
17664SOL    HW253571   7.449   2.182   9.766  0.5479  0.0986 -0.9163
17665SOL     OW53572   6.058   1.359   0.743 -0.4055 -0.0432  0.4975
17665SOL    HW153573   6.022   1.341   0.830 -0.9835  3.0822  1.0281
17665SOL    HW253574   5.981   1.372   0.688 -0.0680  0.8025  0.2118
17666SOL     OW53575   5.944   5.009   6.429  0.4867  0.5704 -0.2590
17666SOL    HW153576   5.881   5.070   6.468  0.1545  0.2715 -0.3306
17666SOL    HW253577   5.892   4.953   6.372  0.6465 -0.3771  0.5034
17667SOL     OW53578   7.718   3.324   1.012 -0.1730  0.2258 -0.4349
17667SOL    HW153579   7.813   3.331   1.022 -0.2130  0.6594 -0.3450
17667SOL    HW253580   7.685   3.305   1.100 -0.1103 -0.6358 -0.5888
17668SOL     OW53581   0.917   2.196   4.999 -0.1829  0.2911  0.2060
17668SOL    HW153582   0.875   2.279   4.975 -0.3968  0.4015  0.9131
17668SOL    HW253583   0.855   2.155   5.059  0.0588 -0.2446  0.0938
17669SOL     OW53584   6.473   2.853   8.504  0.0549 -0.1097  0.1087
17669SOL    HW153585   6.493   2.761   8.492 -1.1581 -0.3677 -0.0939
17669SOL    HW253586   6.492   2.893   8.419  0.1692 -0.2600  0.0641
17670SOL     OW53587   0.980   5.582   9.647 -0.0847  0.1907 -0.0940
17670SOL    HW153588   0.902   5.526   9.640 -0.2460  0.4464 -0.3945
17670SOL    HW253589   0.964   5.636   9.724  0.2678 -0.4671  0.4573
17671SOL     OW53590   3.544   8.088   7.755 -0.3797 -0.1046  0.1565
17671SOL    HW153591   3.513   8.032   7.826 -1.7108 -1.6659 -1.5648
17671SOL    HW253592   3.465   8.130   7.721  0.4312  1.8959  0.5540
17672SOL     OW53593   8.863   2.206   3.076 -0.1651  0.0263  0.0488
17672SOL    HW153594   8.926   2.227   3.146 -0.7496  1.8923  0.0522
17672SOL    HW253595   8.878   2.273   3.009 -1.0728 -0.4718 -0.6758
17673SOL     OW53596   9.539   6.516   5.691  0.5877  0.0255  0.2351
17673SOL    HW153597   9.459   6.522   5.744  0.9132 -0.1181  0.7517
17673SOL    HW253598   9.540   6.426   5.658 -0.1171  0.3921 -0.8292
17674SOL     OW53599   7.240   6.950   4.999 -0.6814  0.1354 -0.1865
17674SOL    HW153600   7.252   7.043   5.019 -1.4847 -0.0486  1.2252
17674SOL    HW253601   7.157   6.927   5.039 -0.1855 -1.3513  0.0362
17675SOL     OW53602   5.106   1.332   4.172  0.2931 -0.7595 -0.0155
17675SOL    HW153603   5.041   1.398   4.198 -0.9029 -0.6782 -2.9269
17675SOL    HW253604   5.061   1.249   4.186 -0.8732 -0.6860 -2.7773
17676SOL     OW53605   9.388   8.149   0.652  0.5158  0.3913  0.0439
17676SOL    HW153606   9.472   8.140   0.696 -0.8447  0.5337  2.8942
17676SOL    HW253607   9.339   8.212   0.705 -1.3414  0.5018 -1.6495
17677SOL     OW53608   3.145   2.117   9.632  0.2306 -0.3165  0.3471
17677SOL    HW153609   3.100   2.062   9.569  1.3715  0.6527 -1.4178
17677SOL    HW253610   3.232   2.130   9.595  0.5538  1.2847  1.5198
17678SOL     OW53611   1.142   7.371   9.544 -0.1720  0.0876  0.7570
17678SOL    HW153612   1.121   7.302   9.607 -0.2996  0.5177  1.1900
17678SOL    HW253613   1.122   7.453   9.590 -1.0106  0.3890 -0.1149
17679SOL     OW53614   6.641   7.672   2.188  0.6214  0.3319  0.0862
17679SOL    HW153615   6.653   7.663   2.282 -0.1284 -2.7750 -0.0266
17679SOL    HW253616   6.727   7.656   2.150  0.6878  0.4657  0.1798
17680SOL     OW53617   8.036   0.127   8.954  0.5588 -0.6794  0.4412
17680SOL    HW153618   8.081   0.056   8.909 -0.6946 -0.8559 -0.6106
17680SOL    HW253619   8.029   0.197   8.889  1.4948  0.3278  1.3623
17681SOL     OW53620   2.062   4.162   3.624  0.5451  0.1669 -0.4919
17681SOL    HW153621   2.015   4.217   3.561 -1.2019 -0.8265 -0.1314
17681SOL    HW253622   2.056   4.209   3.707 -1.3508 -0.7188 -0.0844
17682SOL     OW53623   9.363   8.057   1.439 -0.0797  0.0845  0.8067
17682SOL    HW153624   9.351   8.048   1.345  0.4022 -1.4546  0.8651
17682SOL    HW253625   9.299   8.123   1.466 -1.4045 -0.7068 -0.3303
17683SOL     OW53626   2.976   3.119   8.437  0.5450 -0.0193 -1.2474
17683SOL    HW153627   2.884   3.121   8.464  0.4506 -1.0815 -1.4333
17683SOL    HW253628   2.980   3.175   8.359  0.2668  0.8299 -0.6626
17684SOL     OW53629   2.286   5.125   3.814  0.2303 -0.2189 -0.4893
17684SOL    HW153630   2.192   5.104   3.814  0.0423  0.6169  0.1732
17684SOL    HW253631   2.292   5.210   3.857  1.4664 -1.0244  1.0193
17685SOL     OW53632   5.341   9.114   2.286  0.1628 -0.3375 -0.6926
17685SOL    HW153633   5.307   9.157   2.364  1.6698 -1.2545  0.5060
17685SOL    HW253634   5.405   9.177   2.251  0.4161 -0.4603 -0.4558
17686SOL     OW53635   9.735   8.180   6.644  0.1809  0.5168 -0.6757
17686SOL    HW153636   9.789   8.167   6.722  2.7232  0.4990 -2.3258
17686SOL    HW253637   9.710   8.272   6.647  1.8987  1.0169 -0.7837
17687SOL     OW53638   0.411   5.372   6.345 -0.2756 -0.0588  0.2122
17687SOL    HW153639   0.342   5.428   6.379 -1.0274 -1.3377  0.8482
17687SOL    HW253640   0.476   5.433   6.310 -0.7341  1.2275  1.5072
17688SOL     OW53641   5.212   8.208   2.231  0.0103  0.4454  0.6270
17688SOL    HW153642   5.117   8.217   2.231 -0.0808 -0.5019  0.9663
17688SOL    HW253643   5.244   8.297   2.249 -0.8129  0.6575  1.0779
17689SOL     OW53644   7.457   8.707   1.976  0.3463  0.0657  0.2925
17689SOL    HW153645   7.461   8.799   1.951  0.9443 -0.3787 -1.4307
17689SOL    HW253646   7.451   8.707   2.071  0.6247  1.8732  0.3329
17690SOL     OW53647   7.124   9.858   0.904  0.2038  0.3328 -0.1743
17690SOL    HW153648   7.059   9.898   0.961 -3.1145  0.0785 -3.3896
17690SOL    HW253649   7.149   9.927   0.843  0.7516 -0.3598 -0.7632
17691SOL     OW53650   5.884   3.962   7.545 -0.2994 -0.1343 -0.4731
17691SOL    HW153651   5.811   3.966   7.483  0.7212  0.3450 -1.7010
17691SOL    HW253652   5.891   4.051   7.580  0.3655  0.1126 -1.1970
17692SOL     OW53653   9.922   8.277  -0.019  0.5098  0.6646 -0.2622
17692SOL    HW153654   9.875   8.281   0.065  0.9941 -2.2751  0.2570
17692SOL    HW253655   9.990   8.344  -0.011  1.2563 -0.2523  2.2005
17693SOL     OW53656   2.226   7.713   6.003  0.0271  0.1023 -0.0804
17693SOL    HW153657   2.319   7.729   6.022 -0.2463  0.8768  0.6853
17693SOL    HW253658   2.200   7.788   5.949 -0.0580 -0.3222 -0.6328
17694SOL     OW53659   7.860   6.988   3.344  1.1238 -0.0743 -0.0611
17694SOL    HW153660   7.888   7.070   3.304 -0.4822 -0.3592 -1.9313
17694SOL    HW253661   7.937   6.931   3.337  1.5487  0.5716 -0.8420
17695SOL     OW53662   8.603   5.815   4.754  0.2040  0.1222  0.0799
17695SOL    HW153663   8.587   5.816   4.660  0.2003 -0.7417  0.0629
17695SOL    HW253664   8.532   5.867   4.791  0.6827  1.1836 -0.4529
17696SOL     OW53665   0.332   1.093   9.456  0.1808  0.3513  0.4240
17696SOL    HW153666   0.379   1.176   9.469  1.5938 -0.6277  1.9711
17696SOL    HW253667   0.247   1.107   9.498 -0.6738  1.8423 -1.6142
17697SOL     OW53668   2.335   3.810   0.514  0.4495  0.1267  0.0407
17697SOL    HW153669   2.265   3.870   0.538  1.0533  1.4301 -1.2819
17697SOL    HW253670   2.338   3.746   0.585 -1.0931  0.8986  0.8325
17698SOL     OW53671   7.935   4.978   3.644 -0.2511  0.2474  0.2372
17698SOL    HW153672   7.931   4.904   3.584 -1.7104 -0.4354  1.1081
17698SOL    HW253673   7.844   4.992   3.670  0.0766  1.9553  0.5876
17699SOL     OW53674   9.746   7.950   3.041 -0.1507  0.0924 -0.2007
17699SOL    HW153675   9.713   8.031   3.078 -0.8378 -0.1586 -0.2573
17699SOL    HW253676   9.837   7.945   3.072 -0.1535  0.7951 -0.0684
17700SOL     OW53677   6.525   2.628   4.251  0.1830  0.3524  0.3369
17700SOL    HW153678   6.501   2.536   4.238 -0.9046  0.9661 -3.0330
17700SOL    HW253679   6.456   2.663   4.307 -1.9125 -0.0380 -1.8117
17701SOL     OW53680   3.434   1.422   7.891 -0.1656 -0.0057 -0.0807
17701SOL    HW153681   3.347   1.417   7.852 -0.3980 -1.1936  0.5526
17701SOL    HW253682   3.433   1.502   7.943 -2.3001 -1.9502  3.1520
17702SOL     OW53683   7.557   8.039   2.231 -0.2159  0.1642  0.0297
17702SOL    HW153684   7.610   8.034   2.152  2.6760  1.9997  1.6684
17702SOL    HW253685   7.600   7.980   2.292 -1.4917 -0.0927  0.6990
17703SOL     OW53686   9.766   8.632   3.002 -0.7908 -0.2372 -0.1765
17703SOL    HW153687   9.766   8.558   3.062  1.1493  0.4553  0.7727
17703SOL    HW253688   9.713   8.604   2.928 -0.5760 -2.3486  0.4224
17704SOL     OW53689   1.405   9.224   0.023 -0.1744  0.3945  1.2776
17704SOL    HW153690   1.399   9.191   0.113  2.0266 -0.8237  1.0365
17704SOL    HW253691   1.491   9.266   0.018 -0.2187  0.3547 -0.2843
17705SOL     OW53692   6.644   2.548   2.405  0.1895  0.2872 -0.0556
17705SOL    HW153693   6.696   2.544   2.325  1.6220  2.7986  0.6419
17705SOL    HW253694   6.707   2.535   2.476 -1.0093 -1.6381  0.7519
17706SOL     OW53695   2.004   9.336   6.275  0.4497  0.4485  0.0146
17706SOL    HW153696   2.060   9.258   6.275  0.5459  0.4754 -1.8261
17706SOL    HW253697   2.045   9.395   6.338  1.2304 -0.3782  0.3056
17707SOL     OW53698   2.033   8.448   0.329  0.3044  0.2719  0.0802
17707SOL    HW153699   2.114   8.495   0.313 -0.1869  1.8515  1.8858
17707SOL    HW253700   1.980   8.508   0.382 -1.0611 -1.6476  1.0098
17708SOL     OW53701   0.707   4.636   4.672 -0.4198  0.2758 -0.3290
17708SOL    HW153702   0.627   4.687   4.657 -1.0309 -0.4824  0.2171
17708SOL    HW253703   0.708   4.571   4.602 -0.7011 -0.2029  0.1035
17709SOL     OW53704   6.588   7.009   3.199  0.4644 -0.4652  0.3702
17709SOL    HW153705   6.555   7.030   3.111  0.0596  1.4657  0.9246
17709SOL    HW253706   6.660   7.071   3.212  0.9202 -1.1518  1.1824
17710SOL     OW53707   7.698   9.543   8.630 -0.4534 -0.4186  0.2399
17710SOL    HW153708   7.730   9.583   8.710  0.0145 -1.8042  0.7825
17710SOL    HW253709   7.762   9.568   8.563  0.6406 -1.4165  0.8758
17711SOL     OW53710   1.786   9.453   6.104 -0.2941 -0.1377  0.1429
17711SOL    HW153711   1.850   9.409   6.160 -0.2572 -0.4471 -0.1343
17711SOL    HW253712   1.734   9.507   6.163 -0.0570 -0.2233  0.4293
17712SOL     OW53713   6.636   3.659   0.832 -0.3426 -0.4222 -0.2674
17712SOL    HW153714   6.617   3.733   0.889 -2.2407  0.1467 -1.5320
17712SOL    HW253715   6.567   3.595   0.850  0.9553 -1.7047  0.4175
17713SOL     OW53716   3.699   4.462   1.975  0.0771 -0.1151 -0.5230
17713SOL    HW153717   3.691   4.520   1.900 -3.0816  3.4333  2.1741
17713SOL    HW253718   3.609   4.443   2.001  1.0314 -2.5318  1.5234
17714SOL     OW53719   0.552   5.001   2.795  0.2637  0.0142 -0.0016
17714SOL    HW153720   0.500   5.074   2.828 -1.2484 -1.5208  1.2292
17714SOL    HW253721   0.526   4.992   2.703 -0.7010  0.0827  0.2560
17715SOL     OW53722   1.941   9.372   9.256 -0.7939 -0.3809 -0.1496
17715SOL    HW153723   1.955   9.393   9.163  0.0907  1.0365  0.2794
17715SOL    HW253724   1.889   9.444   9.290  0.4739  0.1017  0.8652
17716SOL     OW53725   8.345   7.347   7.906 -0.5876 -0.2537 -0.1216
17716SOL    HW153726   8.286   7.293   7.958  1.2720 -2.1376  0.1532
17716SOL    HW253727   8.329   7.436   7.937 -2.1211 -0.8929  1.0576
17717SOL     OW53728   2.818   9.821   3.009  0.0615  0.4155  1.2377
17717SOL    HW153729   2.809   9.744   3.066  2.6615 -1.3777 -0.5273
17717SOL    HW253730   2.749   9.811   2.944  1.7391 -1.8763 -0.3592
17718SOL     OW53731   8.848   2.792   3.919 -0.6974  0.0252  0.2820
17718SOL    HW153732   8.845   2.784   3.824  1.0766  0.6225  0.1345
17718SOL    HW253733   8.878   2.882   3.935 -1.9946  0.2952  1.4469
17719SOL     OW53734   7.640   9.759   2.346  0.6615 -0.6415 -0.2392
17719SOL    HW153735   7.611   9.848   2.325 -0.7414 -1.1433 -0.5479
17719SOL    HW253736   7.649   9.759   2.441  0.7357 -0.1489 -0.2434
17720SOL     OW53737   8.365   5.981   5.669  0.4263 -0.2230 -0.1266
17720SOL    HW153738   8.324   5.912   5.722 -1.3791 -0.3031 -1.5177
17720SOL    HW253739   8.459   5.966   5.678  0.0981 -2.0974  0.5988
17721SOL     OW53740   5.490   5.038   8.679 -0.3632 -0.1798 -0.4782
17721SOL    HW153741   5.408   5.004   8.642 -0.0659 -2.7792  1.0346
17721SOL    HW253742   5.464   5.115   8.729 -1.5826  0.1026 -1.4990
17722SOL     OW53743  -0.004   1.582   2.818 -0.1046  0.1985 -0.1289
17722SOL    HW153744   0.063   1.517   2.799 -0.8871  0.1142 -3.0503
17722SOL    HW253745   0.043   1.664   2.833  0.6915  0.0051 -1.5029
17723SOL     OW53746   9.763   9.627   0.277 -0.0842 -0.6059  0.1835
17723SOL    HW153747   9.686   9.570   0.288  0.0441 -0.8444 -0.1392
17723SOL    HW253748   9.817   9.609   0.355 -0.3305 -0.4731  0.3873
17724SOL     OW53749   8.899   8.095   8.011 -0.5571  0.1730  0.0378
17724SOL    HW153750   8.976   8.144   7.983  0.5794 -1.8240 -0.5121
17724SOL    HW253751   8.825   8.140   7.970  0.5421  0.7208 -1.4109
17725SOL     OW53752   1.046   0.645   7.397 -0.1386 -0.7418  0.0101
17725SOL    HW153753   1.100   0.569   7.374  0.8939  0.2907 -1.1165
17725SOL    HW253754   1.106   0.719   7.393 -1.0751  0.1335  1.3009
17726SOL     OW53755   4.453   1.574   9.815  0.5399  0.3636 -0.2039
17726SOL    HW153756   4.483   1.653   9.772 -0.3982  0.0159 -1.5437
17726SOL    HW253757   4.467   1.504   9.751  1.9310 -0.6918  1.1734
17727SOL     OW53758   7.262   2.887   7.413  0.1454  0.3245  0.4611
17727SOL    HW153759   7.352   2.917   7.399  0.3020  0.0016  0.7683
17727SOL    HW253760   7.217   2.907   7.330  0.7795 -0.5557 -0.1130
17728SOL     OW53761   5.936   9.902   1.998  0.1439  0.1169  0.5757
17728SOL    HW153762   5.915   9.984   1.952  0.6803  0.5325  1.0677
17728SOL    HW253763   5.869   9.895   2.066 -0.2487 -0.1566  0.1698
17729SOL     OW53764   3.631   2.571   4.978  0.8099  0.0246 -0.7005
17729SOL    HW153765   3.642   2.523   5.059  0.9647  1.4699  0.1688
17729SOL    HW253766   3.543   2.548   4.948  1.2986 -1.6375 -0.9061
17730SOL     OW53767   0.166   8.748   9.750  0.1859  0.2718 -0.1328
17730SOL    HW153768   0.188   8.777   9.662  0.5298  0.4563  0.0148
17730SOL    HW253769   0.078   8.710   9.741 -0.0298  0.8298 -0.4349
17731SOL     OW53770   0.848   6.176   6.160 -0.0456  0.2449  0.7785
17731SOL    HW153771   0.912   6.209   6.222  0.4838 -0.1099  0.4325
17731SOL    HW253772   0.782   6.245   6.154 -0.1096  0.2735  1.7334
17732SOL     OW53773   4.845   2.011   0.601 -0.7556 -0.1417  0.0939
17732SOL    HW153774   4.785   2.055   0.540  1.3867  0.4545 -1.7138
17732SOL    HW253775   4.868   1.929   0.557  1.0788  0.4491 -0.1457
17733SOL     OW53776   9.702   5.357   4.810 -0.1092  0.0689  0.2531
17733SOL    HW153777   9.796   5.348   4.823  0.4003 -0.3979 -2.9428
17733SOL    HW253778   9.692   5.374   4.717 -3.1518  1.4683  0.7022
17734SOL     OW53779   5.520   8.562   8.996  0.5172 -0.2208  0.4535
17734SOL    HW153780   5.458   8.631   9.021  0.8393  0.0435  0.5342
17734SOL    HW253781   5.499   8.489   9.054 -0.4569 -0.5397 -0.2655
17735SOL     OW53782   5.083   3.538   8.207  0.2559 -0.2036  0.0194
17735SOL    HW153783   5.010   3.504   8.259  0.7749 -1.1710  0.1402
17735SOL    HW253784   5.047   3.614   8.161 -0.6551 -0.3116  0.5382
17736SOL     OW53785   6.558   1.827   2.215  0.5382 -0.1613  0.4515
17736SOL    HW153786   6.648   1.796   2.225  1.2758  1.7146  0.0259
17736SOL    HW253787   6.505   1.747   2.216  2.1108 -1.2528  1.5742
17737SOL     OW53788   4.637   3.080   5.614  0.1867  0.0622  0.6048
17737SOL    HW153789   4.706   3.061   5.550 -0.1614  0.9898 -0.0706
17737SOL    HW253790   4.604   2.994   5.641  1.3212 -0.3802  0.6365
17738SOL     OW53791   3.830   7.284   7.115 -0.0587  0.1351 -0.0043
17738SOL    HW153792   3.827   7.238   7.199 -0.9268 -1.7873 -1.0416
17738SOL    HW253793   3.838   7.215   7.050 -0.6612  1.5119 -1.5921
17739SOL     OW53794   1.939   9.769   3.265 -0.1667 -0.7336  0.0467
17739SOL    HW153795   1.931   9.727   3.350 -0.7432 -0.0292  0.3524
17739SOL    HW253796   1.935   9.863   3.283 -0.6364 -0.5776 -0.7709
17740SOL     OW53797   0.168   2.541   3.008 -0.0577  0.9935 -0.5921
17740SOL    HW153798   0.200   2.599   3.078 -2.9595  0.7605  1.0785
17740SOL    HW253799   0.108   2.596   2.957 -0.4501  0.2954 -0.8947
17741SOL     OW53800   2.437   5.144   3.053 -0.2497 -0.2559 -0.0726
17741SOL    HW153801   2.461   5.052   3.053 -0.5052 -0.3837 -2.2851
17741SOL    HW253802   2.347   5.145   3.019 -0.3797  0.7741  0.2769
17742SOL     OW53803   9.476   6.290   0.441  0.1970  0.2245 -0.5850
17742SOL    HW153804   9.398   6.237   0.427 -1.1309  1.8390  0.3554
17742SOL    HW253805   9.477   6.351   0.368  0.3357  0.5042 -0.3493
17743SOL     OW53806   5.268   1.476   1.620  0.1076 -0.8429 -0.0489
17743SOL    HW153807   5.361   1.499   1.619 -0.6136  2.7623 -1.2230
17743SOL    HW253808   5.238   1.506   1.706 -0.1270 -1.3372  0.0441
17744SOL     OW53809   8.870   4.548   6.995 -0.0857 -0.3803  0.3707
17744SOL    HW153810   8.963   4.543   6.974 -0.0584 -0.4251  0.5066
17744SOL    HW253811   8.866   4.599   7.076 -0.0815 -1.4484  1.0566
17745SOL     OW53812   8.668   2.258   5.177  0.0633 -0.4177 -0.3499
17745SOL    HW153813   8.586   2.230   5.137 -0.4384  0.9460 -0.3273
17745SOL    HW253814   8.695   2.335   5.126 -0.9522  1.8348  2.2507
17746SOL     OW53815   3.984   7.201   6.555  0.2904  0.2125  0.5124
17746SOL    HW153816   3.928   7.231   6.483 -1.0553 -0.4761  1.2280
17746SOL    HW253817   3.975   7.106   6.554  2.2116 -0.0072  0.0920
17747SOL     OW53818   2.444   8.536   9.567  0.3944  0.0970  0.0882
17747SOL    HW153819   2.529   8.528   9.611  0.1682 -1.5054  0.3083
17747SOL    HW253820   2.381   8.501   9.631 -0.0428 -1.5218 -1.1594
17748SOL     OW53821   2.812   3.317   2.297  0.5355 -0.1703  0.3381
17748SOL    HW153822   2.825   3.412   2.302 -0.4789  0.0858 -1.2925
17748SOL    HW253823   2.731   3.301   2.345 -0.7498  0.1949 -1.5959
17749SOL     OW53824   4.679   8.527   9.120  0.2633  0.0755 -0.0726
17749SOL    HW153825   4.666   8.458   9.055  0.7977  0.9570 -1.1381
17749SOL    HW253826   4.702   8.604   9.069  0.4928  0.8447  1.1602
17750SOL     OW53827   5.010   7.091   6.119  0.0234  0.2500 -0.5140
17750SOL    HW153828   4.958   7.095   6.199  1.5084 -2.9484  0.8231
17750SOL    HW253829   4.953   7.048   6.055  0.1677 -1.1862  0.2635
17751SOL     OW53830   2.097   8.198   8.342 -0.4866  0.0840 -0.5892
17751SOL    HW153831   2.137   8.184   8.256 -0.4087 -0.4775 -0.4642
17751SOL    HW253832   2.142   8.136   8.399  0.6601  1.5912  0.2284
17752SOL     OW53833   3.155   4.783   8.018 -0.2186  0.1200  0.0131
17752SOL    HW153834   3.103   4.801   7.940  0.1264  1.4407  0.0560
17752SOL    HW253835   3.240   4.825   8.001 -0.3565  1.0000  1.3384
17753SOL     OW53836   0.876   2.728   3.421 -0.4019  0.3333 -0.6246
17753SOL    HW153837   0.892   2.653   3.479 -1.1092 -0.8245 -1.8592
17753SOL    HW253838   0.881   2.690   3.333 -0.7964  1.7548 -1.2742
17754SOL     OW53839   7.565   3.894   0.783  0.3938  0.0438 -0.1435
17754SOL    HW153840   7.565   3.811   0.735 -0.7063 -1.1135  1.7198
17754SOL    HW253841   7.656   3.907   0.808  0.4799 -0.9834  0.1208
17755SOL     OW53842   5.608   4.647   0.855 -0.5132  0.2068  0.5344
17755SOL    HW153843   5.524   4.609   0.881 -1.0772  0.1811 -1.2486
17755SOL    HW253844   5.604   4.652   0.760  0.9958  1.4151  0.5025
17756SOL     OW53845   3.639   0.902   6.774 -0.3027  0.0234 -0.1702
17756SOL    HW153846   3.591   0.824   6.746 -0.1208 -0.0807 -0.1926
17756SOL    HW253847   3.725   0.893   6.733  0.3057 -0.6080  1.2014
17757SOL     OW53848   3.443   7.570   5.058  0.3237 -0.2290 -0.2604
17757SOL    HW153849   3.408   7.656   5.035 -0.8796 -0.6247  0.0336
17757SOL    HW253850   3.533   7.588   5.088  0.2040  0.8717 -0.5145
17758SOL     OW53851   1.201   8.063   9.077 -0.0128  0.4224 -0.1674
17758SOL    HW153852   1.120   8.054   9.027 -0.1472 -2.3957  0.4035
17758SOL    HW253853   1.257   7.992   9.045  2.6967  2.8639 -1.2379
17759SOL     OW53854   3.145   5.091   7.563 -0.1755  0.0275 -0.6883
17759SOL    HW153855   3.163   5.032   7.490  1.0798  0.1517 -0.4940
17759SOL    HW253856   3.225   5.091   7.614 -0.4662  1.2329 -0.2075
17760SOL     OW53857   4.475   5.994   2.347  0.7070  0.2505 -0.0346
17760SOL    HW153858   4.527   5.988   2.267  2.7347 -1.4129  1.2880
17760SOL    HW253859   4.420   5.915   2.346  1.9552 -0.6834  0.9214
17761SOL     OW53860   0.338   4.982   3.230 -0.1901  0.2749  0.3136
17761SOL    HW153861   0.246   4.957   3.234 -0.2575  0.3244 -0.7512
17761SOL    HW253862   0.374   4.933   3.156  1.0726 -1.0503  1.7386
17762SOL     OW53863   0.226   3.207   4.090 -0.0449 -0.0918  0.2080
17762SOL    HW153864   0.205   3.165   4.173  0.0589 -1.9161 -0.6554
17762SOL    HW253865   0.292   3.273   4.113  1.1135 -1.5867  1.4020
17763SOL     OW53866   5.710   4.829   4.754 -0.3373 -0.2442 -0.0904
17763SOL    HW153867   5.639   4.891   4.773  0.2121  0.3045  0.1850
17763SOL    HW253868   5.709   4.820   4.659 -1.1373 -0.6789 -0.0575
17764SOL     OW53869   4.161   3.394   6.640 -0.0994 -0.5925  0.0382
17764SOL    HW153870   4.109   3.461   6.597 -0.3715 -1.6259 -1.2981
17764SOL    HW253871   4.116   3.312   6.621  0.5599 -1.2427  1.1257
17765SOL     OW53872   8.483   3.828   0.518  0.0531 -0.2362  0.0777
17765SOL    HW153873   8.395   3.793   0.503 -0.1582 -0.1253  0.9755
17765SOL    HW253874   8.468   3.921   0.539  0.4973  0.0892 -0.9778
17766SOL     OW53875   3.156   1.060   7.883 -0.0114  0.1237 -0.1253
17766SOL    HW153876   3.231   1.105   7.922 -0.0194  0.4688 -0.5024
17766SOL    HW253877   3.091   1.129   7.869  0.8415  0.4866 -2.8729
17767SOL     OW53878   9.490   2.570   4.950  0.2093 -0.9777 -0.0752
17767SOL    HW153879   9.489   2.551   4.856  0.9960 -0.2427 -0.2396
17767SOL    HW253880   9.542   2.498   4.988  1.7938 -0.1044 -0.4968
17768SOL     OW53881   8.250   6.799   2.725 -0.3577 -0.4469  0.0949
17768SOL    HW153882   8.300   6.719   2.742 -2.0131 -2.1629 -2.3548
17768SOL    HW253883   8.235   6.837   2.811  1.4309 -2.1650  1.2525
17769SOL     OW53884   8.252   4.269   9.116  0.0934 -0.3800 -0.4461
17769SOL    HW153885   8.259   4.314   9.200  0.3472 -1.7096  0.2751
17769SOL    HW253886   8.188   4.199   9.131 -0.0863 -0.4516 -1.4480
17770SOL     OW53887   2.047   4.000   4.492  0.3726  0.3861  0.2564
17770SOL    HW153888   1.961   3.971   4.524  1.1734 -1.3459  0.9780
17770SOL    HW253889   2.034   4.092   4.468 -2.3428 -0.4716 -2.0885
17771SOL     OW53890   0.055   5.654   3.581 -0.3490  0.0275 -0.2332
17771SOL    HW153891   0.063   5.734   3.529  0.1876  0.3449  0.3286
17771SOL    HW253892   0.131   5.655   3.640  0.0133 -1.1957 -0.6302
17772SOL     OW53893   9.354   4.745   5.063  0.1780  0.4647  0.3499
17772SOL    HW153894   9.393   4.771   4.979  1.0492 -0.0529  0.5898
17772SOL    HW253895   9.322   4.827   5.101  0.2553  0.7756 -0.2418
17773SOL     OW53896   5.328   4.299   6.834  0.5299  0.2056  0.1981
17773SOL    HW153897   5.248   4.270   6.877  0.4014  0.2164 -0.0317
17773SOL    HW253898   5.382   4.219   6.827  0.2817  0.0709 -0.2059
17774SOL     OW53899   3.996   2.818   1.881  0.2714  0.3111  0.0567
17774SOL    HW153900   4.084   2.854   1.898 -0.1888  0.3297  2.9751
17774SOL    HW253901   3.994   2.803   1.787  2.9407  1.5287 -0.2956
17775SOL     OW53902   1.248   4.904   6.743  0.1642 -0.3232  0.4560
17775SOL    HW153903   1.192   4.876   6.816 -1.4498  0.0963 -0.5736
17775SOL    HW253904   1.188   4.947   6.682  1.4680 -0.7036 -1.1529
17776SOL     OW53905   5.385   6.338   6.104  0.4002 -0.3024 -0.3887
17776SOL    HW153906   5.426   6.406   6.158 -1.3515  0.2625  0.2875
17776SOL    HW253907   5.327   6.290   6.164 -0.5745 -0.5324 -1.4648
17777SOL     OW53908   5.309   2.885   9.059  0.2272  0.1054 -0.5330
17777SOL    HW153909   5.342   2.972   9.085  1.1080 -0.5365  0.5735
17777SOL    HW253910   5.368   2.857   8.990 -0.1555  0.4338 -1.0065
17778SOL     OW53911   1.659   2.401   5.910  0.1990 -0.6148 -0.3092
17778SOL    HW153912   1.675   2.423   5.818  1.7366 -0.3614 -0.0024
17778SOL    HW253913   1.611   2.476   5.945 -1.7314 -1.3358 -1.2240
17779SOL     OW53914   9.064   1.814   2.057 -0.1868 -0.0995 -0.3280
17779SOL    HW153915   9.154   1.814   2.089  0.1916 -0.4860 -1.3480
17779SOL    HW253916   9.015   1.767   2.124  0.6564 -1.2460 -0.4902
17780SOL     OW53917   6.241   1.315   6.555  0.9204 -0.4317  0.7807
17780SOL    HW153918   6.205   1.351   6.474  2.7724 -1.3297 -0.5189
17780SOL    HW253919   6.181   1.345   6.623 -1.9109 -1.3493 -1.1125
17781SOL     OW53920   5.829   1.505   3.295 -0.0351 -0.1987 -0.6571
17781SOL    HW153921   5.824   1.439   3.364 -1.1340  0.6383  0.1050
17781SOL    HW253922   5.738   1.522   3.272  0.1340  1.8342 -0.0470
17782SOL     OW53923   0.289   4.657   3.821 -0.1906  0.1977  0.0513
17782SOL    HW153924   0.368   4.628   3.775 -0.9630 -0.8575 -0.6553
17782SOL    HW253925   0.307   4.636   3.913  1.5869  2.8293  0.4048
17783SOL     OW53926   7.565   9.276   7.430  0.4957  0.1198 -0.2163
17783SOL    HW153927   7.515   9.353   7.456 -0.5741  0.0461 -1.9243
17783SOL    HW253928   7.649   9.310   7.401  0.3138  0.5638 -0.2247
17784SOL     OW53929   2.206   0.668   1.290  0.6244  0.1038  0.1218
17784SOL    HW153930   2.243   0.598   1.235  2.4291 -0.0390  1.4309
17784SOL    HW253931   2.124   0.631   1.324 -0.1919 -0.0502 -1.8667
17785SOL     OW53932   4.933   8.513   4.000 -0.2492  0.4603 -0.3121
17785SOL    HW153933   4.998   8.447   3.974 -0.7496 -0.4468  0.6605
17785SOL    HW253934   4.941   8.581   3.934  1.5665  0.2908 -0.3234
17786SOL     OW53935   0.053   4.107   5.767 -0.1152 -0.3227 -0.8210
17786SOL    HW153936  -0.009   4.179   5.774 -0.6285 -0.7903 -0.4744
17786SOL    HW253937   0.114   4.133   5.698 -1.2579 -0.2761 -1.8347
17787SOL     OW53938   6.590   4.430   6.079 -0.6023 -0.0139  0.0450
17787SOL    HW153939   6.585   4.500   6.014 -1.0053 -0.2951 -0.2323
17787SOL    HW253940   6.511   4.442   6.132 -0.0061  0.5471  0.8335
17788SOL     OW53941   4.599   3.740   3.918  0.0600 -0.4501 -0.0811
17788SOL    HW153942   4.668   3.753   3.853  0.2539  0.5199  0.2989
17788SOL    HW253943   4.566   3.652   3.900  0.3127 -0.3219 -1.2922
17789SOL     OW53944   4.903   5.841   0.627  0.3874  0.0036 -0.0801
17789SOL    HW153945   4.820   5.884   0.604 -1.3472 -3.1199 -0.2203
17789SOL    HW253946   4.967   5.876   0.565 -1.3031  1.0170 -1.3400
17790SOL     OW53947   1.020   3.827   4.640  0.2187  0.3203 -0.1999
17790SOL    HW153948   1.089   3.892   4.653  1.9462 -0.9033 -2.4576
17790SOL    HW253949   1.066   3.743   4.640 -1.4742 -0.6509 -0.4725
17791SOL     OW53950   7.131   0.551   4.662  0.3864  0.2453 -0.2762
17791SOL    HW153951   7.168   0.618   4.721 -1.0000  1.8170 -1.0978
17791SOL    HW253952   7.037   0.555   4.678  0.1460 -0.4127 -1.4636
17792SOL     OW53953   7.483   5.015   2.073  0.5775  0.1036  0.0478
17792SOL    HW153954   7.420   5.026   2.002  0.4417 -1.0470 -0.0267
17792SOL    HW253955   7.564   4.985   2.030  0.0848 -2.0066  0.4605
17793SOL     OW53956   5.399   6.463   0.559  0.5523 -0.1961  0.6399
17793SOL    HW153957   5.396   6.557   0.541  0.3505 -0.2177  0.5639
17793SOL    HW253958   5.485   6.436   0.527 -0.1650 -0.4245 -1.2196
17794SOL     OW53959   3.971   4.434   1.924 -0.2182 -0.4206  0.1145
17794SOL    HW153960   3.927   4.516   1.944 -0.8791 -0.1849 -2.0070
17794SOL    HW253961   4.039   4.426   1.990  1.6949  3.2285 -1.1480
17795SOL     OW53962   7.610   4.393   0.964  0.7687 -0.8260  0.2922
17795SOL    HW153963   7.531   4.344   0.985  0.5921 -0.2251  1.0884
17795SOL    HW253964   7.642   4.353   0.883  0.2756 -1.8201  0.5624
17796SOL     OW53965   3.944   7.599   4.771 -0.2785 -0.2068  0.0022
17796SOL    HW153966   3.860   7.640   4.751  0.0571 -0.4010 -2.0919
17796SOL    HW253967   4.005   7.672   4.782 -0.4556 -0.0906  0.2131
17797SOL     OW53968   7.277   9.084   5.509 -0.1391 -0.3910 -0.2386
17797SOL    HW153969   7.313   9.104   5.595  0.2610  0.5325 -0.6102
17797SOL    HW253970   7.182   9.092   5.520 -0.0655  0.1374  0.0197
17798SOL     OW53971   7.275   4.886   0.673 -0.1356 -0.0019 -0.2236
17798SOL    HW153972   7.221   4.908   0.597 -0.2570  3.7307  0.7456
17798SOL    HW253973   7.213   4.849   0.737 -0.6195 -0.2179 -0.8134
17799SOL     OW53974   1.292   3.105   6.525  0.2397  0.3997  0.6623
17799SOL    HW153975   1.282   3.199   6.508  1.8887  0.3396 -0.8858
17799SOL    HW253976   1.202   3.073   6.532 -0.4043  1.8160 -0.5348
17800SOL     OW53977   3.425   5.237   5.432 -0.0251  0.2086  0.0688
17800SOL    HW153978   3.494   5.171   5.435  0.7277  0.9857  0.4761
17800SOL    HW253979   3.416   5.267   5.522 -0.6552  0.3607 -0.0406
17801SOL     OW53980   4.960   9.938   1.920 -0.4452  0.2036 -0.1907
17801SOL    HW153981   4.886   9.907   1.971 -1.4639  2.2810 -0.2828
17801SOL    HW253982   4.972  10.029   1.949 -0.7303  1.3214 -3.2058
17802SOL     OW53983   4.874   3.061   5.348 -0.0268  0.1324  0.4084
17802SOL    HW153984   4.916   3.138   5.385  0.0842  0.2823 -0.0164
17802SOL    HW253985   4.892   3.067   5.254 -0.0819 -0.3717  0.3626
17803SOL     OW53986   1.696   3.953   6.760 -0.3892  0.4199  0.2167
17803SOL    HW153987   1.760   3.884   6.741 -0.6716  0.0844  0.4834
17803SOL    HW253988   1.668   3.936   6.850  2.1656  2.9579  1.6407
17804SOL     OW53989   2.625   0.222   1.927  0.0827  0.2538  0.5209
17804SOL    HW153990   2.701   0.170   1.903  0.5508  1.1140  0.0973
17804SOL    HW253991   2.647   0.261   2.011 -0.9104 -1.4655  1.6382
17805SOL     OW53992   0.331   0.724   2.139 -0.2193 -0.1039  0.2319
17805SOL    HW153993   0.343   0.732   2.234  0.5594  2.6650 -0.0392
17805SOL    HW253994   0.419   0.723   2.104 -0.5126  0.9651 -0.5745
17806SOL     OW53995   8.470   0.387   8.779  0.1560  0.0364  0.3055
17806SOL    HW153996   8.518   0.342   8.709 -1.1766 -2.4073  0.8643
17806SOL    HW253997   8.470   0.479   8.752  3.4934 -0.1082 -0.6261
17807SOL     OW53998   9.531   7.001   4.776 -0.0074 -0.6729  0.0597
17807SOL    HW153999   9.542   7.092   4.750 -1.6056  0.3323  2.5193
17807SOL    HW254000   9.620   6.970   4.792  0.5682  0.3920 -0.9157
17808SOL     OW54001   7.028   8.190   2.138 -0.3129  0.4679 -0.3810
17808SOL    HW154002   7.024   8.191   2.042  1.1571 -1.0734 -0.5130
17808SOL    HW254003   6.938   8.174   2.165 -0.5342 -0.4884 -1.5730
17809SOL     OW54004   3.135   9.618   4.161 -0.2963  0.0616 -0.5136
17809SOL    HW154005   3.127   9.658   4.075 -0.2753  0.8865 -0.1402
17809SOL    HW254006   3.151   9.525   4.143 -1.5922 -0.0198 -1.3860
17810SOL     OW54007   3.766   6.636   9.350  0.0382 -0.6413 -0.3543
17810SOL    HW154008   3.749   6.681   9.267 -0.2956 -0.6966 -0.3151
17810SOL    HW254009   3.768   6.707   9.415  0.0075 -0.6307 -0.3655
17811SOL     OW54010   5.265   8.779   3.319 -0.1699 -0.4155 -0.1311
17811SOL    HW154011   5.255   8.810   3.229 -1.2661  2.7442  0.9486
17811SOL    HW254012   5.358   8.757   3.327  0.6930  2.4068 -1.2006
17812SOL     OW54013   3.202   0.713   5.224  0.7760  0.3277  0.6025
17812SOL    HW154014   3.122   0.745   5.267  1.6758  0.6974  2.0544
17812SOL    HW254015   3.249   0.792   5.198  2.1117  0.2367  2.5320
17813SOL     OW54016   0.579   7.126   3.742 -0.5900  0.5221 -0.4050
17813SOL    HW154017   0.598   7.217   3.718 -1.4859  1.1799  1.1930
17813SOL    HW254018   0.663   7.091   3.772 -0.5989  1.5031  0.8919
17814SOL     OW54019   6.345   8.826   0.947  0.5220  0.5808 -0.4108
17814SOL    HW154020   6.340   8.778   1.030  0.7683 -0.9598 -1.2416
17814SOL    HW254021   6.432   8.867   0.948 -0.0184  1.7586  0.6816
17815SOL     OW54022   6.860   3.755   8.133  0.1995 -0.0630  0.2424
17815SOL    HW154023   6.938   3.722   8.177  1.9747  0.2985 -2.4167
17815SOL    HW254024   6.889   3.833   8.086 -1.4500 -0.5508 -1.7521
17816SOL     OW54025   5.312   3.771   0.254  0.0962 -0.2407 -0.1258
17816SOL    HW154026   5.320   3.699   0.192  2.4531  2.0344 -2.7310
17816SOL    HW254027   5.396   3.773   0.300  0.4622  1.3337 -0.7795
17817SOL     OW54028   6.282   5.651   0.810  0.2738  0.1153  0.3076
17817SOL    HW154029   6.257   5.690   0.726 -1.5783  2.1756  1.6906
17817SOL    HW254030   6.361   5.601   0.791 -0.6421 -0.3211 -2.8430
17818SOL     OW54031   3.225   5.459   7.563 -1.0827 -0.1848 -0.4194
17818SOL    HW154032   3.187   5.387   7.614 -0.2969 -0.0439  0.3923
17818SOL    HW254033   3.163   5.531   7.573 -1.5931 -0.5724 -0.7692
17819SOL     OW54034   1.005   6.838   9.797 -0.0934 -0.0291 -0.1079
17819SOL    HW154035   1.073   6.898   9.766  0.2056 -0.3413 -0.0675
17819SOL    HW254036   0.935   6.845   9.732  0.2509 -0.1904 -0.5005
17820SOL     OW54037   4.608   8.650   7.041  0.0492 -0.1323  0.1256
17820SOL    HW154038   4.636   8.638   7.131  0.0416 -1.3502 -0.0261
17820SOL    HW254039   4.538   8.585   7.028 -0.2618  0.3298 -0.6233
17821SOL     OW54040   5.415   2.002   0.846  0.7741  0.3179  0.0915
17821SOL    HW154041   5.459   1.917   0.841 -1.3751 -0.8330 -0.3710
17821SOL    HW254042   5.480   2.060   0.887  1.9424 -1.7782  1.3859
17822SOL     OW54043   2.041   5.596   1.817  0.4134 -0.2486 -0.7420
17822SOL    HW154044   2.052   5.646   1.897  1.3350  1.0964 -1.6587
17822SOL    HW254045   2.116   5.537   1.815 -0.1407 -0.9845 -0.1456
17823SOL     OW54046   5.897   5.766   9.812  0.2683 -0.7650 -0.4033
17823SOL    HW154047   5.836   5.722   9.753 -0.2138  1.2048 -1.4737
17823SOL    HW254048   5.980   5.720   9.800 -0.7789 -3.0461  0.5569
17824SOL     OW54049   3.408   9.632   2.999  0.1906  0.1399  0.4750
17824SOL    HW154050   3.471   9.625   2.927  0.6085 -0.5351  0.9002
17824SOL    HW254051   3.369   9.719   2.988  1.0042  0.4591  0.0525
17825SOL     OW54052   6.644   0.655   0.848  0.8019 -0.0361 -0.5195
17825SOL    HW154053   6.713   0.695   0.795  0.5004  0.9052 -0.2213
17825SOL    HW254054   6.679   0.656   0.937  1.7140 -2.4913 -0.7642
17826SOL     OW54055   7.932   7.735   7.333  0.1956  0.0584  0.6490
17826SOL    HW154056   7.993   7.692   7.394  0.1826 -0.7260  0.1245
17826SOL    HW254057   7.867   7.668   7.314 -0.1883  0.5288  0.3124
17827SOL     OW54058   9.107   5.820   4.810 -0.5506  0.0700 -0.0129
17827SOL    HW154059   9.109   5.810   4.715  0.2522 -0.7315  0.0765
17827SOL    HW254060   9.194   5.795   4.839 -1.5305 -2.3717  1.1579
17828SOL     OW54061   3.479   3.660   7.610  0.9803 -0.0121  0.3424
17828SOL    HW154062   3.500   3.742   7.654  0.3385  0.3054  0.0657
17828SOL    HW254063   3.489   3.679   7.517 -1.2731  0.3964  0.1392
17829SOL     OW54064   4.899   0.542   5.127 -0.1217  0.1499 -0.1867
17829SOL    HW154065   4.968   0.542   5.194  2.4639  2.9913 -2.5404
17829SOL    HW254066   4.835   0.606   5.159  1.2584  1.7427 -0.5139
17830SOL     OW54067   3.309   4.389   9.462 -0.2988 -0.5026  0.2582
17830SOL    HW154068   3.366   4.323   9.422  0.7248  0.4701  0.0808
17830SOL    HW254069   3.315   4.371   9.556 -0.1797 -0.7841  0.2001
17831SOL     OW54070   8.791   0.798   3.152 -0.6629 -0.1211  0.1962
17831SOL    HW154071   8.745   0.809   3.236 -0.1161 -0.0163  0.4865
17831SOL    HW254072   8.729   0.751   3.097 -1.3402  0.5347  0.3912
17832SOL     OW54073   5.336   0.128   2.108  0.2925 -0.2164 -0.0171
17832SOL    HW154074   5.302   0.213   2.079  2.3622  0.0331 -2.0248
17832SOL    HW254075   5.375   0.146   2.194 -0.4172  0.5496  0.1627
17833SOL     OW54076   9.750   5.275   5.418 -0.3326 -0.2489 -0.4429
17833SOL    HW154077   9.765   5.198   5.472 -0.6815 -0.9608 -1.3285
17833SOL    HW254078   9.655   5.277   5.406 -0.6769  1.9266  1.8498
17834SOL     OW54079   9.391   4.851   0.131 -0.0935 -0.9531 -0.6356
17834SOL    HW154080   9.425   4.837   0.220  0.5051 -2.2665 -1.0379
17834SOL    HW254081   9.454   4.805   0.075  0.1822  0.8332 -1.8594
17835SOL     OW54082   6.326   9.994   3.582 -0.5641 -0.0971 -0.2957
17835SOL    HW154083   6.243   9.991   3.629 -2.3885  0.0904 -3.2684
17835SOL    HW254084   6.359   9.904   3.586 -0.9539 -0.2089  0.7551
17836SOL     OW54085   7.738   8.315   4.969 -0.4233  0.7734 -0.3920
17836SOL    HW154086   7.685   8.245   5.005  0.4542  0.9673  1.4024
17836SOL    HW254087   7.826   8.277   4.961 -0.5988  0.7071 -2.5079
17837SOL     OW54088   8.864   1.625   8.871  0.5464  0.0975  0.2372
17837SOL    HW154089   8.934   1.689   8.855  1.3137 -0.4814  1.1521
17837SOL    HW254090   8.908   1.540   8.865 -0.1999 -0.3022  0.2965
17838SOL     OW54091   3.603   3.032   4.879  0.6915 -0.6921 -0.3257
17838SOL    HW154092   3.636   3.119   4.901 -0.4111 -0.5132  0.7476
17838SOL    HW254093   3.676   2.973   4.896  1.0008 -0.1289  0.3695
17839SOL     OW54094   4.815   4.818   2.617 -0.3456  0.0384 -0.2071
17839SOL    HW154095   4.869   4.804   2.696 -0.5397 -2.0541 -0.3840
17839SOL    HW254096   4.795   4.911   2.618  2.3503  0.7179  0.4688
17840SOL     OW54097   5.817   4.664   8.204  0.1170  0.6514  0.2404
17840SOL    HW154098   5.775   4.582   8.177  2.8511 -0.6778 -0.2798
17840SOL    HW254099   5.766   4.692   8.280 -1.0713 -1.3948  0.2835
17841SOL     OW54100   4.439   6.582   1.006  0.1068  0.4657 -0.5781
17841SOL    HW154101   4.412   6.519   0.938 -0.7008  1.9304 -1.6669
17841SOL    HW254102   4.523   6.615   0.976 -0.4582  1.4459 -1.1421
17842SOL     OW54103   8.099   8.642   6.478 -0.1636 -0.6887 -0.0060
17842SOL    HW154104   8.004   8.650   6.489 -0.2484 -2.0470  0.4686
17842SOL    HW254105   8.110   8.601   6.392  0.0440  0.1622 -0.3997
17843SOL     OW54106   0.302   6.650   4.153  0.1997  0.5850  0.1310
17843SOL    HW154107   0.248   6.664   4.231  0.7945  2.5524  0.2550
17843SOL    HW254108   0.239   6.630   4.084 -0.2765 -2.1974  1.2363
17844SOL     OW54109   3.848   4.414   5.869  0.2499 -0.4067  0.2428
17844SOL    HW154110   3.925   4.384   5.820  1.1166 -1.5006  2.1642
17844SOL    HW254111   3.774   4.375   5.823  0.8056  0.5125 -1.5378
17845SOL     OW54112   7.507   4.421   4.108  0.0685  0.1761  0.3881
17845SOL    HW154113   7.454   4.380   4.039  0.3963 -3.2827  1.9558
17845SOL    HW254114   7.591   4.440   4.066 -0.3698 -0.0614 -0.6196
17846SOL     OW54115   5.945   1.355   2.669 -0.3510 -0.0450  0.0405
17846SOL    HW154116   6.027   1.316   2.639  1.0433  1.6892  1.3439
17846SOL    HW254117   5.884   1.340   2.598  0.2510 -3.8214  0.1343
17847SOL     OW54118   0.760   4.059   5.502 -0.0330  0.0904  0.6610
17847SOL    HW154119   0.773   4.001   5.577 -1.4498  0.3313  1.1218
17847SOL    HW254120   0.801   4.141   5.529  0.2249 -0.0913  0.8280
17848SOL     OW54121   5.762   5.211   8.645  0.1427 -0.3576  0.3057
17848SOL    HW154122   5.712   5.274   8.592 -0.1062 -1.2798 -0.6077
17848SOL    HW254123   5.835   5.185   8.589  1.8201  1.1299  1.7148
17849SOL     OW54124   4.398   1.311   5.904 -0.4210  0.1779  0.3243
17849SOL    HW154125   4.483   1.275   5.928  0.7252  1.5915 -1.3839
17849SOL    HW254126   4.364   1.250   5.839 -0.4565 -0.0803  0.5829
17850SOL     OW54127   6.070   1.520   6.068  0.5409 -0.3052  0.1272
17850SOL    HW154128   6.011   1.571   6.124  0.8444 -0.7111  0.8245
17850SOL    HW254129   6.096   1.580   5.999 -0.8134 -0.1566 -0.2813
17851SOL     OW54130   0.637   8.317   9.598 -0.3214  0.3557 -0.3557
17851SOL    HW154131   0.636   8.413   9.597  0.0161  0.3796  0.8493
17851SOL    HW254132   0.591   8.293   9.678  2.4843 -0.4069  1.1478
17852SOL     OW54133   0.477   6.855   2.940  0.0583  0.4708  0.0141
17852SOL    HW154134   0.486   6.937   2.892  0.6275  0.7780  0.6370
17852SOL    HW254135   0.394   6.863   2.987 -1.1880 -0.3736 -1.9184
17853SOL     OW54136   0.436   2.023   2.651 -0.4523  0.1278  0.3219
17853SOL    HW154137   0.449   2.054   2.562  1.4218  0.1156  0.5646
17853SOL    HW254138   0.431   2.102   2.704  2.6532  0.1739  0.7148
17854SOL     OW54139   4.005   8.575   7.701 -0.4521 -0.1153  0.2838
17854SOL    HW154140   4.023   8.645   7.639 -1.7538  1.6025  1.7524
17854SOL    HW254141   3.946   8.516   7.654  2.2651 -1.4721 -1.7007
17855SOL     OW54142   8.586   3.187   1.620  0.4611 -0.4156  0.1853
17855SOL    HW154143   8.518   3.199   1.687  1.0254 -2.2708  1.1572
17855SOL    HW254144   8.656   3.139   1.665  0.6903 -2.1094 -1.8352
17856SOL     OW54145   8.473   7.393   9.924 -0.5503 -0.0582  0.2679
17856SOL    HW154146   8.406   7.403   9.856  0.2715  0.3819 -0.4889
17856SOL    HW254147   8.540   7.458   9.902  1.8809 -2.8160 -1.0876
17857SOL     OW54148   7.677   1.427   0.363 -0.3605  0.3956 -0.6318
17857SOL    HW154149   7.616   1.451   0.293 -0.5535  2.2468  0.1310
17857SOL    HW254150   7.716   1.510   0.391  2.1302 -0.6478 -0.7084
17858SOL     OW54151   3.981   2.435   5.823  0.0703 -0.1711 -0.0855
17858SOL    HW154152   3.922   2.511   5.815  1.5033  1.2897  2.0740
17858SOL    HW254153   4.050   2.452   5.759 -0.7109 -0.7749 -1.1032
17859SOL     OW54154   3.981   4.582   6.040 -0.3084 -0.4850  0.4253
17859SOL    HW154155   3.923   4.611   6.110  0.0190  1.5678 -0.1080
17859SOL    HW254156   3.928   4.520   5.989 -2.5890  2.3139 -0.8485
17860SOL     OW54157   3.631   7.440   3.891  0.1002  0.6160  0.4097
17860SOL    HW154158   3.547   7.473   3.921  0.5674  0.6282  1.7701
17860SOL    HW254159   3.672   7.514   3.846 -1.5370 -0.0258 -2.4133
17861SOL     OW54160   9.285   2.658   7.011  0.1411  0.0478 -0.2738
17861SOL    HW154161   9.353   2.713   6.973  0.2358  0.7742  0.8953
17861SOL    HW254162   9.320   2.631   7.096 -1.3290  1.1741  0.7540
17862SOL     OW54163   3.979   2.213   2.476 -0.2128 -0.0688  0.3176
17862SOL    HW154164   3.991   2.233   2.384 -1.7956 -1.8501 -0.3467
17862SOL    HW254165   3.971   2.298   2.519 -0.8925  0.7828 -1.4190
17863SOL     OW54166   8.195   1.694   2.994  0.6300  0.3658  0.3351
17863SOL    HW154167   8.184   1.730   3.082  0.8114  0.5924  0.2647
17863SOL    HW254168   8.211   1.770   2.938  2.7069  0.0788  0.4541
17864SOL     OW54169   9.890   4.893   3.553 -0.2038  0.0547  0.0866
17864SOL    HW154170   9.933   4.811   3.576 -0.2951 -0.2014 -0.6368
17864SOL    HW254171   9.963   4.953   3.533 -0.0837  0.5236  1.7320
17865SOL     OW54172   9.181   6.525   3.051  0.0074  0.5440 -0.2833
17865SOL    HW154173   9.177   6.555   3.142 -0.8979 -3.0985  1.0551
17865SOL    HW254174   9.090   6.532   3.021 -0.5224 -1.8515  0.5327
17866SOL     OW54175   0.688   4.707   5.972  0.1121 -0.2517  0.3181
17866SOL    HW154176   0.599   4.683   6.001 -0.3771  1.0979 -0.0009
17866SOL    HW254177   0.715   4.634   5.916 -1.9603  0.5824 -1.9377
17867SOL     OW54178   9.455   5.851   7.561  0.0013 -0.4644 -0.2475
17867SOL    HW154179   9.526   5.803   7.604  0.1501 -0.2456 -0.2522
17867SOL    HW254180   9.456   5.937   7.601  2.0091  0.7510 -2.6270
17868SOL     OW54181   2.670   2.387   0.033 -0.5941  0.9052  0.4675
17868SOL    HW154182   2.577   2.362   0.024 -0.1228 -0.2126 -3.0775
17868SOL    HW254183   2.677   2.469  -0.016  0.5606 -0.0089 -0.9702
17869SOL     OW54184   9.531   3.610   6.512 -0.4944  0.1975  0.0820
17869SOL    HW154185   9.619   3.620   6.475 -0.7148  0.1091 -0.4729
17869SOL    HW254186   9.543   3.621   6.606  0.8467 -4.2166  0.6480
17870SOL     OW54187   1.656   8.019   2.066 -0.0825 -0.1467 -0.4079
17870SOL    HW154188   1.702   8.102   2.053 -0.1376 -0.0691 -0.1005
17870SOL    HW254189   1.592   8.037   2.135  1.1843 -0.9477  1.0351
17871SOL     OW54190   9.390   1.996   2.398  0.2563  0.1769  0.5196
17871SOL    HW154191   9.461   1.955   2.446 -0.0268  1.7613  2.3945
17871SOL    HW254192   9.316   1.997   2.459 -0.8441  0.1885 -0.7556
17872SOL     OW54193   9.676   6.513   9.943  0.4749 -0.5237 -0.2196
17872SOL    HW154194   9.628   6.466   9.875 -0.0437 -0.0941 -0.1625
17872SOL    HW254195   9.759   6.537   9.901  0.2036 -0.3522 -0.6703
17873SOL     OW54196   7.744   4.879   6.442  0.3410 -0.1742 -0.3797
17873SOL    HW154197   7.732   4.971   6.467 -1.8526 -0.1328 -1.3511
17873SOL    HW254198   7.817   4.880   6.380  0.6227  0.8459 -0.0513
17874SOL     OW54199   2.729   3.694   7.582 -0.6114 -0.6839  0.6577
17874SOL    HW154200   2.656   3.678   7.641 -0.3267 -0.9182  0.9481
17874SOL    HW254201   2.806   3.697   7.639 -0.2954 -1.2387  0.2632
17875SOL     OW54202   6.622   5.786   6.005  0.0971  0.4861 -0.3153
17875SOL    HW154203   6.584   5.747   6.083  0.2599  1.4180  0.2517
17875SOL    HW254204   6.548   5.829   5.961  0.6485  4.1390  1.8891
17876SOL     OW54205   1.780   7.837   6.660  0.0241 -0.1240 -0.1051
17876SOL    HW154206   1.718   7.851   6.588 -0.1852 -0.6780 -0.0331
17876SOL    HW254207   1.847   7.780   6.623  0.3047  0.1893 -0.0772
17877SOL     OW54208   3.249   7.780   7.651  0.1806 -0.4592  0.8788
17877SOL    HW154209   3.308   7.847   7.686  1.5920 -1.2174  0.0690
17877SOL    HW254210   3.306   7.704   7.637 -1.4211 -1.9642  2.0711
17878SOL     OW54211   9.708   7.435   7.992 -0.1554  0.4108 -0.1240
17878SOL    HW154212   9.691   7.367   8.057 -1.1980 -0.2089 -1.0081
17878SOL    HW254213   9.803   7.445   7.992 -0.1520  0.7071  1.7504
17879SOL     OW54214   5.276   9.095   5.775  0.0414  0.5879  0.3765
17879SOL    HW154215   5.361   9.105   5.733 -0.2035 -0.6680 -0.4710
17879SOL    HW254216   5.291   9.121   5.866  1.5550 -0.4908  0.4705
17880SOL     OW54217   4.452   2.825   0.089 -0.3447  0.1140 -0.0006
17880SOL    HW154218   4.407   2.820   0.173  1.4704 -0.1029  1.0055
17880SOL    HW254219   4.526   2.765   0.098  0.8530  1.3609 -1.1265
17881SOL     OW54220   3.937   7.416   7.453 -0.2427 -0.3184  0.1308
17881SOL    HW154221   4.001   7.461   7.509 -0.4032  0.1988 -0.0928
17881SOL    HW254222   3.984   7.339   7.421  0.3582  0.1784 -0.2226
17882SOL     OW54223   9.065   3.803   8.876  0.2114  0.3921 -0.1711
17882SOL    HW154224   8.976   3.809   8.840  0.4760 -1.8186 -1.3584
17882SOL    HW254225   9.052   3.808   8.971 -1.4371 -1.7646 -0.2111
17883SOL     OW54226   9.190   9.534   5.241 -0.6677 -0.4834  0.1947
17883SOL    HW154227   9.241   9.540   5.160 -2.2298 -1.8617 -0.9369
17883SOL    HW254228   9.163   9.625   5.258  0.3405 -0.0564 -0.3614
17884SOL     OW54229   2.130   8.314   8.650 -0.1578  0.5932 -0.4613
17884SOL    HW154230   2.157   8.401   8.680 -1.7985  1.7935 -2.1899
17884SOL    HW254231   2.182   8.253   8.702  2.0041  2.6064 -0.0889
17885SOL     OW54232   6.843   4.557   6.022 -0.3617 -0.8940  0.1715
17885SOL    HW154233   6.775   4.569   5.955 -0.2879 -1.7461 -0.0742
17885SOL    HW254234   6.799   4.507   6.091 -0.1316 -0.9912  0.2477
17886SOL     OW54235   8.616   6.962   9.363  0.6565 -0.4204 -0.2993
17886SOL    HW154236   8.601   7.054   9.344 -2.1544 -0.6087  0.5439
17886SOL    HW254237   8.594   6.953   9.456  0.3565 -2.0156 -0.4934
17887SOL     OW54238   1.786   8.044   7.647  0.2545 -0.1000 -0.3211
17887SOL    HW154239   1.727   8.095   7.591 -0.4109  0.5664  0.9405
17887SOL    HW254240   1.857   8.104   7.669  0.7137 -0.4794 -0.7434
17888SOL     OW54241   5.274   2.049   5.910 -0.2130 -0.2752 -0.0244
17888SOL    HW154242   5.351   2.082   5.955 -0.1636 -1.3240  0.6964
17888SOL    HW254243   5.268   1.957   5.936 -2.5105  0.1074  1.1340
17889SOL     OW54244   1.834   8.664   3.667  0.0288  0.3205 -0.1649
17889SOL    HW154245   1.849   8.639   3.576 -0.7021  0.4733 -0.3361
17889SOL    HW254246   1.886   8.602   3.718  0.1837  0.0252 -0.6713
17890SOL     OW54247   6.664   0.149   0.735 -0.2250  0.8618  0.8452
17890SOL    HW154248   6.685   0.225   0.680 -0.5245  0.7536  0.5757
17890SOL    HW254249   6.731   0.085   0.714 -0.6336  0.6295  0.2122
17891SOL     OW54250   3.385   5.717   7.055  0.0572 -0.2687 -0.0785
17891SOL    HW154251   3.406   5.680   6.969 -1.2964 -0.0571 -0.5225
17891SOL    HW254252   3.389   5.812   7.041  1.9806 -0.1874  0.6701
17892SOL     OW54253   3.803   3.867   0.099 -0.0583 -0.4906 -0.3316
17892SOL    HW154254   3.800   3.958   0.070 -1.6675  0.4131  2.3223
17892SOL    HW254255   3.754   3.819   0.032 -0.3295  0.8006 -1.1024
17893SOL     OW54256   7.789   3.341   3.669  0.1754 -0.2934  0.2304
17893SOL    HW154257   7.701   3.374   3.652  0.4293  0.7201  0.8096
17893SOL    HW254258   7.776   3.257   3.713 -0.4947 -0.1414  0.3216
17894SOL     OW54259   9.434   8.799   9.239 -0.2395  0.1945  0.1493
17894SOL    HW154260   9.422   8.724   9.181 -0.2560 -0.6068  1.1532
17894SOL    HW254261   9.458   8.760   9.324  3.0705  1.4367 -0.0868
17895SOL     OW54262   2.282   3.419   9.400  0.2164 -0.2299 -0.3998
17895SOL    HW154263   2.362   3.434   9.350  0.0954  0.6633 -0.3435
17895SOL    HW254264   2.216   3.398   9.335  0.6495 -1.7712 -0.3928
17896SOL     OW54265   9.777   9.863   8.283  0.0200 -0.0774 -0.4110
17896SOL    HW154266   9.701   9.916   8.259  0.5781  1.0494  0.2739
17896SOL    HW254267   9.745   9.802   8.350  0.0118  1.3126  0.8871
17897SOL     OW54268   3.042   4.601   7.093 -0.0056 -0.0847  0.5306
17897SOL    HW154269   3.003   4.514   7.084  2.1557 -1.0249 -0.4966
17897SOL    HW254270   3.035   4.621   7.186  0.0589 -1.6729  0.9080
17898SOL     OW54271   2.118   0.373   9.820 -0.2308  0.4509  0.5415
17898SOL    HW154272   2.125   0.450   9.876 -0.6068  1.8510 -1.2590
17898SOL    HW254273   2.197   0.374   9.767  0.3224 -1.0920  1.2820
17899SOL     OW54274   8.156   8.014   7.438 -0.1196  0.3064 -0.0901
17899SOL    HW154275   8.074   8.029   7.486 -0.6958  0.9737 -1.2522
17899SOL    HW254276   8.191   8.102   7.423  0.5688  0.0481 -0.0247
17900SOL     OW54277   4.444   9.603   1.239 -0.2793  0.0215  0.3349
17900SOL    HW154278   4.361   9.558   1.258  1.0826 -1.9453  2.1142
17900SOL    HW254279   4.418   9.694   1.221 -2.8597 -0.6651  0.1323
17901SOL     OW54280   8.116   1.309   1.587  0.3842 -0.1450  0.3439
17901SOL    HW154281   8.178   1.255   1.537 -0.4377  0.6748 -1.6858
17901SOL    HW254282   8.032   1.294   1.545 -0.3563  0.6125  1.5082
17902SOL     OW54283   4.087   4.115   2.952  0.1577 -0.2441  0.3013
17902SOL    HW154284   4.174   4.141   2.982  0.3497 -0.0893 -0.3665
17902SOL    HW254285   4.104   4.047   2.887 -0.2939 -1.2442  1.2217
17903SOL     OW54286   9.785   0.908   2.841  0.2563  0.6992 -0.7385
17903SOL    HW154287   9.721   0.947   2.781  0.8375  0.1489 -1.7432
17903SOL    HW254288   9.840   0.982   2.867 -1.0750  1.2917  0.5734
17904SOL     OW54289   0.612   6.173   9.250  0.5016  0.1240 -0.4796
17904SOL    HW154290   0.651   6.090   9.278 -0.0935 -0.3641 -1.0800
17904SOL    HW254291   0.648   6.237   9.311  0.9176 -0.5813  0.0391
17905SOL     OW54292   7.493   4.949   8.637 -0.2061 -0.2585 -0.1597
17905SOL    HW154293   7.548   4.887   8.590  1.0923  1.7984 -1.4868
17905SOL    HW254294   7.458   4.898   8.711  1.5851 -2.2571 -0.5861
17906SOL     OW54295   4.989   0.686   8.394  0.1947  0.4854  0.0485
17906SOL    HW154296   5.054   0.628   8.353 -0.1605  0.6769 -0.8019
17906SOL    HW254297   5.023   0.774   8.379 -0.3934  0.6016 -0.6440
17907SOL     OW54298   8.826   5.094   0.012  0.3069 -0.7310 -0.2362
17907SOL    HW154299   8.741   5.069  -0.023  0.3183 -0.8590 -0.1748
17907SOL    HW254300   8.806   5.151   0.086  0.2417 -1.6341  0.4590
17908SOL     OW54301   1.151   7.156   0.562 -0.9219  0.4493 -0.1294
17908SOL    HW154302   1.202   7.238   0.559  0.4477 -0.3047  1.2412
17908SOL    HW254303   1.200   7.096   0.505 -0.8268  0.0098  0.4147
17909SOL     OW54304   4.122   0.513   8.985 -0.5300 -0.0222 -0.0859
17909SOL    HW154305   4.147   0.454   8.914  1.5783 -1.1757  1.4482
17909SOL    HW254306   4.082   0.455   9.050 -0.1676  0.5446  0.6545
17910SOL     OW54307   6.369   5.117   4.875 -0.2208 -0.5026 -0.0490
17910SOL    HW154308   6.299   5.088   4.934 -0.6130  0.6454  0.0614
17910SOL    HW254309   6.432   5.045   4.877 -1.0316 -1.2267  0.4442
17911SOL     OW54310   4.464   3.200   5.888 -0.1310  0.7983 -0.2860
17911SOL    HW154311   4.422   3.286   5.884  0.0634  0.8432 -2.2663
17911SOL    HW254312   4.548   3.212   5.844  1.2689  0.2948  2.0879
17912SOL     OW54313   7.829   6.297   0.214 -0.2285  0.5450 -0.4062
17912SOL    HW154314   7.904   6.315   0.270 -1.4104  0.0227  1.4654
17912SOL    HW254315   7.831   6.202   0.200 -1.1778  0.3294  0.7149
17913SOL     OW54316   6.018   2.719   4.479  0.6405  0.5696  0.5563
17913SOL    HW154317   6.014   2.727   4.384  1.0815 -0.5565  0.4204
17913SOL    HW254318   6.023   2.809   4.511 -0.1703  0.9902 -0.4443
17914SOL     OW54319   3.827   4.101   2.099  0.2579 -0.4212 -0.5785
17914SOL    HW154320   3.750   4.046   2.089  0.2746 -0.7287  0.8998
17914SOL    HW254321   3.901   4.041   2.085  0.2952 -0.9829  1.6440
17915SOL     OW54322   1.327   1.142   6.752  0.7423 -0.0307 -0.4725
17915SOL    HW154323   1.275   1.069   6.786  1.0757  0.4571  1.1518
17915SOL    HW254324   1.405   1.100   6.716  0.5489 -0.5383 -0.3109
17916SOL     OW54325   0.498   5.727   7.727 -0.0739  0.1846 -0.3654
17916SOL    HW154326   0.529   5.806   7.771 -0.9635 -0.2133  1.0097
17916SOL    HW254327   0.473   5.757   7.639 -1.8200  1.7603  0.6001
17917SOL     OW54328   3.248   2.975   7.963  0.2330 -0.0184 -0.1434
17917SOL    HW154329   3.324   2.949   7.911  0.5657 -0.0196  0.3455
17917SOL    HW254330   3.209   3.047   7.913  1.6554  1.2904  0.5586
17918SOL     OW54331   2.296   7.109   2.105 -0.0061  0.0989 -0.0493
17918SOL    HW154332   2.218   7.149   2.144  2.0035  1.2523  3.1890
17918SOL    HW254333   2.273   7.016   2.095 -1.5480  0.2587  1.5205
17919SOL     OW54334   0.449   7.646   3.104 -0.2432  0.0998 -0.3825
17919SOL    HW154335   0.445   7.711   3.034  2.1191 -1.8281 -2.4586
17919SOL    HW254336   0.524   7.673   3.157  1.0989 -1.1484 -1.5788
17920SOL     OW54337   5.298   7.640   9.866 -0.1969  0.1040 -0.0445
17920SOL    HW154338   5.278   7.733   9.876 -1.0445  0.2241 -2.4014
17920SOL    HW254339   5.212   7.597   9.866  0.2203 -0.9584  2.6521
17921SOL     OW54340   9.881   9.317   1.391  0.0194  0.0940 -0.4758
17921SOL    HW154341   9.817   9.372   1.346  0.0181 -0.3522 -1.0272
17921SOL    HW254342   9.835   9.284   1.468  0.4204  1.9045  0.6048
17922SOL     OW54343   1.494   2.277   8.128 -0.4442  0.1014  0.6742
17922SOL    HW154344   1.524   2.343   8.191  1.0069  2.2314 -2.0364
17922SOL    HW254345   1.419   2.318   8.085 -0.6866 -0.8116  0.2046
17923SOL     OW54346   0.655   3.264   4.972  0.6810  0.4644 -0.5718
17923SOL    HW154347   0.605   3.294   4.897 -2.5358  0.4402  1.3865
17923SOL    HW254348   0.695   3.344   5.007 -0.3713  0.9997 -0.5616
17924SOL     OW54349   7.970   6.985   7.240  0.1782  0.0861  0.1126
17924SOL    HW154350   8.021   7.065   7.252  0.9784 -0.5110  0.9344
17924SOL    HW254351   8.036   6.916   7.232 -0.4940 -0.4973 -0.5754
17925SOL     OW54352   5.007   4.522   2.719 -0.0647  0.2593  0.1291
17925SOL    HW154353   5.051   4.540   2.636  0.6653 -1.1896  0.1696
17925SOL    HW254354   4.950   4.448   2.701 -1.0014  0.8418  0.5874
17926SOL     OW54355   3.063   0.622   4.947  0.2067 -0.5243 -0.5728
17926SOL    HW154356   2.981   0.617   4.997  0.3582  0.4466 -0.2174
17926SOL    HW254357   3.125   0.663   5.007  1.4609 -2.7718 -0.1925
17927SOL     OW54358   2.631   1.521   6.271 -0.0504  0.1470  0.0720
17927SOL    HW154359   2.682   1.601   6.285  0.4652 -0.4049  1.5081
17927SOL    HW254360   2.550   1.535   6.319  0.0962 -0.2407  0.4346
17928SOL     OW54361   5.966   9.446   0.907 -0.7226  0.2357 -0.9815
17928SOL    HW154362   5.900   9.378   0.904 -1.6004  1.0252 -0.3275
17928SOL    HW254363   6.021   9.423   0.982 -0.1286 -0.5154 -1.6315
17929SOL     OW54364   4.953   7.286   3.316  0.0740 -0.4371 -0.1080
17929SOL    HW154365   4.944   7.352   3.248 -1.2535 -0.3439  0.1450
17929SOL    HW254366   4.901   7.212   3.286 -0.6740 -0.3230  0.8812
17930SOL     OW54367   6.879   8.913   6.374 -0.3067  0.7990 -0.1874
17930SOL    HW154368   6.789   8.914   6.404 -0.0489  2.8230  0.6829
17930SOL    HW254369   6.931   8.897   6.453  0.1039 -1.2764 -0.8197
17931SOL     OW54370   4.006   9.071   7.835 -0.7111 -0.3790 -0.0968
17931SOL    HW154371   3.921   9.038   7.866 -0.1399 -1.8508  0.0142
17931SOL    HW254372   4.029   9.014   7.762  1.2376 -1.5993  1.3490
17932SOL     OW54373   7.720   3.710   9.093  0.1879 -0.4116  0.3097
17932SOL    HW154374   7.777   3.647   9.135  0.7498 -0.6599 -0.7854
17932SOL    HW254375   7.660   3.657   9.039  0.8383 -0.0326 -0.8288
17933SOL     OW54376   6.648   0.817   6.274 -0.2351 -0.1444  0.1255
17933SOL    HW154377   6.567   0.867   6.264 -0.1551  0.4116  1.9157
17933SOL    HW254378   6.679   0.804   6.185 -2.1737 -0.1809 -0.5914
17934SOL     OW54379   2.781   4.298   7.584 -0.2291 -0.3862 -0.5888
17934SOL    HW154380   2.731   4.223   7.615  1.0103 -1.2289 -0.5700
17934SOL    HW254381   2.773   4.294   7.489 -0.8411 -0.0464 -0.5587
17935SOL     OW54382   1.632   3.509   8.479 -0.2360 -0.3730 -0.2700
17935SOL    HW154383   1.575   3.441   8.444  1.2117 -2.0481  0.4561
17935SOL    HW254384   1.576   3.585   8.490 -1.6266 -1.0216 -2.3677
17936SOL     OW54385   8.400   7.817   5.153  0.0308 -0.2608  0.0157
17936SOL    HW154386   8.317   7.772   5.173  0.2335 -1.0971 -0.9873
17936SOL    HW254387   8.454   7.801   5.230 -1.4337  2.1042  1.6607
17937SOL     OW54388   9.519   3.278   3.224 -0.7299  0.1993 -0.1965
17937SOL    HW154389   9.437   3.310   3.263 -1.7933 -1.1257 -1.2449
17937SOL    HW254390   9.497   3.261   3.133  0.9445  0.5312 -0.6935
17938SOL     OW54391   9.752   1.857   8.355  0.3117 -0.3277  0.1772
17938SOL    HW154392   9.708   1.813   8.429  0.3426 -0.8444 -0.1075
17938SOL    HW254393   9.683   1.868   8.290  0.4282 -0.4423  0.0339
17939SOL     OW54394   8.952   1.749   8.161 -0.0101  0.2852 -0.3082
17939SOL    HW154395   8.964   1.768   8.254 -0.2320 -1.6605  0.1811
17939SOL    HW254396   8.933   1.655   8.159  4.3942 -0.8418 -2.6579
17940SOL     OW54397   4.793   8.317   3.268  0.1413  0.0421  0.0656
17940SOL    HW154398   4.785   8.411   3.285  1.2508  0.3599 -1.0912
17940SOL    HW254399   4.871   8.291   3.317 -0.9058 -0.5848  1.4786
17941SOL     OW54400   4.397   0.787   3.349 -0.1701  0.2742  0.1901
17941SOL    HW154401   4.376   0.847   3.419  0.4875 -1.1900  1.7052
17941SOL    HW254402   4.485   0.756   3.369 -0.0560 -0.3468 -1.1617
17942SOL     OW54403   2.166   3.345   6.125 -0.1634  0.0557  0.0883
17942SOL    HW154404   2.234   3.411   6.109  0.5395 -0.4389  0.9690
17942SOL    HW254405   2.214   3.267   6.153 -1.1088 -0.2770  0.8225
17943SOL     OW54406   0.803   2.752   2.768  0.3042 -0.3063 -0.4052
17943SOL    HW154407   0.752   2.777   2.692  0.8018  1.8313 -0.0980
17943SOL    HW254408   0.787   2.822   2.832 -1.4004 -2.7968  2.1564
17944SOL     OW54409   0.794   3.264   7.761  0.2343  0.0885  0.2424
17944SOL    HW154410   0.882   3.298   7.778  0.0348 -0.2297  2.0926
17944SOL    HW254411   0.775   3.292   7.671  1.5505  1.6096  0.3786
17945SOL     OW54412   6.825   7.120   4.337 -0.0377 -0.2608 -0.4746
17945SOL    HW154413   6.761   7.128   4.267  0.1828  1.6430 -0.5041
17945SOL    HW254414   6.772   7.113   4.417 -0.2762 -1.5306 -0.7248
17946SOL     OW54415   3.287   2.759   2.895  0.3762  0.4551  0.1419
17946SOL    HW154416   3.195   2.787   2.894  0.4944  0.8447 -0.9276
17946SOL    HW254417   3.288   2.684   2.955 -0.3360  1.4208  1.4088
17947SOL     OW54418   9.609   6.084   9.186  0.0888 -0.1772  0.0953
17947SOL    HW154419   9.528   6.042   9.158 -0.4768  1.2618 -0.4927
17947SOL    HW254420   9.585   6.137   9.262  0.4601  0.2850 -0.1010
17948SOL     OW54421   7.169   2.854   2.026  0.2403 -0.0887  0.5837
17948SOL    HW154422   7.175   2.941   1.986 -3.0293  0.0683  0.1394
17948SOL    HW254423   7.144   2.872   2.117  1.1702 -0.5724  0.9451
17949SOL     OW54424   9.878   4.709   3.300 -0.0859  0.2620 -0.0004
17949SOL    HW154425   9.850   4.629   3.344 -0.0096  0.6843  0.8408
17949SOL    HW254426   9.871   4.689   3.207  1.5047 -1.2735  0.1538
17950SOL     OW54427   3.993   8.160   2.054  0.6148  0.0569 -0.0891
17950SOL    HW154428   4.043   8.080   2.041  1.4607  0.6243 -0.3964
17950SOL    HW254429   3.917   8.151   1.997 -0.4476 -1.4672  1.4646
17951SOL     OW54430   7.308   7.680   8.714  0.5095  0.0495 -0.0027
17951SOL    HW154431   7.241   7.654   8.778  0.8577  1.5568  1.0452
17951SOL    HW254432   7.353   7.598   8.692 -0.7812 -0.7803  0.3187
17952SOL     OW54433   2.064   0.168   5.841 -0.0654  0.0430  0.0803
17952SOL    HW154434   2.091   0.097   5.782 -0.0183 -0.6099  0.8600
17952SOL    HW254435   2.113   0.244   5.812  1.9817 -0.8902  0.8856
17953SOL     OW54436   9.507   8.891   4.173  0.0809 -0.4602  0.1663
17953SOL    HW154437   9.509   8.801   4.206  1.0989 -0.9326 -1.1112
17953SOL    HW254438   9.425   8.897   4.124 -0.4961 -0.3487  1.1208
17954SOL     OW54439   2.590   2.657   9.279  0.0534  0.2983 -0.0667
17954SOL    HW154440   2.526   2.684   9.345 -0.7867  0.6383 -0.9870
17954SOL    HW254441   2.620   2.571   9.307  0.8560  1.0661  1.5565
17955SOL     OW54442   5.266   1.359   6.689 -0.4747  0.1142  0.0988
17955SOL    HW154443   5.225   1.445   6.699 -0.2427  0.2048  0.2793
17955SOL    HW254444   5.197   1.304   6.653 -0.4213  0.5565 -0.7040
17956SOL     OW54445   9.273   0.648   0.870  0.0342  0.9138 -0.0858
17956SOL    HW154446   9.320   0.574   0.908 -1.6020  0.6128  1.4787
17956SOL    HW254447   9.297   0.646   0.777 -0.1761 -1.7400 -0.1652
17957SOL     OW54448   3.531   9.672   2.400 -0.0848 -0.2071 -0.6320
17957SOL    HW154449   3.520   9.694   2.307 -0.9730  0.6876 -0.3344
17957SOL    HW254450   3.492   9.746   2.447 -1.7076 -1.6707  0.4380
17958SOL     OW54451   0.613   1.441   6.088  0.5334 -0.1206  0.8913
17958SOL    HW154452   0.574   1.528   6.087 -0.1225 -0.3864  1.8963
17958SOL    HW254453   0.538   1.381   6.086  0.9685 -0.7474 -1.9196
17959SOL     OW54454   3.495   1.537   2.106 -0.3797 -0.5355 -0.2407
17959SOL    HW154455   3.535   1.608   2.056 -2.3348  1.5271  0.9915
17959SOL    HW254456   3.438   1.493   2.043 -0.4257  0.0260 -0.5905
17960SOL     OW54457   1.827   8.300   0.242 -0.2392  0.3042 -0.1205
17960SOL    HW154458   1.903   8.350   0.269 -1.0667  2.0725 -0.8892
17960SOL    HW254459   1.769   8.364   0.200 -1.2988 -1.3246 -1.3058
17961SOL     OW54460   9.641   0.326   1.056 -0.2532 -0.9412 -0.2301
17961SOL    HW154461   9.673   0.279   0.978 -0.0835 -0.9893 -0.1339
17961SOL    HW254462   9.721   0.359   1.097 -0.3722 -0.5916 -0.2807
17962SOL     OW54463   8.228   5.229   5.489 -0.7164  0.5331  0.4276
17962SOL    HW154464   8.280   5.150   5.474  0.4815  1.0727  1.5482
17962SOL    HW254465   8.166   5.204   5.557 -2.1716 -0.1851 -1.0834
17963SOL     OW54466   6.719   1.149   3.607  0.0435 -0.4533 -0.2097
17963SOL    HW154467   6.788   1.158   3.541 -0.8956  1.5736 -0.9936
17963SOL    HW254468   6.702   1.239   3.636 -0.9406 -1.1205  1.3698
17964SOL     OW54469   3.376   1.662   4.172  0.2768 -0.0122  0.0610
17964SOL    HW154470   3.449   1.637   4.116  0.9227 -0.1185  0.9379
17964SOL    HW254471   3.298   1.647   4.117  0.7045 -2.5127  0.0197
17965SOL     OW54472   8.532   0.703   6.671  0.3208 -0.3144  0.2047
17965SOL    HW154473   8.472   0.659   6.730  0.7697 -1.5023 -0.2072
17965SOL    HW254474   8.595   0.746   6.729  0.6398 -1.2973  0.5987
17966SOL     OW54475   8.177   4.184   7.949  0.2127 -0.2122  0.1673
17966SOL    HW154476   8.088   4.150   7.959 -0.0331  0.6551  1.0568
17966SOL    HW254477   8.166   4.260   7.892  0.2825  0.2649  0.7819
17967SOL     OW54478   8.569   7.714   5.352  0.3390 -0.1070  0.3653
17967SOL    HW154479   8.498   7.737   5.412  0.1141  0.6029 -0.1594
17967SOL    HW254480   8.649   7.724   5.404  0.2435  1.7627  0.2262
17968SOL     OW54481   7.546   2.446   3.627  0.0990  0.0291 -0.3640
17968SOL    HW154482   7.566   2.407   3.712  0.1855  1.7887  0.4676
17968SOL    HW254483   7.496   2.525   3.648 -1.0493 -0.2071 -2.0302
17969SOL     OW54484   2.519   8.392   2.343 -0.1189 -0.0121  0.1355
17969SOL    HW154485   2.539   8.341   2.265 -1.6887 -0.0584 -0.2598
17969SOL    HW254486   2.536   8.332   2.416  2.5197  0.3962 -0.0351
17970SOL     OW54487   0.556   1.987   6.269 -0.3384  0.0543  0.3108
17970SOL    HW154488   0.508   1.950   6.194 -1.2162  0.6447  0.5605
17970SOL    HW254489   0.607   2.059   6.231  0.7178 -0.8434 -0.0302
17971SOL     OW54490   0.109   9.043   7.094 -0.0309  0.0071 -0.2785
17971SOL    HW154491   0.108   9.121   7.149 -0.3591 -0.5658  0.5421
17971SOL    HW254492   0.018   9.032   7.068  0.0693  0.0805 -0.6712
17972SOL     OW54493   0.539   1.500   3.218  0.2462 -0.1839 -0.0786
17972SOL    HW154494   0.611   1.509   3.156  0.5088  0.0685  0.2565
17972SOL    HW254495   0.468   1.550   3.180  0.5666  0.3893  0.0640
17973SOL     OW54496   9.635   7.677   8.093  0.0319 -0.5408 -0.6247
17973SOL    HW154497   9.699   7.693   8.163  0.8866  2.3802 -1.9245
17973SOL    HW254498   9.660   7.592   8.057  1.7675 -0.4992  0.3578
17974SOL     OW54499   2.881   2.198   1.152 -0.6823  0.1690  0.1347
17974SOL    HW154500   2.919   2.183   1.238 -1.3221  0.6534  0.5120
17974SOL    HW254501   2.955   2.198   1.092 -0.2115  0.0401  0.7141
17975SOL     OW54502   8.408   2.639   2.126 -0.2411  0.1220  0.2259
17975SOL    HW154503   8.490   2.688   2.124 -0.0075 -0.2341  0.8084
17975SOL    HW254504   8.382   2.633   2.034 -0.0157  0.8958  0.0986
17976SOL     OW54505   0.899   4.833   3.286 -0.0077  0.3277 -0.2240
17976SOL    HW154506   0.901   4.739   3.303  0.4732  0.5735  1.1806
17976SOL    HW254507   0.867   4.872   3.367  0.5070  1.4282 -0.5283
17977SOL     OW54508   7.084   6.707   8.075  0.1541 -0.9071  0.3451
17977SOL    HW154509   6.997   6.676   8.049  0.4458 -0.3152 -1.4863
17977SOL    HW254510   7.066   6.779   8.135 -0.5721 -2.1406  1.6646
17978SOL     OW54511   6.903   3.630   7.073  0.4906  0.2651  0.1899
17978SOL    HW154512   6.902   3.685   6.995 -2.2279 -1.3442 -1.0207
17978SOL    HW254513   6.815   3.637   7.109  0.8109 -1.3576  1.4161
17979SOL     OW54514   9.523   2.499   7.492 -0.1465  0.0957  0.4891
17979SOL    HW154515   9.484   2.413   7.477  1.2654 -0.6448  0.8948
17979SOL    HW254516   9.611   2.493   7.456  0.7486  0.6377  2.4223
17980SOL     OW54517   7.510   7.258   7.048 -0.1078 -0.2058  0.3191
17980SOL    HW154518   7.469   7.172   7.044  0.1092 -0.2603 -1.4229
17980SOL    HW254519   7.470   7.308   6.977  0.9732  0.5797  0.2231
17981SOL     OW54520   1.854   8.413   9.660  0.0731  0.3311 -0.4205
17981SOL    HW154521   1.789   8.392   9.593  0.9778 -0.3432 -1.1096
17981SOL    HW254522   1.826   8.363   9.737 -0.2913  0.1514 -0.6694
17982SOL     OW54523   7.673   5.133   9.315  0.2779 -0.1765 -0.1257
17982SOL    HW154524   7.686   5.196   9.385 -1.9244  0.3562 -0.1188
17982SOL    HW254525   7.646   5.185   9.240 -0.8988 -1.0093 -0.3176
17983SOL     OW54526   2.801   1.937   2.558  0.4564 -0.3999  0.5108
17983SOL    HW154527   2.839   1.884   2.628  0.9774 -0.2624  0.3369
17983SOL    HW254528   2.796   1.878   2.483  1.6102 -0.0623  0.1342
17984SOL     OW54529   3.812   0.161   0.661 -0.1091 -0.0063 -0.1420
17984SOL    HW154530   3.871   0.237   0.654  1.2314 -0.8196  1.5314
17984SOL    HW254531   3.819   0.118   0.576  0.0317  1.0847 -0.7034
17985SOL     OW54532   3.692   9.233   6.605 -0.0329 -0.3138  0.0448
17985SOL    HW154533   3.712   9.325   6.590 -0.8742 -0.2303 -0.6401
17985SOL    HW254534   3.746   9.186   6.542  0.5030 -0.3013  0.4920
17986SOL     OW54535   8.175   3.721   4.058  0.6700  0.1333  0.2047
17986SOL    HW154536   8.149   3.638   4.019 -0.0188  0.2507  0.3888
17986SOL    HW254537   8.133   3.721   4.145  1.8766  0.0342  0.8009
17987SOL     OW54538   7.063   5.883   7.601 -0.0332  0.0371  0.2968
17987SOL    HW154539   7.137   5.866   7.659 -0.5682 -1.4053  0.6142
17987SOL    HW254540   7.029   5.796   7.579 -0.0605  0.5461 -1.9211
17988SOL     OW54541   4.046   7.089   1.721  0.2491 -0.0341  0.4146
17988SOL    HW154542   4.026   7.040   1.641  0.2854  1.2778 -0.4244
17988SOL    HW254543   4.108   7.033   1.768  1.8677  0.0518 -1.4664
17989SOL     OW54544   8.275   3.108   7.039 -0.3448  0.6829 -0.6156
17989SOL    HW154545   8.370   3.117   7.026 -0.2800  0.7382 -0.1416
17989SOL    HW254546   8.260   3.013   7.037 -0.0901  0.6001  0.4748
17990SOL     OW54547   3.405   0.446   6.392  0.0616  0.3629  0.0197
17990SOL    HW154548   3.439   0.440   6.303  1.9532  0.1215  0.7199
17990SOL    HW254549   3.337   0.380   6.396 -0.1532  0.4691 -1.2815
17991SOL     OW54550   7.516   4.664   1.491  0.0581 -0.0604  0.1055
17991SOL    HW154551   7.487   4.719   1.418  0.7086  1.1371  0.7145
17991SOL    HW254552   7.604   4.635   1.465  1.2851  2.2742  1.3448
17992SOL     OW54553   8.772   0.984   9.644  0.0279 -0.3377 -0.0963
17992SOL    HW154554   8.826   1.057   9.613  0.8184 -1.2264 -0.9114
17992SOL    HW254555   8.827   0.907   9.629 -1.5666 -1.3174 -1.2135
17993SOL     OW54556   6.754   5.079   3.179 -0.2599  0.3437 -0.0767
17993SOL    HW154557   6.683   5.018   3.198 -0.6873  0.8635  0.0301
17993SOL    HW254558   6.770   5.069   3.085 -0.8206  0.5762 -0.2032
17994SOL     OW54559   6.166   9.132   1.155  0.2633 -0.2319  0.6046
17994SOL    HW154560   6.253   9.167   1.142  0.1631  0.1354  0.9020
17994SOL    HW254561   6.177   9.037   1.147  0.3648 -0.0965 -1.1453
17995SOL     OW54562   7.669   4.624   9.184 -0.1955 -0.3685  0.0446
17995SOL    HW154563   7.634   4.712   9.196  1.3360  0.1025  1.3998
17995SOL    HW254564   7.696   4.597   9.272  2.2161 -0.9320 -0.7929
17996SOL     OW54565   4.858   4.334   9.544  0.2050  0.4464 -0.0617
17996SOL    HW154566   4.890   4.395   9.611 -0.3474 -0.8702  1.4623
17996SOL    HW254567   4.937   4.294   9.508  0.4805 -0.6977  1.6636
17997SOL     OW54568   1.980   3.170   3.867  0.0859 -0.4212  0.2015
17997SOL    HW154569   1.892   3.193   3.898 -0.2756 -1.1889 -0.2416
17997SOL    HW254570   2.026   3.254   3.862 -0.5593 -0.0338  0.6203
17998SOL     OW54571   2.069   4.928   9.221  0.0570 -0.2208 -0.1326
17998SOL    HW154572   2.150   4.904   9.176 -0.6125  1.1539 -2.2378
17998SOL    HW254573   2.096   4.992   9.287  0.6522  1.0183 -1.4988
17999SOL     OW54574   2.816   7.797   7.512 -0.0703 -0.4549 -0.2998
17999SOL    HW154575   2.785   7.738   7.444 -2.1725 -0.5349  0.6286
17999SOL    HW254576   2.746   7.862   7.521 -0.5759 -1.2244  2.6355
18000SOL     OW54577   3.331   4.491   1.018 -0.4569  0.1686 -0.4723
18000SOL    HW154578   3.340   4.447   0.933  3.0243  0.5933 -0.4662
18000SOL    HW254579   3.275   4.567   1.000 -1.1193 -0.6345 -1.9797
18001SOL     OW54580   7.174   9.822   4.907  0.2878  0.1845 -0.1800
18001SOL    HW154581   7.204   9.784   4.989 -1.0071 -1.3879 -0.3872
18001SOL    HW254582   7.169   9.916   4.925  0.2805 -0.0960  1.4568
18002SOL     OW54583   0.620   5.058   8.657 -0.1117 -0.1946 -0.1965
18002SOL    HW154584   0.554   4.989   8.667  1.2996 -1.5082  0.5222
18002SOL    HW254585   0.618   5.079   8.563 -0.6832 -1.1019 -0.4034
18003SOL     OW54586   0.195   8.577   8.911 -0.2960 -0.4981  0.3258
18003SOL    HW154587   0.261   8.600   8.846 -0.5755  1.6022  0.6915
18003SOL    HW254588   0.182   8.658   8.961 -2.0930 -1.2608  1.1860
18004SOL     OW54589   1.147   3.733   5.261 -0.0659  0.1360  0.0275
18004SOL    HW154590   1.073   3.729   5.322 -0.5396  0.2174 -0.5371
18004SOL    HW254591   1.124   3.672   5.191  0.9728 -0.7788  0.4604
18005SOL     OW54592   6.419   3.567   5.403  0.3599  0.6046  0.1505
18005SOL    HW154593   6.341   3.534   5.358  1.2886  0.6310 -1.5764
18005SOL    HW254594   6.389   3.590   5.491 -1.3922 -0.1146 -0.2258
18006SOL     OW54595   1.768   3.911   8.789  0.4159  0.3979  0.3375
18006SOL    HW154596   1.778   3.998   8.829 -0.3207  0.2016  0.9628
18006SOL    HW254597   1.857   3.876   8.788  0.4831  0.4774  1.6668
18007SOL     OW54598   2.193   5.896   0.396 -0.5585 -0.0537 -0.6522
18007SOL    HW154599   2.219   5.811   0.359 -0.0618 -1.0328  1.7823
18007SOL    HW254600   2.099   5.887   0.411 -0.6457  0.1227 -1.0686
18008SOL     OW54601   8.606   2.963   1.275 -0.5599 -0.5512 -0.0490
18008SOL    HW154602   8.631   2.938   1.186  0.8359  0.0352  0.1663
18008SOL    HW254603   8.598   3.059   1.272  2.9565 -0.0961  1.2325
18009SOL     OW54604   4.188   8.350   7.881 -0.2420  0.5927  0.0108
18009SOL    HW154605   4.175   8.377   7.972 -0.2123  0.3734  0.0812
18009SOL    HW254606   4.152   8.422   7.829  0.5291  1.1084  0.1878
18010SOL     OW54607   9.896   8.495   2.134  0.4104  0.3434  0.3021
18010SOL    HW154608   9.912   8.440   2.058  1.5975  3.0256 -1.5406
18010SOL    HW254609   9.956   8.463   2.201  2.1534  0.3182 -1.2229
18011SOL     OW54610   4.834   9.451   9.697  0.2106 -0.0814  0.1363
18011SOL    HW154611   4.849   9.364   9.734  0.8591  0.2017  0.5550
18011SOL    HW254612   4.778   9.435   9.621  1.5745 -1.0472 -0.7097
18012SOL     OW54613   3.395   6.114   1.751 -0.1995 -0.1051  0.0141
18012SOL    HW154614   3.418   6.041   1.693 -0.1262  0.7120 -1.0201
18012SOL    HW254615   3.301   6.108   1.762 -0.3114  0.1227 -0.7609
18013SOL     OW54616   5.462   2.842   7.071  0.7273 -0.6288  0.4863
18013SOL    HW154617   5.545   2.833   7.024  0.1961  0.0784 -0.6250
18013SOL    HW254618   5.486   2.889   7.151  1.6482 -1.8818  0.9853
18014SOL     OW54619   5.757   0.033   4.757 -0.2861 -0.6257  0.3580
18014SOL    HW154620   5.836   0.010   4.708  0.3202  1.0653  0.4828
18014SOL    HW254621   5.788   0.084   4.831 -1.4625 -0.3640  0.6890
18015SOL     OW54622   2.670   9.736   0.322 -0.0421 -0.2625 -0.0865
18015SOL    HW154623   2.707   9.670   0.381 -0.9598 -1.1742 -0.4967
18015SOL    HW254624   2.620   9.685   0.258 -0.3143  0.8074 -0.7433
18016SOL     OW54625   9.724   0.333   5.021  0.3876 -0.7192 -0.0806
18016SOL    HW154626   9.760   0.346   5.109  0.9508 -0.5969 -0.3204
18016SOL    HW254627   9.653   0.397   5.014  0.8501 -0.1774  0.0134
18017SOL     OW54628   9.391   0.829   7.206  0.1480  0.5002 -0.2428
18017SOL    HW154629   9.368   0.881   7.129 -5.4561  0.1945  0.8065
18017SOL    HW254630   9.371   0.887   7.280  1.0960 -0.6786  0.9767
18018SOL     OW54631   6.016   0.684   7.769 -0.1079 -0.1912 -0.0775
18018SOL    HW154632   5.920   0.687   7.761 -0.0747 -0.3752 -0.5744
18018SOL    HW254633   6.040   0.772   7.799 -0.4237 -0.1120 -0.0520
18019SOL     OW54634   7.898   4.373   6.379  0.0423 -0.5831 -0.3275
18019SOL    HW154635   7.859   4.322   6.451  0.1293 -1.2946 -0.7746
18019SOL    HW254636   7.839   4.448   6.369 -0.4134 -0.8922 -0.0328
18020SOL     OW54637   9.558   6.320   6.311  0.2805 -0.3629  0.0195
18020SOL    HW154638   9.514   6.235   6.314  1.1003 -0.7752  1.7624
18020SOL    HW254639   9.491   6.383   6.338  0.4144 -0.8693  1.6991
18021SOL     OW54640   7.927   1.271  -0.016 -0.4866 -0.0232 -0.6341
18021SOL    HW154641   8.008   1.277   0.035  0.0953 -1.5377 -1.3211
18021SOL    HW254642   7.861   1.242   0.048 -0.0743 -0.5573 -0.4431
18022SOL     OW54643   1.378   8.023   1.242 -0.1848 -0.2643  0.3149
18022SOL    HW154644   1.301   7.974   1.269  0.8524 -1.1039  1.8802
18022SOL    HW254645   1.443   7.956   1.219  0.3774  0.4180 -0.1512
18023SOL     OW54646   0.055   3.878   0.594  0.1497 -0.1355 -0.1115
18023SOL    HW154647  -0.016   3.931   0.559  0.0900  0.1049  0.3684
18023SOL    HW254648   0.109   3.857   0.518  0.7724  1.5150 -0.1691
18024SOL     OW54649   1.837   8.128   4.364  0.2369  0.2271  0.2807
18024SOL    HW154650   1.828   8.195   4.432 -0.6439  0.0878  0.3030
18024SOL    HW254651   1.889   8.171   4.296  1.3820  0.2804  1.1394
18025SOL     OW54652   5.215   4.833   7.182 -0.2298 -0.3103 -0.0153
18025SOL    HW154653   5.186   4.899   7.119 -0.3680 -0.5990 -0.2603
18025SOL    HW254654   5.145   4.828   7.247 -0.9057 -1.2407 -0.7831
18026SOL     OW54655   6.736   2.050   8.559  0.2756  0.7624 -0.5815
18026SOL    HW154656   6.655   2.090   8.529 -0.8300 -0.1786  0.9758
18026SOL    HW254657   6.713   2.009   8.642  2.3082  0.2762 -0.1980
18027SOL     OW54658   1.746   3.473   2.740  0.0969 -0.3136 -0.0911
18027SOL    HW154659   1.772   3.407   2.804  1.9131  1.8262  1.5680
18027SOL    HW254660   1.652   3.485   2.755  0.5233  0.3679  2.5231
18028SOL     OW54661   5.521   4.239   1.825 -0.5443  0.0457 -0.3181
18028SOL    HW154662   5.430   4.263   1.841 -0.0440  2.8693 -1.2297
18028SOL    HW254663   5.572   4.308   1.867  1.1752 -1.0399 -0.5252
18029SOL     OW54664   3.151   2.950   1.642  0.5045  0.0474 -0.6462
18029SOL    HW154665   3.221   2.953   1.576  0.3143  0.7252 -0.8252
18029SOL    HW254666   3.162   2.865   1.685 -0.1693 -0.9929 -2.4216
18030SOL     OW54667   5.300   8.015   1.214 -0.5441 -0.0449 -0.2612
18030SOL    HW154668   5.245   8.073   1.267 -0.8781 -1.2450  0.7338
18030SOL    HW254669   5.239   7.962   1.163 -0.3713 -1.6640  1.1463
18031SOL     OW54670   5.972   0.295   1.480 -0.2648 -0.3811  0.2995
18031SOL    HW154671   5.960   0.277   1.387  1.8019  0.1833 -0.1116
18031SOL    HW254672   6.006   0.214   1.516  1.6680  0.2322 -0.0400
18032SOL     OW54673   7.835   3.292   7.376 -0.2678  0.3024 -0.2744
18032SOL    HW154674   7.780   3.258   7.446  1.2634 -0.4678  0.6110
18032SOL    HW254675   7.856   3.381   7.403  0.8619 -0.2188  0.6021
18033SOL     OW54676   8.383   7.810   5.516  0.1386  0.2539 -0.2002
18033SOL    HW154677   8.372   7.901   5.545  0.7889  0.2676  0.0200
18033SOL    HW254678   8.323   7.760   5.570  1.0802  0.3256  0.9551
18034SOL     OW54679   6.333   0.415   8.067  0.0239 -0.3738  0.0045
18034SOL    HW154680   6.266   0.445   8.005 -1.2350 -0.0542  1.4822
18034SOL    HW254681   6.372   0.496   8.101  0.8440 -0.5511 -0.4745
18035SOL     OW54682   5.682   9.140   6.319  0.6766 -0.0245  0.0678
18035SOL    HW154683   5.692   9.101   6.406  0.3721  1.2915  0.7128
18035SOL    HW254684   5.671   9.065   6.261  1.2086 -0.9492  1.1082
18036SOL     OW54685   4.724   2.216   7.338  0.0050  0.1679  0.1611
18036SOL    HW154686   4.756   2.206   7.427 -1.5958 -0.4669  0.7075
18036SOL    HW254687   4.682   2.132   7.318 -0.1178  0.4817 -1.0062
18037SOL     OW54688   2.303   5.051   5.225 -0.0626 -0.2182  0.1634
18037SOL    HW154689   2.242   5.052   5.299  1.6815  1.2955  1.6665
18037SOL    HW254690   2.304   5.142   5.193 -0.4262 -0.7476 -1.4483
18038SOL     OW54691   2.314   7.581   7.227  0.5131  0.1621 -0.2506
18038SOL    HW154692   2.228   7.542   7.245 -1.9587  4.6100 -1.1178
18038SOL    HW254693   2.343   7.614   7.312  0.9142 -0.4080 -0.1569
18039SOL     OW54694   0.224   7.783   5.339 -0.4899  0.5096 -0.1593
18039SOL    HW154695   0.231   7.702   5.390 -0.7431 -0.0484 -0.9907
18039SOL    HW254696   0.259   7.850   5.397  0.9384 -0.3868  0.0752
18040SOL     OW54697   1.495   9.602   0.642  0.2957 -0.5237 -0.3552
18040SOL    HW154698   1.488   9.575   0.734 -1.0989 -0.6837 -0.4884
18040SOL    HW254699   1.470   9.695   0.644 -0.3230 -0.6793 -0.6402
18041SOL     OW54700   1.706   6.151   3.159 -0.1248 -0.2081 -0.3682
18041SOL    HW154701   1.737   6.232   3.119 -0.5090  0.9822  1.6086
18041SOL    HW254702   1.672   6.178   3.244  1.6134 -2.7276  1.2522
18042SOL     OW54703   7.640   4.745   0.024 -0.3377 -0.3493 -0.1494
18042SOL    HW154704   7.640   4.692   0.104  1.1895  0.9218  0.7378
18042SOL    HW254705   7.547   4.762   0.007 -0.6649  0.6103  2.2321
18043SOL     OW54706   2.321   0.319   4.067  0.3998  0.1973 -0.1661
18043SOL    HW154707   2.281   0.240   4.030 -0.1307  0.7121 -0.7097
18043SOL    HW254708   2.335   0.297   4.159 -0.8283 -0.1195 -0.0354
18044SOL     OW54709   0.026   7.988   9.833  0.1039 -0.3325 -0.2350
18044SOL    HW154710   0.054   8.042   9.759 -0.4558 -0.6734 -0.7082
18044SOL    HW254711  -0.068   8.006   9.841  0.0657 -0.6553  0.0895
18045SOL     OW54712   8.517   4.996   8.275  0.0764  0.0079  0.8836
18045SOL    HW154713   8.600   4.964   8.310 -0.0450 -0.8339  0.4233
18045SOL    HW254714   8.505   4.948   8.193 -0.2429  1.0430  0.3016
18046SOL     OW54715   8.064   3.281   2.200 -0.0191  0.0061  0.0749
18046SOL    HW154716   8.094   3.279   2.291 -0.3166  1.6766  0.2289
18046SOL    HW254717   8.144   3.289   2.149  0.0918 -0.1426  0.2205
18047SOL     OW54718   4.876   1.224   6.447 -0.5765 -0.5152  0.5999
18047SOL    HW154719   4.951   1.193   6.498 -0.1224 -2.7179 -1.2240
18047SOL    HW254720   4.813   1.254   6.512  0.8463 -1.0832  2.3162
18048SOL     OW54721   7.673   9.266   0.501 -0.3288 -0.5055  0.5613
18048SOL    HW154722   7.603   9.320   0.465 -1.3840 -1.4155  1.1955
18048SOL    HW254723   7.658   9.266   0.596  0.9366 -0.1658  0.7839
18049SOL     OW54724   5.877   8.476   2.656  0.2214 -0.1093 -0.0546
18049SOL    HW154725   5.956   8.522   2.626  0.0395  0.3097  0.1059
18049SOL    HW254726   5.852   8.522   2.736  0.4369 -0.9233  0.4954
18050SOL     OW54727   3.837   1.535   1.441 -0.2219  0.2447  0.1965
18050SOL    HW154728   3.867   1.625   1.428  2.2288 -0.4768  0.3226
18050SOL    HW254729   3.877   1.485   1.370 -2.4595 -0.6162 -0.5441
18051SOL     OW54730   0.468   6.729   6.689  0.3480  0.3684 -0.1185
18051SOL    HW154731   0.554   6.690   6.703  0.5803  1.4325  1.8391
18051SOL    HW254732   0.409   6.675   6.743 -0.1673 -0.1021 -1.1208
18052SOL     OW54733   4.084   7.149   8.084 -0.3240  0.0076  0.9188
18052SOL    HW154734   4.040   7.064   8.079  1.3337 -0.8241 -1.7146
18052SOL    HW254735   4.026   7.209   8.037 -0.0426 -0.4221 -0.0010
18053SOL     OW54736   5.617   0.964   2.839  0.0676  0.3027 -0.1140
18053SOL    HW154737   5.696   1.018   2.848  1.0896 -1.0950 -0.3089
18053SOL    HW254738   5.650   0.874   2.835 -1.3161 -0.1781 -2.9354
18054SOL     OW54739   2.163   4.177   5.086  0.3848  0.3044 -0.2473
18054SOL    HW154740   2.217   4.099   5.091  0.7567  0.3776 -2.2215
18054SOL    HW254741   2.077   4.145   5.057  0.3261  0.5493 -0.3483
18055SOL     OW54742   3.869   4.178   4.339 -0.5921 -0.5787 -0.0100
18055SOL    HW154743   3.854   4.265   4.302  3.2201  0.1485 -0.2744
18055SOL    HW254744   3.860   4.118   4.265  1.0255  0.1800 -0.8786
18056SOL     OW54745   0.626   1.203   7.087 -0.0265 -0.0176 -0.2269
18056SOL    HW154746   0.623   1.171   6.996 -0.9731  0.3188 -0.3275
18056SOL    HW254747   0.717   1.192   7.113 -0.0139 -1.4280 -0.7489
18057SOL     OW54748   3.843   8.881   9.808 -0.6901  0.2826  0.8408
18057SOL    HW154749   3.793   8.962   9.800 -1.0905  0.0276  0.7188
18057SOL    HW254750   3.859   8.872   9.902 -1.1925  0.1795  0.9183
18058SOL     OW54751   2.337   5.315   6.895  0.5590 -0.3364  0.6660
18058SOL    HW154752   2.405   5.252   6.869 -0.8717 -1.9749  0.6864
18058SOL    HW254753   2.275   5.314   6.822 -1.2567 -1.6542  2.1331
18059SOL     OW54754   2.523   6.490   9.421 -0.0008 -0.1335  0.3438
18059SOL    HW154755   2.462   6.417   9.432  1.6894 -1.6513  0.1949
18059SOL    HW254756   2.484   6.544   9.353 -1.6773 -0.4675  0.9838
18060SOL     OW54757   8.462   7.181   2.578  0.1627 -0.1478  0.3168
18060SOL    HW154758   8.461   7.085   2.573 -0.8713 -0.0850 -1.2583
18060SOL    HW254759   8.552   7.203   2.602  0.7376 -1.4796 -0.5133
18061SOL     OW54760   8.795   4.285   6.942 -0.4698  0.3141  0.6153
18061SOL    HW154761   8.889   4.270   6.929 -0.4524 -0.5874  1.6891
18061SOL    HW254762   8.785   4.380   6.937  0.4921  0.4160  0.4406
18062SOL     OW54763   0.903   7.020   8.685  0.2906  0.0641 -0.1242
18062SOL    HW154764   0.958   6.991   8.757  1.0874 -0.0302 -0.7556
18062SOL    HW254765   0.928   7.112   8.670  0.3729 -0.0162 -0.4948
18063SOL     OW54766   3.486   8.726   3.753  0.0786  0.6470 -0.1962
18063SOL    HW154767   3.392   8.713   3.737  0.2921 -1.2663 -0.1653
18063SOL    HW254768   3.519   8.638   3.773  1.2196  1.7392  3.5044
18064SOL     OW54769   3.307   2.340   6.841  0.6427 -0.2734  0.1293
18064SOL    HW154770   3.221   2.300   6.852 -1.1230  3.4685  1.5485
18064SOL    HW254771   3.358   2.308   6.915 -0.5143 -0.2861  0.9417
18065SOL     OW54772   9.376   7.476   8.246 -0.0038  0.1158 -0.6102
18065SOL    HW154773   9.327   7.476   8.328 -1.4673  0.7405 -1.4588
18065SOL    HW254774   9.341   7.550   8.197  1.4228  0.2398 -1.4832
18066SOL     OW54775   4.398   1.191   2.969 -0.3146  0.3468  0.5918
18066SOL    HW154776   4.332   1.259   2.959  1.3019  1.8448 -0.6113
18066SOL    HW254777   4.467   1.215   2.907  1.1034 -1.4532  1.3609
18067SOL     OW54778   9.902   2.397   0.809 -0.6056 -0.3203  0.0740
18067SOL    HW154779   9.955   2.348   0.746 -1.0168  0.0924 -0.6072
18067SOL    HW254780   9.966   2.442   0.864 -0.2253  0.5477 -1.0374
18068SOL     OW54781   6.035   9.849   9.092 -0.2995 -0.0179  0.2922
18068SOL    HW154782   5.995   9.895   9.018  1.4177  0.5303 -0.3304
18068SOL    HW254783   5.979   9.773   9.106 -0.6001 -0.1852 -1.6294
18069SOL     OW54784   6.763   3.721   0.193  0.0202 -0.4469  0.5287
18069SOL    HW154785   6.757   3.710   0.098 -0.0638  0.0578  0.4748
18069SOL    HW254786   6.817   3.648   0.222  0.0683 -0.5882  0.0882
18070SOL     OW54787   4.769   7.074   9.128  0.2592 -0.3296  0.1216
18070SOL    HW154788   4.860   7.055   9.105  0.1378  0.2392 -0.8542
18070SOL    HW254789   4.771   7.163   9.162 -0.3012  0.7038 -2.3655
18071SOL     OW54790   6.302   6.956   6.820  0.4892 -0.1182 -0.4461
18071SOL    HW154791   6.312   7.035   6.766 -2.8236  1.1041  0.5207
18071SOL    HW254792   6.215   6.924   6.799  0.7074 -1.9782  1.2418
18072SOL     OW54793   0.668   4.681   0.247  0.2997  0.0669 -0.0554
18072SOL    HW154794   0.704   4.666   0.335  0.3586  0.0106 -0.0890
18072SOL    HW254795   0.617   4.761   0.256 -0.8953 -0.7150  0.3855
18073SOL     OW54796   3.037   3.423   3.708 -0.3730  0.2413 -0.3811
18073SOL    HW154797   3.041   3.516   3.685 -0.0246  0.2642 -0.2348
18073SOL    HW254798   3.047   3.377   3.625 -2.9114  0.3244 -0.8192
18074SOL     OW54799   5.019   3.173   4.025 -0.6388 -0.9930  0.7027
18074SOL    HW154800   4.960   3.150   4.097 -0.3731 -1.6149  0.7250
18074SOL    HW254801   4.972   3.146   3.946 -2.3438  2.4806  0.3232
18075SOL     OW54802   7.187   0.562   7.475  0.1857  0.4401  0.0713
18075SOL    HW154803   7.093   0.548   7.486  0.2782  0.1938  0.5957
18075SOL    HW254804   7.203   0.647   7.516  0.6111 -0.6940  2.4756
18076SOL     OW54805   0.553   9.294   6.149  0.1730 -0.0044 -0.3497
18076SOL    HW154806   0.469   9.285   6.104 -1.5545  2.1501  2.1436
18076SOL    HW254807   0.568   9.388   6.153  1.4862 -0.2423  1.3317
18077SOL     OW54808   7.137   3.254   1.242 -0.5641  0.2178  0.7035
18077SOL    HW154809   7.098   3.168   1.256 -1.7387 -0.1964 -3.6243
18077SOL    HW254810   7.066   3.316   1.255 -0.6402  0.1847  0.4570
18078SOL     OW54811   8.045   2.214   4.204 -0.1153 -0.0176 -0.0403
18078SOL    HW154812   7.961   2.180   4.235 -0.8396  1.9416  0.3181
18078SOL    HW254813   8.022   2.267   4.128  0.8908  0.0621 -0.2966
18079SOL     OW54814   4.421   1.801   9.059  0.1444 -0.3454 -0.4288
18079SOL    HW154815   4.508   1.788   9.097  0.0136 -1.1251 -0.3921
18079SOL    HW254816   4.427   1.760   8.972 -0.2866 -0.7035 -0.2916
18080SOL     OW54817   0.546   5.200   7.194 -0.2855 -0.5058  0.3848
18080SOL    HW154818   0.482   5.266   7.222  1.6528  2.0722 -0.7898
18080SOL    HW254819   0.505   5.157   7.118 -1.1423  0.1723  0.4462
18081SOL     OW54820   7.754   1.839   8.704 -0.1478  0.3741 -0.2478
18081SOL    HW154821   7.665   1.807   8.689 -0.1359  1.1898 -2.5252
18081SOL    HW254822   7.810   1.776   8.658  0.1409  1.6601 -1.7371
18082SOL     OW54823   9.188   0.774   5.319 -0.0044  0.2152 -0.2187
18082SOL    HW154824   9.092   0.770   5.326  0.0365  0.8100  0.9178
18082SOL    HW254825   9.206   0.862   5.288  0.2301  0.8230  1.5087
18083SOL     OW54826   0.408   8.870   5.266 -0.6678 -0.2303 -0.2389
18083SOL    HW154827   0.409   8.775   5.262 -0.7501 -0.6499  4.3663
18083SOL    HW254828   0.500   8.896   5.260 -0.2417 -1.0206  2.0064
18084SOL     OW54829   2.174   8.831   0.660  0.5430  0.1018 -0.1230
18084SOL    HW154830   2.139   8.806   0.746  0.7294 -0.1837 -0.1272
18084SOL    HW254831   2.232   8.904   0.678  1.8086 -0.9481  0.2255
18085SOL     OW54832   2.286   5.656   4.963  0.1039  0.3259  0.3812
18085SOL    HW154833   2.250   5.679   4.877 -0.4086  2.2633  1.0566
18085SOL    HW254834   2.222   5.594   4.999  0.9977 -1.5712 -1.1038
18086SOL     OW54835   5.676   5.702   6.272  0.2351  0.3939  0.0859
18086SOL    HW154836   5.592   5.736   6.305 -0.4637 -1.4699  0.3586
18086SOL    HW254837   5.651   5.635   6.209  1.5080 -0.4892  0.4839
18087SOL     OW54838   3.485   5.197   9.187  0.1856 -0.0140 -0.2721
18087SOL    HW154839   3.545   5.207   9.113  0.3870  0.2553 -0.0722
18087SOL    HW254840   3.541   5.184   9.263  0.0189  1.0097  0.0385
18088SOL     OW54841   4.120   7.226   8.364 -0.1776  0.0801  0.5230
18088SOL    HW154842   4.050   7.278   8.404  0.1564  1.0254 -0.0870
18088SOL    HW254843   4.088   7.207   8.276  0.4478  0.7851  0.1343
18089SOL     OW54844   3.352   5.113   4.796  0.3301 -0.0706 -0.0071
18089SOL    HW154845   3.360   5.167   4.875  1.7311 -0.0932 -0.1114
18089SOL    HW254846   3.267   5.136   4.760  0.5110  1.4194  0.4376
18090SOL     OW54847   8.035   4.184   5.883 -0.1455  0.1846  0.2702
18090SOL    HW154848   8.010   4.208   5.972  0.3555  0.1023  0.4355
18090SOL    HW254849   8.129   4.198   5.879  0.2756 -2.1550  0.5323
18091SOL     OW54850   9.637   9.672   0.758  0.0760  0.7327 -0.1611
18091SOL    HW154851   9.550   9.648   0.727 -0.4330  1.3099  0.7613
18091SOL    HW254852   9.620   9.726   0.835  1.2722  0.0214  0.6256
18092SOL     OW54853   7.385   6.611   3.695  0.3553  0.6036  0.1351
18092SOL    HW154854   7.300   6.568   3.695  0.7258 -0.1671  1.6411
18092SOL    HW254855   7.448   6.541   3.706  0.9956  1.4106  2.1629
18093SOL     OW54856   6.372   8.408   8.856  0.4382 -0.4962  0.0218
18093SOL    HW154857   6.354   8.492   8.898  1.9720 -0.2138  0.2028
18093SOL    HW254858   6.288   8.363   8.854 -0.2705  0.7517  0.5769
18094SOL     OW54859   8.837   1.051   5.542  0.5632 -0.0679 -0.4207
18094SOL    HW154860   8.769   1.114   5.568  0.0222 -1.2655  1.2102
18094SOL    HW254861   8.867   1.013   5.624  1.4884 -1.3163 -1.3024
18095SOL     OW54862   1.478   3.440   3.491  0.0121 -0.0770  0.1768
18095SOL    HW154863   1.517   3.404   3.571  1.0213  2.2878  0.8304
18095SOL    HW254864   1.540   3.416   3.422 -0.5159 -1.5350  0.1812
18096SOL     OW54865   0.036   8.186   8.115  0.3899 -0.4985  0.4704
18096SOL    HW154866  -0.024   8.149   8.051 -0.8766 -0.9228  1.8551
18096SOL    HW254867   0.056   8.113   8.174  1.4908 -0.1042  0.6128
18097SOL     OW54868   5.303   1.651   9.616  0.0492  0.2373  0.1597
18097SOL    HW154869   5.367   1.588   9.584  0.3004  0.5959 -0.0445
18097SOL    HW254870   5.325   1.663   9.708 -1.9137 -2.3587  1.1239
18098SOL     OW54871   4.841   0.271   7.957  0.5075 -0.1141  0.4473
18098SOL    HW154872   4.815   0.301   8.044  1.1778  0.5143  0.4457
18098SOL    HW254873   4.936   0.285   7.954  0.3851  0.6284 -0.6620
18099SOL     OW54874   6.221   0.611   9.331 -0.5583  0.5757 -0.2531
18099SOL    HW154875   6.288   0.639   9.269 -1.0130  0.0289 -1.0201
18099SOL    HW254876   6.229   0.671   9.405  2.0656 -0.6373  0.5865
18100SOL     OW54877   2.525   6.720   7.895 -0.2421  0.2094 -0.1988
18100SOL    HW154878   2.580   6.653   7.852 -1.3454 -0.8847  0.0448
18100SOL    HW254879   2.441   6.714   7.851 -0.6741  0.7364  0.5341
18101SOL     OW54880   9.595   8.079   9.784  0.1049 -0.2888 -0.0597
18101SOL    HW154881   9.557   8.060   9.698  0.2280  0.0725 -0.1943
18101SOL    HW254882   9.644   8.000   9.806  1.8436  0.3912 -1.2787
18102SOL     OW54883   4.078   3.691   5.901 -0.1000  0.2144 -0.2100
18102SOL    HW154884   4.020   3.631   5.854  1.1604 -0.7197 -0.6116
18102SOL    HW254885   4.118   3.638   5.970  1.1362  0.5255 -0.6569
18103SOL     OW54886   2.374   2.674   1.503  0.0276 -0.0245  0.0067
18103SOL    HW154887   2.283   2.698   1.517  0.7252  1.6086  2.2804
18103SOL    HW254888   2.386   2.680   1.408 -1.4650  2.9470 -0.1009
18104SOL     OW54889   0.019   1.826   6.991  0.0732 -0.1332 -0.1467
18104SOL    HW154890   0.030   1.883   7.067  2.0265 -0.0999 -0.4105
18104SOL    HW254891   0.108   1.804   6.963 -0.6032 -1.4041 -1.4962
18105SOL     OW54892   5.869   7.455   0.526  0.0935 -0.2113 -0.1661
18105SOL    HW154893   5.933   7.500   0.471 -0.1119 -1.8989 -1.9068
18105SOL    HW254894   5.919   7.387   0.570 -0.2297 -0.6456 -0.4568
18106SOL     OW54895   3.933   6.608   0.206 -0.4794 -0.0003  0.5862
18106SOL    HW154896   3.971   6.533   0.251  0.0022  0.0719  0.3136
18106SOL    HW254897   3.839   6.599   0.218 -0.4357 -0.7330  0.4333
18107SOL     OW54898   2.614   7.636   4.235 -0.4602  0.4743 -0.2707
18107SOL    HW154899   2.634   7.559   4.289 -2.1384  0.5713  0.5490
18107SOL    HW254900   2.622   7.710   4.295  0.1376  0.8501 -0.8073
18108SOL     OW54901   3.291   1.509   9.663 -0.5148  0.2316  0.6813
18108SOL    HW154902   3.243   1.487   9.744  0.9666 -0.2005  1.4706
18108SOL    HW254903   3.225   1.550   9.608 -1.6504  0.2660  1.9885
18109SOL     OW54904   7.773   9.487   4.329  0.0493 -0.4951  0.4279
18109SOL    HW154905   7.859   9.451   4.308 -0.1035 -2.1174  2.2608
18109SOL    HW254906   7.785   9.582   4.322  1.2936 -0.7394 -1.6889
18110SOL     OW54907   6.850   1.413   3.513 -0.2511 -0.3051 -0.4877
18110SOL    HW154908   6.929   1.359   3.513  0.1154  0.2287 -0.5344
18110SOL    HW254909   6.816   1.405   3.424  1.9379  2.6139 -1.7193
18111SOL     OW54910   3.046   9.654   0.911  0.3117 -0.3327 -0.4965
18111SOL    HW154911   3.082   9.738   0.884  1.0034 -0.3586  0.3043
18111SOL    HW254912   3.104   9.590   0.869  2.1433 -0.3784  1.8617
18112SOL     OW54913   9.312   1.427   7.482  0.4529  0.8997 -0.0908
18112SOL    HW154914   9.260   1.451   7.558  2.2157  0.7396  1.2190
18112SOL    HW254915   9.264   1.354   7.443 -0.0217  0.3782  1.4048
18113SOL     OW54916   9.676   5.966   2.705 -0.0006  0.4798  0.0578
18113SOL    HW154917   9.668   5.987   2.612  0.4469 -1.2542 -0.3980
18113SOL    HW254918   9.769   5.981   2.725  0.1912 -0.4445 -0.1197
18114SOL     OW54919   1.417   6.323   0.362  0.0101  0.1328 -0.2938
18114SOL    HW154920   1.476   6.377   0.310  2.7827 -1.8449  0.5215
18114SOL    HW254921   1.413   6.367   0.447  1.9729 -0.6651  0.2606
18115SOL     OW54922   7.417   9.096   2.258 -0.1915  0.0328  0.0739
18115SOL    HW154923   7.418   9.190   2.276 -0.8040 -0.0361  0.4975
18115SOL    HW254924   7.329   9.080   2.224 -1.0020 -0.8282  2.4392
18116SOL     OW54925   8.526   3.189   9.447  0.5447 -0.8185 -0.5208
18116SOL    HW154926   8.449   3.133   9.436  0.9184 -1.1240 -1.7119
18116SOL    HW254927   8.572   3.151   9.522 -0.1780 -0.9666 -0.1464
18117SOL     OW54928   7.337   6.095   7.498  0.1144 -0.1672  0.0758
18117SOL    HW154929   7.254   6.104   7.450  0.8542  2.0131 -0.9163
18117SOL    HW254930   7.328   6.156   7.572 -0.0664 -1.7404  1.4291
18118SOL     OW54931   5.883   7.014   3.581 -0.1766  0.1510 -0.2052
18118SOL    HW154932   5.947   6.953   3.618 -0.2683  0.7655  1.0272
18118SOL    HW254933   5.933   7.069   3.521  0.7326  1.3483  1.5667
18119SOL     OW54934   4.646   3.381   1.178  0.0437  1.1502  0.5090
18119SOL    HW154935   4.653   3.473   1.202  0.9941  1.5371 -1.0713
18119SOL    HW254936   4.560   3.354   1.211  0.2084  2.2836  1.9513
18120SOL     OW54937   7.697   6.077   3.306  0.0953 -0.2029  0.4023
18120SOL    HW154938   7.791   6.062   3.315  0.1180  0.8451  2.6030
18120SOL    HW254939   7.673   6.126   3.385 -2.1196  0.4624 -0.6068
18121SOL     OW54940   9.097   4.526   4.267 -0.4315 -0.4888 -0.0602
18121SOL    HW154941   9.097   4.487   4.354  0.4637  0.7522  0.5315
18121SOL    HW254942   9.007   4.552   4.252 -1.1830 -3.1341 -0.6904
18122SOL     OW54943   8.211   1.886   0.104  0.1151  0.2330  0.0087
18122SOL    HW154944   8.248   1.799   0.087 -0.2963  0.0039  0.2826
18122SOL    HW254945   8.259   1.917   0.182 -0.1471  0.0075  0.2610
18123SOL     OW54946  10.002   6.697   5.171  0.3487 -0.0579 -0.2340
18123SOL    HW154947   9.927   6.682   5.229  0.9883 -0.7659  0.4232
18123SOL    HW254948  10.006   6.792   5.161 -0.5142 -0.0016 -0.1109
18124SOL     OW54949   3.595   1.111   1.649  0.4331 -0.4788 -0.0109
18124SOL    HW154950   3.616   1.046   1.716  0.0539 -0.5025  0.0878
18124SOL    HW254951   3.670   1.108   1.589  1.2836  0.3135  0.9796
18125SOL     OW54952   2.933   1.039   3.137  0.3731  0.1643  0.1099
18125SOL    HW154953   2.882   1.045   3.218  0.2386  0.6779 -0.0088
18125SOL    HW254954   2.962   0.948   3.134  1.6729  0.4924  1.5038
18126SOL     OW54955   5.638   2.795   0.941  0.0641  0.3465 -0.2216
18126SOL    HW154956   5.637   2.891   0.941  0.2754  0.4089 -2.3949
18126SOL    HW254957   5.611   2.771   0.852  2.2373 -1.5689 -0.4500
18127SOL     OW54958   1.453   2.956   0.284 -0.3938  0.1716  0.1552
18127SOL    HW154959   1.422   2.944   0.194 -0.4800 -0.9559  0.3243
18127SOL    HW254960   1.524   2.893   0.293 -0.0768  0.6069  0.7360
18128SOL     OW54961   5.652   5.209   2.995 -0.4120 -0.2066 -0.1201
18128SOL    HW154962   5.623   5.183   2.907  0.5382 -0.8141 -0.2599
18128SOL    HW254963   5.707   5.286   2.980  3.0889 -2.5985 -0.5480
18129SOL     OW54964   5.580   2.530   1.339 -0.0004  0.1629 -0.1334
18129SOL    HW154965   5.628   2.450   1.316  0.4977 -0.0606  1.5609
18129SOL    HW254966   5.648   2.592   1.363 -0.3830  1.1565 -1.5128
18130SOL     OW54967   3.864   6.960   4.580 -0.1906 -0.3602 -0.7003
18130SOL    HW154968   3.958   6.952   4.562  0.1662  1.4330  0.1254
18130SOL    HW254969   3.842   7.050   4.555 -1.6442 -0.6733 -0.6506
18131SOL     OW54970   8.013   6.821   9.403  0.3504 -0.0811 -0.4907
18131SOL    HW154971   8.036   6.870   9.324 -2.4982  1.7254 -0.3394
18131SOL    HW254972   7.975   6.739   9.371  1.9395 -0.6972 -0.8562
18132SOL     OW54973   0.565   9.084   9.617  0.1435  0.6519 -0.1215
18132SOL    HW154974   0.598   8.997   9.597  0.9503  1.3208 -1.8493
18132SOL    HW254975   0.606   9.142   9.553 -3.3278  1.7521 -1.6420
18133SOL     OW54976   5.978   0.310   3.789  0.4952  0.0611  0.0655
18133SOL    HW154977   6.068   0.342   3.778  0.8465 -1.0723 -0.5026
18133SOL    HW254978   5.985   0.216   3.776 -0.7387 -0.0773  0.3413
18134SOL     OW54979   4.629   1.615   3.893  0.0576  0.1892  0.3336
18134SOL    HW154980   4.683   1.683   3.933  0.1798  0.0233  0.4484
18134SOL    HW254981   4.621   1.643   3.801  0.3399  0.2118  0.3159
18135SOL     OW54982   4.777   0.766   5.242 -0.3525  0.5076  0.0467
18135SOL    HW154983   4.771   0.724   5.328 -1.3034 -0.5541 -0.5132
18135SOL    HW254984   4.709   0.832   5.243 -1.2209 -0.3504 -0.3140
18136SOL     OW54985   3.690   7.352   8.892 -0.3744  0.4844 -0.0514
18136SOL    HW154986   3.707   7.321   8.804  0.6211  0.7261  0.0416
18136SOL    HW254987   3.749   7.302   8.948 -0.6080  0.7150  0.4136
18137SOL     OW54988   7.187   7.371   1.900 -0.1506 -0.0559 -0.0394
18137SOL    HW154989   7.171   7.401   1.810 -0.3087  2.3672  0.7246
18137SOL    HW254990   7.187   7.276   1.894 -1.5131  0.0180 -2.3757
18138SOL     OW54991   9.400   0.416   5.670 -0.1408  0.2695  0.8821
18138SOL    HW154992   9.394   0.503   5.631  2.9222  0.7404  1.2518
18138SOL    HW254993   9.355   0.359   5.608  0.9465  1.6124 -1.2353
18139SOL     OW54994   0.473   8.045   7.857 -0.0415 -0.3980  0.0098
18139SOL    HW154995   0.419   8.124   7.850  0.1310 -0.2458  0.3488
18139SOL    HW254996   0.562   8.078   7.859  0.0126 -0.5664  0.6262
18140SOL     OW54997   0.571   2.726   9.361  0.3789  0.0698 -0.8442
18140SOL    HW154998   0.490   2.765   9.327  0.8109  1.2151 -0.6215
18140SOL    HW254999   0.553   2.632   9.366 -1.6676  0.5006  1.1995
18141SOL     OW55000   3.347   5.137   3.505  0.1424 -0.0376 -0.3948
18141SOL    HW155001   3.272   5.082   3.528 -0.5466  1.1444  0.2171
18141SOL    HW255002   3.323   5.176   3.421  0.2431  0.0482 -0.3832
18142SOL     OW55003   3.613   3.432   9.230  0.5788 -0.1306 -0.4490
18142SOL    HW155004   3.646   3.474   9.310  1.2271 -0.6602 -0.4315
18142SOL    HW255005   3.619   3.338   9.247  1.8643 -0.2927 -1.5392
18143SOL     OW55006   2.167   1.583   2.545 -0.3194 -0.1340  0.0315
18143SOL    HW155007   2.214   1.663   2.568 -1.4208 -0.1554  2.6387
18143SOL    HW255008   2.077   1.612   2.530 -0.5591 -0.7711  0.2075
18144SOL     OW55009   6.339   4.522   2.200  0.4014 -0.3985  0.8890
18144SOL    HW155010   6.303   4.440   2.236 -1.6479  0.1112  0.1375
18144SOL    HW255011   6.409   4.545   2.261 -0.4492 -1.5456  2.4007
18145SOL     OW55012   3.793   5.217   0.749  0.2372 -0.9543  0.2507
18145SOL    HW155013   3.718   5.157   0.743  1.2393 -2.4145  1.3958
18145SOL    HW255014   3.814   5.220   0.842  1.3993 -0.3364 -0.0056
18146SOL     OW55015   3.505   3.036   7.509  0.0446  0.3830  0.7184
18146SOL    HW155016   3.498   2.954   7.461 -1.6678 -0.7089  2.6644
18146SOL    HW255017   3.599   3.056   7.508  0.4423 -1.3285 -0.2072
18147SOL     OW55018   1.122   3.789   3.932 -0.2275 -0.0860 -0.5737
18147SOL    HW155019   1.070   3.733   3.874 -1.1727 -0.1257  0.2850
18147SOL    HW255020   1.114   3.748   4.018 -0.1257  0.8294 -0.1152
18148SOL     OW55021   8.812   2.553   6.980  0.0630 -0.2507 -0.4596
18148SOL    HW155022   8.729   2.532   7.022  1.1543 -2.7323  0.6833
18148SOL    HW255023   8.823   2.485   6.913  1.4105 -0.3305 -0.1829
18149SOL     OW55024   7.396   7.495   5.709  0.4407 -0.3067 -0.6900
18149SOL    HW155025   7.402   7.410   5.752 -1.1920 -0.9001 -1.5633
18149SOL    HW255026   7.321   7.487   5.649 -0.8305  2.2683  0.4124
18150SOL     OW55027   6.054   1.960   4.548  0.0683 -0.6117  0.6794
18150SOL    HW155028   6.033   1.875   4.509  1.6536 -0.1805 -1.2566
18150SOL    HW255029   6.049   2.022   4.475 -3.1966  1.4428  2.4061
18151SOL     OW55030   3.455   7.345   8.162 -0.1956  0.5809 -0.0960
18151SOL    HW155031   3.415   7.366   8.078 -1.9065 -0.6638  0.3545
18151SOL    HW255032   3.502   7.263   8.147  0.5501  1.0042 -0.1268
18152SOL     OW55033   2.299   0.383   9.205 -0.0762 -0.0474  0.1653
18152SOL    HW155034   2.267   0.308   9.256 -1.8454 -0.0201 -0.8114
18152SOL    HW255035   2.256   0.374   9.120 -1.0575  2.5144  0.2929
18153SOL     OW55036   1.212   9.836   9.814  0.3156  0.1423  0.0811
18153SOL    HW155037   1.223   9.793   9.729 -1.0679  0.3537 -0.2274
18153SOL    HW255038   1.230   9.768   9.878 -2.8826 -1.3266 -0.3794
18154SOL     OW55039   0.052   9.357   0.214 -0.4723  0.3874  0.2897
18154SOL    HW155040   0.076   9.341   0.306 -1.0266  1.4855  0.6485
18154SOL    HW255041   0.136   9.356   0.168 -0.1762 -0.1018  0.8169
18155SOL     OW55042   2.315   8.870   1.743 -0.4794 -0.3021  0.2529
18155SOL    HW155043   2.287   8.821   1.666  1.8796 -1.1137 -0.1784
18155SOL    HW255044   2.399   8.909   1.717 -0.6958  1.2495  1.7039
18156SOL     OW55045   2.448   6.424   8.690  0.3450  0.2390  0.0708
18156SOL    HW155046   2.455   6.409   8.784  0.5994 -0.5764 -0.0646
18156SOL    HW255047   2.392   6.501   8.681 -3.3414 -2.1057  0.8084
18157SOL     OW55048   8.452   2.431   9.801  0.4151  0.1669 -0.1380
18157SOL    HW155049   8.511   2.505   9.787 -0.0721  0.5760 -0.0242
18157SOL    HW255050   8.468   2.404   9.892 -0.0065  0.6570  0.0819
18158SOL     OW55051   3.353   1.837   0.467 -0.3538  0.4770  0.0188
18158SOL    HW155052   3.419   1.844   0.536 -0.6930 -0.8287  0.5077
18158SOL    HW255053   3.403   1.840   0.386  0.3749 -0.9260  0.3934
18159SOL     OW55054   7.066   1.137   2.453 -0.3243 -0.2961  0.0451
18159SOL    HW155055   7.022   1.074   2.511  0.6316  0.8379  2.1290
18159SOL    HW255056   7.155   1.142   2.487 -0.1025  1.4406 -0.6823
18160SOL     OW55057   4.944   0.355   5.752  0.0209 -0.2870 -0.2361
18160SOL    HW155058   4.996   0.325   5.826  0.3682 -1.4221 -0.9226
18160SOL    HW255059   4.958   0.450   5.750 -1.0540 -0.0063  1.9418
18161SOL     OW55060   9.322   2.197   4.310  0.1000 -0.2183 -0.5453
18161SOL    HW155061   9.347   2.171   4.399 -0.8410  0.7788  0.0423
18161SOL    HW255062   9.269   2.124   4.278  0.6330 -0.6870 -0.3783
18162SOL     OW55063   8.002   0.837   9.298 -0.0175  0.5094  0.0680
18162SOL    HW155064   7.975   0.769   9.360  0.1281 -1.3913 -1.8381
18162SOL    HW255065   8.085   0.870   9.334 -0.1680 -0.2056  1.1225
18163SOL     OW55066   8.289   8.105   1.790  0.7899  0.3530 -0.1861
18163SOL    HW155067   8.322   8.045   1.856  1.4049  0.7274 -0.1503
18163SOL    HW255068   8.361   8.165   1.773  0.2095  1.0470 -0.2651
18164SOL     OW55069   4.882   5.490   1.003 -0.0430  0.6621 -0.5129
18164SOL    HW155070   4.918   5.479   1.091 -2.2759  0.3527  0.4292
18164SOL    HW255071   4.940   5.554   0.962  0.9766  0.9305  1.2146
18165SOL     OW55072   8.948   7.617   1.494 -0.2143  0.2389 -0.4907
18165SOL    HW155073   8.920   7.612   1.586 -1.2533 -1.6279 -0.8596
18165SOL    HW255074   8.866   7.611   1.444  0.3262  1.4213 -1.5599
18166SOL     OW55075   2.382   8.199   4.787  0.5396 -0.4772  0.4573
18166SOL    HW155076   2.322   8.140   4.832  0.1847 -0.7655 -0.3747
18166SOL    HW255077   2.375   8.282   4.834 -3.4574  0.7418 -1.8706
18167SOL     OW55078   8.899   4.443   9.197 -0.1303  0.3770 -0.1576
18167SOL    HW155079   8.844   4.368   9.172  1.3136 -1.9097  2.9183
18167SOL    HW255080   8.984   4.423   9.158  1.3326 -1.7674  3.6411
18168SOL     OW55081   5.126   7.484   7.031 -0.0616 -0.7046 -0.4036
18168SOL    HW155082   5.197   7.444   6.980  3.5195  2.8402  1.1883
18168SOL    HW255083   5.154   7.474   7.122 -2.0023  0.2783  0.3480
18169SOL     OW55084   4.001   9.539   5.346  0.3433  0.5663  0.5373
18169SOL    HW155085   3.939   9.513   5.414  0.2053  0.5401  0.4009
18169SOL    HW255086   4.074   9.478   5.355 -0.5257 -0.6867 -0.6024
18170SOL     OW55087   7.303   1.928   5.311  0.2315 -0.2604 -0.3786
18170SOL    HW155088   7.279   1.848   5.265  1.7731 -1.4887  0.8419
18170SOL    HW255089   7.229   1.946   5.369  0.6763 -1.9789  0.8028
18171SOL     OW55090   8.614   7.588   4.808 -0.0967 -0.3271  0.1092
18171SOL    HW155091   8.605   7.562   4.716 -0.5467 -1.8692  0.5701
18171SOL    HW255092   8.649   7.511   4.852 -0.9894 -0.0027  1.4493
18172SOL     OW55093   9.012   5.752   8.128 -0.3197 -0.0422  0.5128
18172SOL    HW155094   9.090   5.804   8.107 -0.2417 -0.5543 -0.5569
18172SOL    HW255095   8.957   5.811   8.180 -0.6056  1.4598 -1.3586
18173SOL     OW55096   9.665   9.441   1.996  0.2667  0.1504 -0.1763
18173SOL    HW155097   9.723   9.456   1.922 -0.8788  1.2755 -0.8956
18173SOL    HW255098   9.587   9.493   1.976 -0.8388 -1.0253  0.9195
18174SOL     OW55099   9.801   5.909   8.139  0.3182  0.1968  0.3331
18174SOL    HW155100   9.888   5.940   8.114  0.3136  0.7632  0.9729
18174SOL    HW255101   9.817   5.834   8.195  0.3364 -0.8614 -1.0335
18175SOL     OW55102   6.871   2.158   9.045  0.0116  0.3504 -0.2016
18175SOL    HW155103   6.882   2.063   9.032 -0.8139 -0.1316  2.1183
18175SOL    HW255104   6.901   2.173   9.135 -2.8061  1.7114  0.6113
18176SOL     OW55105   3.158   3.671   9.514  0.5364  0.0166 -0.0124
18176SOL    HW155106   3.095   3.683   9.584  0.2372  0.7467 -0.3982
18176SOL    HW255107   3.207   3.592   9.539  1.2070  0.8987  1.5891
18177SOL     OW55108   1.383   5.359   3.623  0.1563 -0.3898 -0.4164
18177SOL    HW155109   1.382   5.415   3.545  2.7751 -0.0216 -0.2712
18177SOL    HW255110   1.466   5.311   3.618  1.1722  0.7426  2.8650
18178SOL     OW55111   1.903   6.708   5.665  0.3887 -0.3312  0.6309
18178SOL    HW155112   1.993   6.709   5.700  0.1213 -0.6148  1.3530
18178SOL    HW255113   1.903   6.775   5.598  1.4329 -1.0428 -0.1170
18179SOL     OW55114   7.084   7.051   7.066  0.2216 -0.0596 -0.2753
18179SOL    HW155115   7.039   7.069   6.983 -0.8154  2.6797  0.7847
18179SOL    HW255116   7.027   6.990   7.112 -0.1926 -0.0472 -0.7659
18180SOL     OW55117   6.288   5.692   1.396 -0.7479  0.2987 -0.3133
18180SOL    HW155118   6.257   5.644   1.320 -1.9226 -0.2670  0.4980
18180SOL    HW255119   6.245   5.650   1.471  1.4323 -0.0494  0.8178
18181SOL     OW55120   7.698   9.789   6.637  0.1217  0.0883 -0.6382
18181SOL    HW155121   7.636   9.801   6.709 -0.4787 -1.0354 -0.9305
18181SOL    HW255122   7.769   9.850   6.655 -1.4543  2.0834 -0.7436
18182SOL     OW55123   9.266   2.495   2.249  0.2886  0.1744  0.1438
18182SOL    HW155124   9.356   2.466   2.232  0.5402  0.1887  1.3264
18182SOL    HW255125   9.220   2.415   2.275  0.2369  0.3402  0.5674
18183SOL     OW55126   2.092   1.162   9.320  0.0481 -0.5655 -0.6844
18183SOL    HW155127   2.114   1.102   9.391 -2.3862 -0.8684 -0.0692
18183SOL    HW255128   2.008   1.129   9.286 -0.6039  1.5810 -1.3276
18184SOL     OW55129   6.324   5.142   1.348  0.3187 -0.5398 -0.5912
18184SOL    HW155130   6.274   5.196   1.410 -1.1395  1.0351 -2.9633
18184SOL    HW255131   6.271   5.063   1.337  1.4116 -1.6273  1.2916
18185SOL     OW55132   8.980   9.217   0.317 -0.4145  0.7676  0.3223
18185SOL    HW155133   8.994   9.272   0.240  0.6373  0.8855  0.5838
18185SOL    HW255134   9.000   9.274   0.391 -1.6140  0.7122  0.7073
18186SOL     OW55135   1.741   5.605   7.870  0.5929  0.0067 -0.3012
18186SOL    HW155136   1.794   5.680   7.842  0.0416  0.9558  1.1020
18186SOL    HW255137   1.670   5.644   7.921  1.5790 -1.6122  2.4524
18187SOL     OW55138   7.232   8.600   9.365 -0.3264 -0.1215  0.0172
18187SOL    HW155139   7.254   8.610   9.457 -0.5411  0.4929  0.0050
18187SOL    HW255140   7.307   8.553   9.328 -0.3415 -0.5641  0.5465
18188SOL     OW55141   5.383   3.877   2.434  0.0875 -0.1400  1.2397
18188SOL    HW155142   5.317   3.830   2.383  0.3132  1.0022 -0.1658
18188SOL    HW255143   5.465   3.833   2.412 -0.0800 -1.2428  2.6099
18189SOL     OW55144   3.357   7.019   8.228 -0.1302 -0.2320  0.3288
18189SOL    HW155145   3.335   7.112   8.231 -0.2805 -0.2058 -1.0400
18189SOL    HW255146   3.280   6.975   8.265 -0.5425  0.1306 -0.0827
18190SOL     OW55147   1.621   3.659   7.850  0.0587  0.5212  0.6305
18190SOL    HW155148   1.570   3.652   7.931  0.9489  1.4602  1.2879
18190SOL    HW255149   1.696   3.713   7.874  0.9555 -0.1847 -0.5245
18191SOL     OW55150   4.246   5.658   4.161 -0.0750  0.0075  0.1553
18191SOL    HW155151   4.169   5.704   4.127  1.1298  1.6186 -0.5785
18191SOL    HW255152   4.313   5.672   4.094  0.4136 -2.8498 -0.0744
18192SOL     OW55153   3.917   1.288   6.481 -0.1885  0.5360 -0.5292
18192SOL    HW155154   3.882   1.376   6.495  0.1902  0.5054  0.7407
18192SOL    HW255155   4.009   1.303   6.457 -0.2295  0.4982 -0.7108
18193SOL     OW55156   9.703   2.823   6.278  0.0796 -0.7804 -0.6917
18193SOL    HW155157   9.705   2.729   6.265  1.7185 -1.0848  1.2291
18193SOL    HW255158   9.790   2.853   6.249  0.1704 -0.1272  0.2151
18194SOL     OW55159   2.630   9.638   1.804  0.6288  0.3525  0.3718
18194SOL    HW155160   2.625   9.721   1.852  1.9920  1.1625 -0.8026
18194SOL    HW255161   2.718   9.636   1.768 -0.0921 -0.5645 -1.4820
18195SOL     OW55162   3.739   1.145   4.121 -0.0938 -0.6833  0.2711
18195SOL    HW155163   3.789   1.165   4.200 -0.5372  1.9234 -0.0069
18195SOL    HW255164   3.797   1.169   4.049  0.2153 -2.7979 -0.2387
18196SOL     OW55165   4.421   7.109   1.512  0.1934  0.4002 -0.0042
18196SOL    HW155166   4.327   7.125   1.504  0.1009 -1.0396 -3.2598
18196SOL    HW255167   4.428   7.015   1.528  1.0872  0.2895 -0.9769
18197SOL     OW55168   2.334   7.465   3.118  0.4859 -0.0715 -0.4920
18197SOL    HW155169   2.393   7.509   3.179 -0.1137 -0.0829  0.1024
18197SOL    HW255170   2.359   7.372   3.123  0.3264 -0.0944 -0.1451
18198SOL     OW55171   5.859   2.019   1.181  0.0603  0.3430  0.1348
18198SOL    HW155172   5.809   2.057   1.253  0.0219  0.3259  0.1176
18198SOL    HW255173   5.894   1.937   1.216 -1.0826 -0.3393 -0.2792
18199SOL     OW55174   4.888   0.283   6.844 -0.0295  0.3894 -0.4634
18199SOL    HW155175   4.972   0.240   6.862  0.0641  0.6855 -0.1816
18199SOL    HW255176   4.823   0.225   6.881  0.1057  0.5485  0.0319
18200SOL     OW55177   8.915   1.309   6.391  0.5849  0.5693 -0.0136
18200SOL    HW155178   8.834   1.358   6.381 -0.6569 -1.2146  0.9186
18200SOL    HW255179   8.979   1.358   6.339 -2.0132 -0.2576 -4.4418
18201SOL     OW55180   3.625   5.639   5.887  0.6638  0.2918  0.0406
18201SOL    HW155181   3.584   5.704   5.830 -1.9809 -2.9694 -2.1580
18201SOL    HW255182   3.712   5.625   5.849  0.1841  0.5554 -1.1940
18202SOL     OW55183   4.109   4.477   4.314 -0.5174 -0.0762  0.1391
18202SOL    HW155184   4.123   4.544   4.246 -1.6111 -0.7778 -0.8075
18202SOL    HW255185   4.198   4.452   4.341 -0.0609  2.6887  1.5092
18203SOL     OW55186   8.722   3.912   5.728  0.6245 -0.1439 -0.3934
18203SOL    HW155187   8.797   3.967   5.750 -1.5332  2.5321  0.7980
18203SOL    HW255188   8.678   3.959   5.658 -1.8873  0.3249  1.3839
18204SOL     OW55189   0.974   2.302   3.827  0.1849  0.0411  0.3247
18204SOL    HW155190   0.975   2.268   3.738  1.4365 -1.4183  0.8523
18204SOL    HW255191   0.907   2.251   3.872  0.4981 -0.1804  0.5475
18205SOL     OW55192   4.994   3.610   4.904  0.5312 -0.0947 -0.4054
18205SOL    HW155193   5.036   3.544   4.958 -1.2062  0.5713  1.9307
18205SOL    HW255194   5.024   3.693   4.941 -0.7465  0.3778 -0.3983
18206SOL     OW55195   1.139   5.221   5.115  0.3222 -0.1482  0.2053
18206SOL    HW155196   1.228   5.185   5.117  0.7971  0.6600 -2.4522
18206SOL    HW255197   1.088   5.155   5.068  0.4647  1.0647 -1.7663
18207SOL     OW55198   4.850   0.111   9.300 -0.0579  0.1569 -0.0488
18207SOL    HW155199   4.822   0.024   9.271  0.5756 -0.1956  0.3607
18207SOL    HW255200   4.885   0.152   9.221  0.7099 -0.4096 -0.0203
18208SOL     OW55201   3.617   2.905   6.412 -0.1875  0.1478 -0.1282
18208SOL    HW155202   3.571   2.958   6.478 -0.3850 -1.5107  1.1487
18208SOL    HW255203   3.663   2.969   6.358  3.7748  1.6457  4.3261
18209SOL     OW55204   1.991   7.998   8.910  0.2137  0.0580  0.5282
18209SOL    HW155205   2.082   8.025   8.897  0.1983  0.2270  0.7548
18209SOL    HW255206   1.974   7.936   8.839  0.6593 -0.3598  0.7781
18210SOL     OW55207   8.568   9.915   9.292  0.3461  0.5362  0.7550
18210SOL    HW155208   8.596   9.904   9.383  0.3935  0.8622  0.7799
18210SOL    HW255209   8.485   9.961   9.298 -0.4744 -0.8697  0.7074
18211SOL     OW55210   8.447   1.723   9.748 -0.5834  0.4586  0.3368
18211SOL    HW155211   8.503   1.651   9.720 -1.7983  0.5271 -2.6191
18211SOL    HW255212   8.501   1.801   9.736  0.2528  0.2376  2.2162
18212SOL     OW55213   5.874   8.871   0.285  0.4355  0.0690 -0.1509
18212SOL    HW155214   5.863   8.855   0.378  0.7140 -0.1934 -0.1617
18212SOL    HW255215   5.922   8.954   0.280  0.1005  0.2718 -0.0724
18213SOL     OW55216   0.386   2.327   2.591  0.8392  0.0412 -0.1703
18213SOL    HW155217   0.452   2.338   2.660  1.2025  2.5149 -0.8144
18213SOL    HW255218   0.410   2.391   2.524 -1.8890  0.6877 -0.6803
18214SOL     OW55219   6.353   2.298   3.260  0.2141 -0.0852  0.8381
18214SOL    HW155220   6.333   2.380   3.304  0.0156 -0.3908  1.3398
18214SOL    HW255221   6.442   2.309   3.226  0.2318  0.2933  1.0051
18215SOL     OW55222   6.381   6.849   6.564  0.3640  0.1431 -0.1685
18215SOL    HW155223   6.438   6.808   6.498  0.3260 -0.8046  0.3722
18215SOL    HW255224   6.442   6.881   6.631  0.2584 -4.0397  2.2507
18216SOL     OW55225   3.240   9.779   9.063  0.1364 -0.0660 -0.0380
18216SOL    HW155226   3.252   9.685   9.054 -0.6253 -0.3069  1.3598
18216SOL    HW255227   3.296   9.804   9.136 -1.6720  0.0910  1.3661
18217SOL     OW55228   5.618   3.196   6.458  0.2693 -0.3600  0.2681
18217SOL    HW155229   5.611   3.188   6.553 -2.1004 -1.1903  0.0773
18217SOL    HW255230   5.528   3.191   6.426  0.8356  1.6196 -1.9316
18218SOL     OW55231   0.118   8.297   5.524 -0.2355 -0.6392  0.4053
18218SOL    HW155232   0.106   8.255   5.439 -0.2165 -1.7549  0.9372
18218SOL    HW255233   0.131   8.225   5.585 -0.5227  0.1298  1.4062
18219SOL     OW55234   6.919   0.345   7.329 -0.3366  0.1049 -0.0170
18219SOL    HW155235   6.937   0.396   7.407 -0.1946  1.2189 -0.7637
18219SOL    HW255236   6.837   0.299   7.349 -0.5492  0.7402  0.6040
18220SOL     OW55237   3.567   9.314   8.414  0.1041 -0.0074  0.4154
18220SOL    HW155238   3.540   9.347   8.328  1.1331 -2.5462 -1.0173
18220SOL    HW255239   3.506   9.353   8.476 -1.3454  1.0912 -1.5958
18221SOL     OW55240   6.081   2.027   0.253  0.3189  0.2330  0.0041
18221SOL    HW155241   6.156   2.003   0.199  0.5303 -0.4056  0.5734
18221SOL    HW255242   6.061   2.117   0.227 -0.4653 -0.5082 -2.1123
18222SOL     OW55243   6.155   9.496   0.702  0.0474  0.2847 -0.3868
18222SOL    HW155244   6.127   9.584   0.677 -0.2661  0.1080 -0.6621
18222SOL    HW255245   6.107   9.477   0.783  0.6737  0.6548  0.0814
18223SOL     OW55246   0.345   0.461   2.798 -0.2227  0.4441  0.1938
18223SOL    HW155247   0.379   0.426   2.881  0.0980 -1.3839 -0.6513
18223SOL    HW255248   0.254   0.482   2.817  0.0400  0.7784  1.1956
18224SOL     OW55249   8.600   3.270   6.005 -0.0082  0.4987  0.5804
18224SOL    HW155250   8.505   3.272   5.994  0.1206  0.8638 -0.6466
18224SOL    HW255251   8.615   3.312   6.089 -0.9855 -0.4574  1.2681
18225SOL     OW55252   7.724   3.620   7.537  0.1378  0.8472 -0.1130
18225SOL    HW155253   7.704   3.559   7.607  1.9979 -1.8622 -1.7231
18225SOL    HW255254   7.791   3.678   7.573  0.1137  0.3480  0.7409
18226SOL     OW55255   9.269   0.634   8.895  0.0020  0.3260 -0.5316
18226SOL    HW155256   9.211   0.645   8.819  0.9519  1.7719 -1.0908
18226SOL    HW255257   9.334   0.704   8.886  0.5884  0.0489  1.2240
18227SOL     OW55258   4.838   9.107   9.513  0.5226  0.2432  0.3630
18227SOL    HW155259   4.843   9.182   9.453 -0.4638  0.3360  0.3784
18227SOL    HW255260   4.818   9.033   9.456 -2.4680  0.6530  0.7214
18228SOL     OW55261   6.603   9.120   6.679 -0.1319 -0.1495  0.1760
18228SOL    HW155262   6.511   9.146   6.688 -0.5658 -1.4672 -0.1770
18228SOL    HW255263   6.629   9.151   6.592  0.0758  1.0675  0.6447
18229SOL     OW55264   7.363   5.440   6.270  0.7668 -0.0391  0.1541
18229SOL    HW155265   7.278   5.400   6.292  0.5227  0.6882  0.5981
18229SOL    HW255266   7.369   5.432   6.175  0.9484 -1.5396  0.2703
18230SOL     OW55267   9.361   3.350   4.775 -0.0342 -0.0491  0.2083
18230SOL    HW155268   9.358   3.314   4.864  0.2794 -0.5853  0.0095
18230SOL    HW255269   9.273   3.383   4.760 -0.0041  0.3439  0.8381
18231SOL     OW55270   3.091   3.926   0.520 -0.2452 -0.7111  0.4129
18231SOL    HW155271   3.176   3.949   0.557 -0.3385  0.6035 -0.1373
18231SOL    HW255272   3.102   3.837   0.488  1.3347 -0.1201 -0.8257
18232SOL     OW55273   0.011   1.005   1.380  0.2867  0.0115  0.0184
18232SOL    HW155274  -0.014   1.071   1.315  0.3208  1.0033  0.9782
18232SOL    HW255275   0.080   0.954   1.337 -0.4415 -0.0662 -1.1110
18233SOL     OW55276   5.147   5.236   9.277  0.4945  0.0556  0.3225
18233SOL    HW155277   5.207   5.162   9.278  1.5834  0.9028 -0.0129
18233SOL    HW255278   5.203   5.312   9.261 -0.9017  0.6644 -2.2036
18234SOL     OW55279   0.133   9.576   2.274  0.1258 -0.1567 -0.0397
18234SOL    HW155280   0.065   9.515   2.305  0.9196 -0.7024  0.6634
18234SOL    HW255281   0.095   9.663   2.286 -0.6410 -0.4731 -0.1160
18235SOL     OW55282   4.821   9.220   8.435 -0.0209 -0.3940  0.4110
18235SOL    HW155283   4.899   9.167   8.419  0.1493 -0.4093  1.2494
18235SOL    HW255284   4.753   9.178   8.382  0.1765 -1.2966  0.8480
18236SOL     OW55285   0.203   8.159   2.672 -0.1062  0.0407 -0.0586
18236SOL    HW155286   0.115   8.122   2.682  0.7890 -2.0690  0.4609
18236SOL    HW255287   0.196   8.246   2.711 -1.9117 -0.1376  0.1340
18237SOL     OW55288   2.590   7.703   0.140  0.1318  0.0789 -0.3673
18237SOL    HW155289   2.648   7.712   0.215 -1.1533 -0.4816  0.7270
18237SOL    HW255290   2.616   7.619   0.100  1.6159  0.9373 -1.3094
18238SOL     OW55291   5.331   0.180   1.319  0.1136 -0.5396 -0.4369
18238SOL    HW155292   5.310   0.089   1.341  0.9748 -0.4596  0.9047
18238SOL    HW255293   5.363   0.217   1.402  2.2294  0.2462 -1.5305
18239SOL     OW55294   5.734   6.785   6.782 -0.3784 -0.2574 -0.4964
18239SOL    HW155295   5.763   6.868   6.746 -0.6576  0.0159 -0.0951
18239SOL    HW255296   5.776   6.719   6.727  1.0367  0.1318  0.0644
18240SOL     OW55297   0.799   1.615   6.954  0.4421 -0.2230 -0.7030
18240SOL    HW155298   0.852   1.681   7.000 -1.0629  1.5625 -1.4268
18240SOL    HW255299   0.863   1.553   6.919  1.8775  0.5636  0.4401
18241SOL     OW55300   0.236   0.840   2.582 -0.0885 -0.6512  0.5638
18241SOL    HW155301   0.313   0.859   2.636  0.3815  1.1234 -0.6490
18241SOL    HW255302   0.241   0.903   2.511 -2.7868 -0.3810  0.5379
18242SOL     OW55303   0.515   7.067   1.829 -0.3510  0.1029 -0.0137
18242SOL    HW155304   0.542   7.026   1.911 -2.6712  0.6416  1.0875
18242SOL    HW255305   0.557   7.153   1.830  1.1178 -0.5676 -0.3347
18243SOL     OW55306   6.417   8.962   9.305 -0.1792 -0.6836  0.5801
18243SOL    HW155307   6.494   8.979   9.250 -1.6871  0.1213 -1.3684
18243SOL    HW255308   6.454   8.925   9.385  2.3150  0.5212  0.0959
18244SOL     OW55309   3.318   9.880   4.283  0.1156  0.4019 -0.1609
18244SOL    HW155310   3.386   9.947   4.273 -0.6619  1.1649 -0.4462
18244SOL    HW255311   3.297   9.853   4.194  0.2853 -0.0852 -0.0560
18245SOL     OW55312   5.103   9.753   8.964  0.4398  0.6992 -0.6217
18245SOL    HW155313   5.103   9.686   8.896 -0.8517  1.8921 -1.8727
18245SOL    HW255314   5.160   9.718   9.033 -3.4900 -3.8180  0.9389
18246SOL     OW55315   0.934   0.753   2.017  0.6838  0.0677 -0.6229
18246SOL    HW155316   1.026   0.744   2.044  0.5525  0.9193  0.1500
18246SOL    HW255317   0.932   0.718   1.928  1.4717 -1.2493 -0.1490
18247SOL     OW55318   9.838   8.337   8.295 -0.0697  0.0880  0.1832
18247SOL    HW155319   9.905   8.310   8.232  0.6755  1.8675  0.1698
18247SOL    HW255320   9.755   8.320   8.251  0.4217  0.2651 -0.8283
18248SOL     OW55321   8.642   7.530   8.577 -0.2792 -0.3087  0.0981
18248SOL    HW155322   8.701   7.603   8.597 -0.1421 -0.4662  0.2774
18248SOL    HW255323   8.603   7.507   8.662  1.1503 -1.7189  0.4216
18249SOL     OW55324   8.207   7.541   5.679  0.4558 -0.3500 -0.7256
18249SOL    HW155325   8.210   7.580   5.766  0.8961 -1.1952 -0.3421
18249SOL    HW255326   8.135   7.477   5.684  0.8056 -0.7583 -0.8176
18250SOL     OW55327   2.309   2.684   3.200 -0.0757 -0.1783  0.1223
18250SOL    HW155328   2.372   2.663   3.270  2.0085  0.6495 -1.4022
18250SOL    HW255329   2.285   2.775   3.217  0.9245  0.2286 -0.5495
18251SOL     OW55330   5.762   5.026   2.374  0.4451  0.1797 -0.1676
18251SOL    HW155331   5.805   5.102   2.412 -2.2078  0.8151  1.8902
18251SOL    HW255332   5.683   5.014   2.427 -1.0164 -1.9258 -2.5640
18252SOL     OW55333   7.465   5.175   9.835 -0.4247  0.0692 -0.4560
18252SOL    HW155334   7.537   5.232   9.807  0.0695 -0.0523  0.5404
18252SOL    HW255335   7.489   5.088   9.804 -0.1258  0.0225 -0.0909
18253SOL     OW55336   5.500   1.571   5.822  0.6373  0.3402 -0.1928
18253SOL    HW155337   5.471   1.481   5.813 -1.5827  0.9585  0.2692
18253SOL    HW255338   5.543   1.591   5.738 -1.4481 -0.2834 -1.4899
18254SOL     OW55339   1.278   6.352   5.603  0.1299  0.7069  0.2363
18254SOL    HW155340   1.310   6.264   5.582  0.3596  0.7702  0.3245
18254SOL    HW255341   1.327   6.410   5.545 -0.8758  0.6718 -0.6828
18255SOL     OW55342   8.694   4.756   1.777 -0.4663  0.0926  0.2173
18255SOL    HW155343   8.754   4.755   1.851  1.4080  2.6731 -1.1199
18255SOL    HW255344   8.663   4.847   1.772 -1.8493 -0.4094 -1.1680
18256SOL     OW55345   0.329   2.858   4.516  0.1222 -0.9600  0.3152
18256SOL    HW155346   0.239   2.843   4.487 -0.1063  0.9319 -0.0547
18256SOL    HW255347   0.333   2.952   4.533  2.9721 -0.3262 -2.9736
18257SOL     OW55348   1.853   0.234   5.676  0.7022  0.0339  0.5009
18257SOL    HW155349   1.917   0.216   5.745  1.7210  1.1360 -0.1383
18257SOL    HW255350   1.842   0.329   5.677 -2.2255 -0.1878  1.7018
18258SOL     OW55351   5.772   3.773   7.940  0.0959  0.0635 -0.5995
18258SOL    HW155352   5.716   3.708   7.898  0.6885 -0.5880 -0.4073
18258SOL    HW255353   5.839   3.793   7.875  0.0884  0.2504 -0.5493
18259SOL     OW55354   4.432   1.126   1.237  0.3228  0.3821 -0.0394
18259SOL    HW155355   4.437   1.188   1.311  1.2476 -1.3354  1.4102
18259SOL    HW255356   4.492   1.161   1.172 -0.8961  2.2217 -0.2459
18260SOL     OW55357   6.165   3.733   7.945  0.1148 -0.3982 -0.1397
18260SOL    HW155358   6.159   3.803   8.010 -0.6622  0.5317 -1.1719
18260SOL    HW255359   6.112   3.662   7.981  0.4177 -0.2343  0.6408
18261SOL     OW55360   1.239   5.672   5.573 -0.0611  0.1475 -0.0300
18261SOL    HW155361   1.229   5.599   5.512 -0.0012  1.2689 -1.4457
18261SOL    HW255362   1.150   5.699   5.593 -0.1140  1.3097 -1.6058
18262SOL     OW55363   1.989   5.288   2.021 -0.1875  0.1443  0.0610
18262SOL    HW155364   1.944   5.370   2.042 -0.1017 -0.1330  1.4060
18262SOL    HW255365   2.054   5.313   1.956 -1.3682  0.7947 -0.9125
18263SOL     OW55366   3.305   0.586   1.076 -0.2182  0.0617 -0.0459
18263SOL    HW155367   3.215   0.579   1.044 -1.0384  1.1019  1.8808
18263SOL    HW255368   3.334   0.496   1.087 -1.2646 -0.2892 -0.0736
18264SOL     OW55369   9.033   8.420   5.001 -0.0172 -0.3231 -0.2452
18264SOL    HW155370   9.110   8.363   5.014 -0.1660  0.1110  3.5359
18264SOL    HW255371   9.068   8.509   5.003 -0.3746 -0.1533 -1.0611
18265SOL     OW55372   9.386   9.651   0.704  0.1967  0.3415  0.1808
18265SOL    HW155373   9.339   9.707   0.642 -0.7428  1.6127  1.9422
18265SOL    HW255374   9.323   9.583   0.727  0.1225  0.5675  0.6427
18266SOL     OW55375   6.895   6.563   9.589 -0.3231 -0.8317  0.2877
18266SOL    HW155376   6.941   6.564   9.506  0.1047  0.2439  0.5190
18266SOL    HW255377   6.810   6.524   9.570 -1.0215  1.2038 -1.1030
18267SOL     OW55378   3.369   6.417   9.580 -0.0305  0.3463  0.8433
18267SOL    HW155379   3.300   6.483   9.589 -0.8753 -0.4495  0.3638
18267SOL    HW255380   3.413   6.440   9.498 -0.2337  0.4048  0.7481
18268SOL     OW55381   4.112   0.636   6.445 -0.2015  0.3564  0.1878
18268SOL    HW155382   4.037   0.624   6.503  0.6293 -1.3058  0.9843
18268SOL    HW255383   4.091   0.583   6.368 -0.9795  1.9881 -0.7755
18269SOL     OW55384   3.864   3.046   1.226 -0.0527  0.4153 -0.1017
18269SOL    HW155385   3.902   2.958   1.231 -0.0173  0.3768 -0.8901
18269SOL    HW255386   3.932   3.100   1.186 -0.2600  0.6912 -0.0860
18270SOL     OW55387   9.331   5.108   0.664 -0.1208 -0.0962 -0.2881
18270SOL    HW155388   9.309   5.157   0.585  0.9401  0.3277 -0.3372
18270SOL    HW255389   9.375   5.029   0.633 -1.8105 -1.1061 -0.2049
18271SOL     OW55390   5.741   7.686   0.420  0.3394  0.0674  0.2958
18271SOL    HW155391   5.763   7.614   0.479  0.6996  0.0314  0.1214
18271SOL    HW255392   5.736   7.645   0.333  1.0005  0.3334  0.1306
18272SOL     OW55393   7.338   1.527   8.851  0.1578 -0.1572 -0.6716
18272SOL    HW155394   7.312   1.436   8.841  0.5215 -0.6940  2.2276
18272SOL    HW255395   7.271   1.566   8.908  2.5089 -0.1073  2.3699
18273SOL     OW55396   0.548   5.204   0.223 -0.2498 -0.0042  0.0135
18273SOL    HW155397   0.545   5.199   0.319 -1.5549 -0.9629 -0.0538
18273SOL    HW255398   0.607   5.278   0.205  0.2504  0.0055  1.5394
18274SOL     OW55399   6.409   0.668   8.115  0.2138 -0.0440 -0.2520
18274SOL    HW155400   6.348   0.741   8.122  0.6329  0.8468 -3.7275
18274SOL    HW255401   6.483   0.703   8.065  1.2002 -2.4110 -0.6229
18275SOL     OW55402   6.530   7.449   2.018  0.3842  0.0757 -0.3853
18275SOL    HW155403   6.439   7.476   2.012 -0.0323 -1.2969 -0.4481
18275SOL    HW255404   6.566   7.502   2.090 -1.3079 -1.5617  1.8203
18276SOL     OW55405   2.942   8.894   9.345 -0.3574 -0.4394 -0.2760
18276SOL    HW155406   2.864   8.846   9.372  0.6962 -1.8494  0.4367
18276SOL    HW255407   2.956   8.870   9.254 -1.2520  0.5585 -0.6953
18277SOL     OW55408   9.814   0.374   3.089  0.4158  0.2786  0.2292
18277SOL    HW155409   9.840   0.300   3.034  0.3457 -0.5941  1.3294
18277SOL    HW255410   9.718   0.376   3.081  0.1031 -1.6745  2.4833
18278SOL     OW55411   6.732   8.192   2.230  0.4738  0.4400  0.1476
18278SOL    HW155412   6.649   8.174   2.274  0.3203 -0.0260 -0.3415
18278SOL    HW255413   6.798   8.182   2.299  0.1752  0.3016  0.4147
18279SOL     OW55414   2.501   5.128   0.347  0.3181 -0.2703 -0.4313
18279SOL    HW155415   2.568   5.107   0.281 -0.1914 -1.9936 -0.4479
18279SOL    HW255416   2.474   5.217   0.326  1.8256  0.0654 -1.1039
18280SOL     OW55417   9.647   4.912   3.441 -0.0039 -0.8140  0.7559
18280SOL    HW155418   9.623   4.841   3.381 -0.8265  0.3524 -0.3360
18280SOL    HW255419   9.739   4.894   3.463  1.0956 -0.0777 -2.6525
18281SOL     OW55420   6.127   3.874   6.106 -0.1452  0.2265 -0.1511
18281SOL    HW155421   6.038   3.882   6.073 -0.1304  0.6433 -0.0945
18281SOL    HW255422   6.118   3.881   6.201  0.1032  1.7601 -0.2256
18282SOL     OW55423   2.326   4.974   4.446  0.1840  0.5961 -1.1170
18282SOL    HW155424   2.377   4.965   4.527 -2.1825 -1.1771  0.2978
18282SOL    HW255425   2.292   5.064   4.450 -0.8505  0.1779  0.5180
18283SOL     OW55426   4.031   1.748   8.760 -0.0721 -0.5226  0.4981
18283SOL    HW155427   3.986   1.703   8.689  0.2778  0.2212 -0.2148
18283SOL    HW255428   4.085   1.813   8.716 -0.1627  0.2323  1.4748
18284SOL     OW55429   4.182   2.164   4.381  0.5928  0.0753 -0.1873
18284SOL    HW155430   4.186   2.244   4.328 -0.9358  0.4223  0.1847
18284SOL    HW255431   4.207   2.094   4.321 -1.0267  0.4760 -1.3891
18285SOL     OW55432   7.113   1.665   9.918  0.1599  0.4062 -0.0819
18285SOL    HW155433   7.182   1.720   9.880  0.3387 -0.2050 -0.6521
18285SOL    HW255434   7.062   1.725   9.972 -0.1814  1.3412 -1.3841
18286SOL     OW55435   3.501   5.954   2.764  0.0109  0.1559 -0.9049
18286SOL    HW155436   3.590   5.989   2.763  0.0784 -0.0083 -0.6518
18286SOL    HW255437   3.445   6.032   2.759  0.1544  0.3330 -0.0209
18287SOL     OW55438   0.892   9.163   0.244 -0.2366 -0.8776 -0.7240
18287SOL    HW155439   0.986   9.146   0.246 -0.1727 -0.5067 -0.0178
18287SOL    HW255440   0.869   9.178   0.336 -0.3259  2.4637 -1.1825
18288SOL     OW55441   1.404   8.114   3.140 -0.1471 -0.5821  0.0774
18288SOL    HW155442   1.415   8.063   3.221  0.1226  1.2507  1.2517
18288SOL    HW255443   1.374   8.050   3.076 -1.1830 -1.9663  1.8317
18289SOL     OW55444   5.725   0.207   6.762  0.0299 -0.1052 -0.5351
18289SOL    HW155445   5.816   0.229   6.784 -0.2748 -1.5958  2.7230
18289SOL    HW255446   5.674   0.282   6.793 -0.0542 -0.4899  0.2891
18290SOL     OW55447   9.847   0.523   1.486 -0.6556  0.8484 -0.1391
18290SOL    HW155448   9.899   0.561   1.414 -1.0507  1.4989 -0.0914
18290SOL    HW255449   9.869   0.576   1.562  0.4635 -0.4211  0.4511
18291SOL     OW55450   6.971   8.460   8.395  0.2066 -0.1968  0.8484
18291SOL    HW155451   7.055   8.453   8.441  1.1298 -0.0899 -0.7434
18291SOL    HW255452   6.912   8.498   8.460  1.1748 -0.9830  2.2514
18292SOL     OW55453   7.317   5.453   9.756  0.0531  0.3623  0.7920
18292SOL    HW155454   7.318   5.393   9.830 -1.1895 -0.1290  0.4266
18292SOL    HW255455   7.299   5.398   9.680 -0.8312  1.1508  0.4142
18293SOL     OW55456   3.106   3.937   9.504  0.0642 -0.1046 -0.3203
18293SOL    HW155457   3.143   3.849   9.511  3.3660  1.0436 -1.2726
18293SOL    HW255458   3.162   3.990   9.561  0.1299  1.8501 -2.0901
18294SOL     OW55459   5.737   8.373   1.382 -0.2169 -0.0098  0.6046
18294SOL    HW155460   5.794   8.413   1.316 -0.5308 -0.9957 -0.2833
18294SOL    HW255461   5.650   8.409   1.364  0.0365  1.2837  1.7879
18295SOL     OW55462   4.803   6.070   0.808  0.2582  0.2002 -0.3047
18295SOL    HW155463   4.766   6.116   0.732 -1.7216 -0.7121  0.0470
18295SOL    HW255464   4.803   6.135   0.878 -0.5608  0.2779 -0.3655
18296SOL     OW55465  -0.005   2.727   8.128  0.4153  0.1450  0.3051
18296SOL    HW155466   0.018   2.814   8.158  0.2697  0.3143 -0.0693
18296SOL    HW255467   0.069   2.672   8.153  0.9348  0.5578 -0.3103
18297SOL     OW55468   6.828   1.667   4.787  0.0213  0.3131 -0.8746
18297SOL    HW155469   6.797   1.630   4.704  0.6171  0.7001 -1.2781
18297SOL    HW255470   6.921   1.645   4.789  0.0373  0.4305 -0.3786
18298SOL     OW55471   4.332   3.059   7.755 -0.0537  0.0040  0.2435
18298SOL    HW155472   4.285   3.141   7.770 -1.9450 -1.1160  0.6605
18298SOL    HW255473   4.380   3.044   7.837  0.2880  0.6677  0.1725
18299SOL     OW55474   2.373   7.133   1.466 -0.0468  0.2122  0.4797
18299SOL    HW155475   2.345   7.071   1.534  1.2484  0.7846  1.5900
18299SOL    HW255476   2.350   7.219   1.501  0.6354  0.5114  0.2117
18300SOL     OW55477   3.813   1.932   8.335 -0.5405  0.1220 -0.1830
18300SOL    HW155478   3.774   1.847   8.355  0.5713 -0.5989 -0.9386
18300SOL    HW255479   3.872   1.915   8.261  1.4894  1.0519  1.0979
18301SOL     OW55480   7.850   3.516   3.278 -0.7018  0.7036  0.5597
18301SOL    HW155481   7.885   3.439   3.234 -4.1729 -0.4285 -0.5622
18301SOL    HW255482   7.885   3.510   3.367 -0.6480 -2.0723  0.4451
18302SOL     OW55483   0.346   5.118   9.613  0.0594 -0.4980  0.0695
18302SOL    HW155484   0.403   5.174   9.560 -0.9328 -1.2555 -1.9303
18302SOL    HW255485   0.406   5.059   9.658  0.9745  0.3576  0.0028
18303SOL     OW55486   3.324   7.097   0.433  0.0409 -0.0268 -0.1698
18303SOL    HW155487   3.285   7.113   0.348 -1.4312  2.6373  0.8896
18303SOL    HW255488   3.250   7.090   0.493  1.0694  0.2206  1.1970
18304SOL     OW55489   1.255   1.445   5.228  0.1271 -0.3584 -0.2534
18304SOL    HW155490   1.161   1.428   5.234  0.2991 -0.9288  0.9492
18304SOL    HW255491   1.260   1.534   5.192 -0.8902  0.0277  0.5032
18305SOL     OW55492   8.847   0.421   5.276  0.3539 -0.7757  0.2443
18305SOL    HW155493   8.895   0.477   5.337  0.1500 -1.1886  0.7899
18305SOL    HW255494   8.891   0.337   5.281  0.0694 -0.9323  0.1439
18306SOL     OW55495   5.694   6.276   8.459  0.3314  0.2146  0.0155
18306SOL    HW155496   5.758   6.298   8.391 -0.9596  2.3078 -0.6176
18306SOL    HW255497   5.708   6.183   8.476  3.0298  0.4219 -0.5962
18307SOL     OW55498   5.574   1.507   0.649 -0.3930 -0.5769 -0.2639
18307SOL    HW155499   5.580   1.414   0.669  1.4460 -0.1523  1.5009
18307SOL    HW255500   5.595   1.513   0.555  3.1558 -1.7192  0.3069
18308SOL     OW55501   7.341   8.688   1.056  0.4144  0.1671  0.0867
18308SOL    HW155502   7.282   8.719   1.124 -1.5704 -0.6224 -1.1814
18308SOL    HW255503   7.338   8.592   1.063  0.2754  0.0786 -0.9924
18309SOL     OW55504   2.551   2.192   8.187  0.2974  0.1400 -0.3277
18309SOL    HW155505   2.464   2.201   8.226  0.7926  2.6097  0.4050
18309SOL    HW255506   2.535   2.180   8.093 -0.8626  1.0810 -0.2693
18310SOL     OW55507   8.755   9.587   2.487  1.0401  0.1988 -0.1517
18310SOL    HW155508   8.725   9.586   2.396  1.3802  0.9730 -0.2784
18310SOL    HW255509   8.775   9.679   2.505  2.3665 -0.1507  0.2506
18311SOL     OW55510   9.420   8.557   1.477  0.0982  0.0325  0.1416
18311SOL    HW155511   9.338   8.532   1.519 -0.8693  0.6368 -1.2884
18311SOL    HW255512   9.398   8.633   1.424  2.1212  1.6255  1.4289
18312SOL     OW55513   8.354   5.839   4.311  0.0679  0.1254  0.2792
18312SOL    HW155514   8.376   5.753   4.274  0.9132  0.3737  0.1688
18312SOL    HW255515   8.438   5.886   4.312 -0.6404  1.5034 -1.0928
18313SOL     OW55516   9.367   0.495   0.024 -0.7491  0.1026  0.0898
18313SOL    HW155517   9.438   0.538  -0.022  1.4473  0.7615  3.6668
18313SOL    HW255518   9.289   0.545   0.001  0.6820  2.1361 -0.6265
18314SOL     OW55519   5.668   3.667   9.555 -0.4173 -0.0021  0.0075
18314SOL    HW155520   5.691   3.599   9.620  1.2908  0.1474 -0.3811
18314SOL    HW255521   5.697   3.630   9.471  0.7101  1.2458 -0.1874
18315SOL     OW55522   9.776   4.093   5.418  0.4395 -0.4281 -0.0445
18315SOL    HW155523   9.862   4.130   5.401  0.1788  1.5005  2.2691
18315SOL    HW255524   9.714   4.156   5.381  0.0211 -0.4272  0.6314
18316SOL     OW55525   3.643   6.406   1.011  0.1880 -0.2794  0.6615
18316SOL    HW155526   3.646   6.478   1.074  0.0513  0.7241 -0.4426
18316SOL    HW255527   3.726   6.411   0.964 -0.1759 -0.3042  0.0052
18317SOL     OW55528   9.000   9.010   2.105  0.6529  0.5806 -0.3156
18317SOL    HW155529   9.016   8.966   2.021  2.5739  0.0246  0.2979
18317SOL    HW255530   8.969   8.941   2.163  1.4029  0.5051  0.0058
18318SOL     OW55531   8.156   6.411   3.631 -0.2276 -0.6506 -0.2935
18318SOL    HW155532   8.158   6.426   3.726  1.2118 -1.5191 -0.1463
18318SOL    HW255533   8.215   6.477   3.595 -0.2603 -0.7354 -0.5044
18319SOL     OW55534   1.460   1.948   4.966 -0.3432 -0.3669 -0.3437
18319SOL    HW155535   1.377   1.911   4.935  0.0757  0.6345 -2.9423
18319SOL    HW255536   1.493   1.999   4.892  2.3985 -0.3576  0.7474
18320SOL     OW55537   3.984   7.546   3.595  0.7008 -0.7061 -0.1787
18320SOL    HW155538   3.999   7.597   3.674 -1.3866 -0.2225 -0.0392
18320SOL    HW255539   4.038   7.468   3.606  0.6633 -0.5136  1.5911
18321SOL     OW55540   1.036   3.069   0.850 -0.2111  0.0503  0.0097
18321SOL    HW155541   1.013   3.049   0.941  1.1367  1.1782  0.6367
18321SOL    HW255542   1.121   3.028   0.837  0.0002  0.6177 -0.4527
18322SOL     OW55543   6.617   6.870   8.281  0.5198 -0.2291 -0.9143
18322SOL    HW155544   6.655   6.886   8.194  0.9328 -2.6238 -1.2264
18322SOL    HW255545   6.683   6.901   8.342  0.9297 -0.0269 -1.4489
18323SOL     OW55546   7.612   4.260   2.062  0.1366 -0.0522  0.2733
18323SOL    HW155547   7.653   4.191   2.010  0.2998  0.2294  0.0250
18323SOL    HW255548   7.659   4.340   2.038 -0.5098  0.2685  0.0205
18324SOL     OW55549   4.469   8.073   0.938  0.2683  0.2178  0.2956
18324SOL    HW155550   4.388   8.040   0.899  0.7556 -0.7108  0.0318
18324SOL    HW255551   4.506   7.997   0.984  1.4563  0.3622 -0.3800
18325SOL     OW55552   9.924   2.205   9.743 -0.5442 -0.5560 -0.2071
18325SOL    HW155553   9.830   2.218   9.756 -0.4587 -0.1218 -0.0254
18325SOL    HW255554   9.965   2.259   9.810 -0.0826  1.5395 -2.0490
18326SOL     OW55555   0.218   4.438   4.320 -0.0134 -0.8093  0.1077
18326SOL    HW155556   0.303   4.433   4.276 -0.5567 -2.9340 -0.8447
18326SOL    HW255557   0.226   4.513   4.380  2.0376 -0.1247 -0.9202
18327SOL     OW55558   4.430   9.544   4.046 -0.1661 -0.1831 -0.5097
18327SOL    HW155559   4.475   9.463   4.022  1.4003  0.4416  0.1130
18327SOL    HW255560   4.484   9.613   4.007  0.2247  0.6612  1.4212
18328SOL     OW55561   2.026   0.750   5.978 -0.3367  0.2204 -0.4517
18328SOL    HW155562   2.016   0.812   5.906 -3.1308 -0.6724 -0.9666
18328SOL    HW255563   1.994   0.798   6.055  1.4573  0.7482  0.0113
18329SOL     OW55564   9.118   4.025   6.462  0.9039 -0.0023  0.5889
18329SOL    HW155565   9.132   3.931   6.466  1.0928  0.0542  1.4344
18329SOL    HW255566   9.199   4.061   6.427  0.8158 -0.1513  0.2282
18330SOL     OW55567   0.393   2.799   8.519  0.3273  0.1979 -0.6857
18330SOL    HW155568   0.436   2.850   8.450  1.3475 -0.4287 -0.5389
18330SOL    HW255569   0.440   2.824   8.599 -1.2693  1.4113 -0.0681
18331SOL     OW55570   9.416   5.546   3.092  0.6185 -0.3992 -0.3465
18331SOL    HW155571   9.467   5.466   3.078 -0.7222 -1.2308 -0.7101
18331SOL    HW255572   9.402   5.581   3.004  0.1490 -0.4590 -0.2982
18332SOL     OW55573   5.845   3.043   3.045  0.4630  0.0184 -0.2880
18332SOL    HW155574   5.869   3.024   2.954  1.8755 -0.0502  0.0867
18332SOL    HW255575   5.813   2.959   3.079 -1.3924  0.3502 -1.0891
18333SOL     OW55576   7.338   1.808   1.050  0.6939  0.4425  0.4162
18333SOL    HW155577   7.245   1.793   1.062  0.6954  0.0636  0.0087
18333SOL    HW255578   7.380   1.734   1.093  0.7411 -0.2338 -0.7509
18334SOL     OW55579   3.987   0.861   8.327  0.1711  0.4121  0.4179
18334SOL    HW155580   4.005   0.897   8.414  1.1308  0.3006  0.2781
18334SOL    HW255581   4.003   0.767   8.337  0.6955  0.4571  0.0195
18335SOL     OW55582   0.298   9.841   1.424  0.1321  0.7603  0.1729
18335SOL    HW155583   0.369   9.901   1.401  0.6588 -0.6936 -2.4235
18335SOL    HW255584   0.340   9.769   1.470 -0.3008  1.6651  2.0743
18336SOL     OW55585   0.513   2.113   2.393 -0.0501  0.5785 -0.6020
18336SOL    HW155586   0.582   2.177   2.370 -1.6573  3.1629  1.2499
18336SOL    HW255587   0.451   2.118   2.320  0.9460 -0.7547 -1.6122
18337SOL     OW55588   8.250   3.683   7.629  0.1674  0.0958 -0.4318
18337SOL    HW155589   8.264   3.750   7.562  0.3393  0.6102  0.1079
18337SOL    HW255590   8.189   3.723   7.690  0.0855 -0.3349 -0.2280
18338SOL     OW55591   7.886   1.168   3.584  0.3481  0.4485 -0.3729
18338SOL    HW155592   7.802   1.184   3.627 -0.7320 -1.2286 -1.7414
18338SOL    HW255593   7.914   1.083   3.618  1.0317  0.5717 -0.6237
18339SOL     OW55594   4.276   8.182  10.000  0.1251 -0.0228  0.2204
18339SOL    HW155595   4.246   8.122   9.932  1.4685 -0.1156 -0.3299
18339SOL    HW255596   4.214   8.254   9.998  0.6127  0.4005 -1.7271
18340SOL     OW55597   8.218   7.575   8.009  0.4295 -0.3245 -0.4780
18340SOL    HW155598   8.145   7.548   8.065  0.4972 -1.0188 -0.7120
18340SOL    HW255599   8.271   7.632   8.065  0.3705 -0.8175  0.0997
18341SOL     OW55600   0.054   6.351   2.394 -0.3515  0.5370  0.0739
18341SOL    HW155601   0.095   6.300   2.324 -2.1781 -2.2246  0.8593
18341SOL    HW255602   0.100   6.324   2.473 -1.4455 -0.1099  0.5175
18342SOL     OW55603   9.552   7.674   6.949  0.2710 -0.5301 -0.1489
18342SOL    HW155604   9.598   7.591   6.937  1.5568  0.2824 -1.1123
18342SOL    HW255605   9.604   7.738   6.900 -2.2661  0.3206 -2.0094
18343SOL     OW55606   8.304   8.819   3.275 -0.0871  0.1854 -0.8841
18343SOL    HW155607   8.235   8.828   3.341 -0.1209 -1.8460 -0.5852
18343SOL    HW255608   8.257   8.796   3.195  0.2216 -1.7936 -0.5446
18344SOL     OW55609   2.946   4.322   7.084 -0.2307  0.2128  0.9718
18344SOL    HW155610   2.949   4.266   7.161  0.6778  0.0992  0.8646
18344SOL    HW255611   2.855   4.317   7.054 -0.1046 -1.4744  0.7664
18345SOL     OW55612   9.862   4.044   9.257  0.1417  0.3955 -0.2210
18345SOL    HW155613   9.835   4.038   9.166 -0.2835  3.3808 -0.3872
18345SOL    HW255614   9.931   4.110   9.258  0.6209 -0.0626  1.5552
18346SOL     OW55615   6.154   8.336   4.758 -0.0962  0.0537  0.1195
18346SOL    HW155616   6.165   8.392   4.681 -0.4411  2.2269  1.5574
18346SOL    HW255617   6.061   8.317   4.761 -0.4600  1.7254  1.0634
18347SOL     OW55618   7.633   4.517   5.212 -0.6754 -0.3600  0.4839
18347SOL    HW155619   7.646   4.496   5.119  0.6805  1.8476  0.0928
18347SOL    HW255620   7.540   4.503   5.227 -0.7789 -1.5054 -0.9918
18348SOL     OW55621   4.833   9.945   2.543 -0.1687 -0.3185  0.1546
18348SOL    HW155622   4.835   9.851   2.564  0.1338 -0.8127 -1.8942
18348SOL    HW255623   4.744   9.972   2.568 -0.0690 -0.9833  1.3267
18349SOL     OW55624   2.015   2.055   6.928 -0.0258  0.5290  0.0925
18349SOL    HW155625   2.077   1.981   6.928 -0.7798 -0.1881 -2.2522
18349SOL    HW255626   1.948   2.029   6.991  0.9413  0.3621  1.0996
18350SOL     OW55627   4.136   8.030   2.893 -0.6699 -1.0466  0.6799
18350SOL    HW155628   4.228   8.026   2.919  1.0227  2.7591 -3.3976
18350SOL    HW255629   4.102   8.110   2.933 -0.9742 -0.3741 -0.8576
18351SOL     OW55630   6.764   7.213   3.864  0.3886  0.3661 -0.2929
18351SOL    HW155631   6.820   7.247   3.933  1.2749 -0.7673 -0.4226
18351SOL    HW255632   6.679   7.255   3.878  0.5243  0.0732  1.5322
18352SOL     OW55633   7.674   8.322   0.634  0.0294  0.3030  0.1995
18352SOL    HW155634   7.681   8.301   0.541  0.0168 -0.4712  0.3637
18352SOL    HW255635   7.591   8.368   0.642 -1.2103 -1.7797  0.1743
18353SOL     OW55636   7.690   9.589   2.872  0.0576 -0.5496 -0.0211
18353SOL    HW155637   7.596   9.603   2.874 -0.0184 -1.1304  1.0831
18353SOL    HW255638   7.718   9.602   2.963  1.1791  0.4603 -0.4795
18354SOL     OW55639   3.002   2.692   8.090  0.2879  0.6595  0.1330
18354SOL    HW155640   2.994   2.637   8.168  0.7401  1.5335  0.8196
18354SOL    HW255641   3.023   2.779   8.124 -0.8945  1.3880 -0.8791
18355SOL     OW55642   8.452   9.681   2.776  0.0590 -0.3356  0.5804
18355SOL    HW155643   8.477   9.638   2.858 -1.3749  0.4386  1.4641
18355SOL    HW255644   8.376   9.734   2.799  0.1447  0.5729 -1.0739
18356SOL     OW55645   8.457   4.686   3.521 -0.7126 -0.4556 -0.2939
18356SOL    HW155646   8.507   4.642   3.590  0.2585  0.4255 -0.4155
18356SOL    HW255647   8.465   4.779   3.541 -1.7437 -0.2589 -0.7185
18357SOL     OW55648   4.721   8.991   5.930  0.5576 -0.2186  0.0648
18357SOL    HW155649   4.766   8.962   5.850  0.1846 -0.7524  0.0372
18357SOL    HW255650   4.731   9.086   5.931 -0.3699 -0.0783 -1.2164
18358SOL     OW55651   9.857   1.342   4.309  0.6388  0.3621 -0.0603
18358SOL    HW155652   9.895   1.313   4.226  0.9815  0.9922 -0.1259
18358SOL    HW255653   9.813   1.264   4.344  1.8702 -0.3440 -0.0502
18359SOL     OW55654   0.149   9.931   2.763 -0.2353 -0.0872 -0.4217
18359SOL    HW155655   0.112   9.850   2.798  0.3874 -0.4749 -0.6347
18359SOL    HW255656   0.233   9.904   2.724 -0.0080  0.6631 -0.4721
18360SOL     OW55657   3.956   8.629   8.873 -0.5234 -0.2878  0.5083
18360SOL    HW155658   4.050   8.628   8.854 -0.3196  0.9507  1.3670
18360SOL    HW255659   3.916   8.586   8.796  0.6038  0.7063 -0.6801
18361SOL     OW55660   6.768   7.152   9.029 -0.6608  0.0141 -0.3728
18361SOL    HW155661   6.809   7.139   9.114 -1.2479  0.0522 -0.0799
18361SOL    HW255662   6.703   7.083   9.023  1.4928 -2.0065 -2.1553
18362SOL     OW55663   9.550   6.282   6.610 -0.2195 -0.0806 -0.0337
18362SOL    HW155664   9.560   6.245   6.522 -0.4547  0.3012 -0.2287
18362SOL    HW255665   9.549   6.207   6.669 -0.4910 -0.3647 -0.4005
18363SOL     OW55666   7.642   8.815   8.756  0.4663 -0.1563  0.0363
18363SOL    HW155667   7.711   8.881   8.752  0.2094  0.2341  1.4185
18363SOL    HW255668   7.565   8.858   8.719  0.4240  0.1581  0.4840
18364SOL     OW55669   4.746   4.483   2.141 -0.1462 -0.6838  0.6660
18364SOL    HW155670   4.684   4.417   2.110 -0.2294 -1.2396  1.9693
18364SOL    HW255671   4.699   4.531   2.208 -0.3632  1.2776 -0.8218
18365SOL     OW55672   4.746   1.619   0.316  1.1348  0.7377 -0.4600
18365SOL    HW155673   4.689   1.615   0.393  0.5231  1.4717 -0.8583
18365SOL    HW255674   4.737   1.532   0.276  0.2505  0.8557 -0.5366
18366SOL     OW55675   8.406   7.915   9.081 -0.5461  0.0365  0.8228
18366SOL    HW155676   8.433   7.983   9.143 -2.2254 -0.0659  1.7418
18366SOL    HW255677   8.366   7.963   9.009 -0.4967  0.0704  0.8172
18367SOL     OW55678   8.985   5.206   6.377  0.2300  0.2075 -0.4566
18367SOL    HW155679   8.901   5.173   6.345 -0.2670  0.1763  0.8297
18367SOL    HW255680   9.001   5.284   6.323 -1.3570  1.0625  0.2052
18368SOL     OW55681   2.029   0.822   2.277  0.2655 -0.2198 -1.1903
18368SOL    HW155682   2.039   0.850   2.368 -1.4264  0.0263 -1.0615
18368SOL    HW255683   2.119   0.805   2.248  0.8149 -0.6534  0.6238
18369SOL     OW55684   0.454   6.323   1.132 -0.1908 -0.2951  0.2695
18369SOL    HW155685   0.394   6.255   1.101 -0.7688  0.6527 -0.7575
18369SOL    HW255686   0.460   6.309   1.226 -2.7596  0.1721  0.5612
18370SOL     OW55687   0.248   5.302   4.072 -0.1367 -0.3134  0.2972
18370SOL    HW155688   0.269   5.391   4.100 -0.5927 -0.4094  0.9546
18370SOL    HW255689   0.259   5.304   3.977 -0.6858  0.5871  0.2430
18371SOL     OW55690   0.170   1.815   5.937 -0.9055 -0.1626 -0.5151
18371SOL    HW155691   0.147   1.729   5.902 -1.2577 -0.1305 -0.3697
18371SOL    HW255692   0.086   1.854   5.960 -0.6386 -0.7652  1.7456
18372SOL     OW55693   8.144   3.474   3.910  0.5578 -0.2375  0.1202
18372SOL    HW155694   8.193   3.401   3.871 -0.5022 -0.6488 -0.4692
18372SOL    HW255695   8.054   3.444   3.913 -0.1203  1.4599 -1.1975
18373SOL     OW55696   5.710   2.187   9.903 -0.3439 -0.3110  0.4464
18373SOL    HW155697   5.695   2.120   9.836 -1.1483  0.4864 -0.1888
18373SOL    HW255698   5.802   2.211   9.893 -0.7494  0.6970 -1.2481
18374SOL     OW55699   2.785   8.640   7.963 -0.3933  0.1924  0.4882
18374SOL    HW155700   2.771   8.560   8.014 -0.1936 -1.8915 -2.4208
18374SOL    HW255701   2.877   8.635   7.937 -0.0058  2.1488  1.3442
18375SOL     OW55702   9.044   2.853   8.113 -0.5752  0.5330 -0.0196
18375SOL    HW155703   9.051   2.803   8.032 -1.8179 -0.8078  0.6497
18375SOL    HW255704   9.099   2.805   8.175 -0.9479  0.5907  0.3562
18376SOL     OW55705   7.574   9.313   0.771  0.0271  0.7082  0.4361
18376SOL    HW155706   7.509   9.382   0.762  0.8797  1.8215  2.2539
18376SOL    HW255707   7.604   9.319   0.861  2.1670 -0.1881 -0.1377
18377SOL     OW55708   1.591   8.571   3.170 -0.2005  1.2610 -0.2619
18377SOL    HW155709   1.682   8.582   3.141  0.1634 -0.9501 -0.0636
18377SOL    HW255710   1.589   8.611   3.256  0.4569  1.7533 -0.4591
18378SOL     OW55711   8.146   2.001   7.056 -0.0837 -0.0858 -0.2175
18378SOL    HW155712   8.055   2.033   7.050  0.4974  1.8345  0.5216
18378SOL    HW255713   8.137   1.911   7.086 -1.7712 -0.0949 -0.6169
18379SOL     OW55714   5.824   5.184   6.634 -0.2833  0.4248  0.0194
18379SOL    HW155715   5.789   5.272   6.624  0.6135  0.8560  0.5439
18379SOL    HW255716   5.917   5.197   6.654 -0.2516 -0.6148  0.6307
18380SOL     OW55717   3.013   1.370   5.650  0.2433  0.4780  0.2618
18380SOL    HW155718   3.050   1.453   5.679  0.7786 -0.0806  1.2468
18380SOL    HW255719   3.087   1.323   5.612  0.3307 -0.2089  1.2452
18381SOL     OW55720   4.313   6.036   8.975 -0.0096  0.2991  0.1457
18381SOL    HW155721   4.351   5.973   9.035  1.7932  2.3045  1.2211
18381SOL    HW255722   4.352   6.015   8.890 -0.4287 -0.7845  0.1992
18382SOL     OW55723   2.975   7.330   5.779 -0.5185 -0.0879 -0.1974
18382SOL    HW155724   2.953   7.300   5.691 -0.5927 -0.0181 -0.2037
18382SOL    HW255725   3.034   7.264   5.814 -1.7912 -1.0024  0.3269
18383SOL     OW55726   5.576   9.738   2.823  0.9312 -0.5401  0.2288
18383SOL    HW155727   5.606   9.763   2.910 -0.7047  3.1005 -0.0743
18383SOL    HW255728   5.636   9.781   2.762  0.2881 -0.4751 -0.3854
18384SOL     OW55729   1.870   7.282   8.880 -0.4494  0.4209  0.2413
18384SOL    HW155730   1.946   7.315   8.832  0.0486 -0.8507  0.1098
18384SOL    HW255731   1.904   7.208   8.930 -1.2002  1.0427  1.7224
18385SOL     OW55732   9.413   4.553   7.002 -0.5528  0.0779  0.2467
18385SOL    HW155733   9.410   4.599   7.086 -2.7663  1.4432 -0.4724
18385SOL    HW255734   9.493   4.501   7.005 -0.4727  0.2180  3.1140
18386SOL     OW55735   9.604   8.247   2.112 -0.1499 -0.5475 -0.3467
18386SOL    HW155736   9.646   8.241   2.027 -0.3085 -1.8659 -0.3450
18386SOL    HW255737   9.573   8.159   2.130 -0.5102 -0.1899  0.8783
18387SOL     OW55738   9.531   9.602   1.769 -0.0646 -0.0211  0.3550
18387SOL    HW155739   9.612   9.629   1.725 -0.0057  0.7142  0.8942
18387SOL    HW255740   9.467   9.668   1.744  0.0850  0.6819  1.7097
18388SOL     OW55741   7.405   3.810   0.525 -0.2112 -0.3801 -0.1815
18388SOL    HW155742   7.325   3.810   0.578  1.4199  2.9499  2.7110
18388SOL    HW255743   7.463   3.748   0.570 -0.8213 -2.3382 -1.9294
18389SOL     OW55744   0.423   7.806   2.439 -0.1786 -0.1920 -0.2790
18389SOL    HW155745   0.439   7.762   2.355 -0.6710 -0.1530 -0.4014
18389SOL    HW255746   0.363   7.878   2.416  0.8188  0.7153 -0.1314
18390SOL     OW55747   9.379   9.369   2.131 -0.6448  0.0489 -0.2164
18390SOL    HW155748   9.296   9.341   2.171  1.1669 -2.1752  2.3086
18390SOL    HW255749   9.400   9.451   2.175 -1.0158  0.1415 -0.2043
18391SOL     OW55750   4.204   0.060   9.585 -0.2729  0.4977 -0.2330
18391SOL    HW155751   4.225   0.131   9.524  0.6057  0.1044 -0.4063
18391SOL    HW255752   4.229  -0.020   9.538 -0.0942  0.1563  0.4313
18392SOL     OW55753   3.252   3.841   4.895 -0.6261 -0.1768 -0.2542
18392SOL    HW155754   3.181   3.853   4.832 -1.3366  0.3395  0.6295
18392SOL    HW255755   3.226   3.892   4.971  2.3535  3.0885 -1.1656
18393SOL     OW55756   2.610   0.750   0.347  0.0523 -0.2112  0.3731
18393SOL    HW155757   2.547   0.796   0.402  2.4228 -0.6551  3.8468
18393SOL    HW255758   2.583   0.658   0.351 -0.1482 -0.1567  0.2646
18394SOL     OW55759   4.063   0.496   3.923 -0.1800 -0.0924  0.1884
18394SOL    HW155760   4.090   0.497   4.015  0.6230  0.6373 -0.0405
18394SOL    HW255761   4.130   0.548   3.878  0.1316 -1.4662 -1.0107
18395SOL     OW55762   9.915   8.386   6.468  1.0086 -0.3151 -0.3367
18395SOL    HW155763   9.835   8.430   6.440  0.0580 -1.5237  0.3771
18395SOL    HW255764   9.911   8.300   6.427  1.0037 -1.0559  1.1259
18396SOL     OW55765   1.016   5.970   3.161  0.2599  0.6062  0.8603
18396SOL    HW155766   1.016   6.050   3.109 -0.2967 -0.1920 -0.4342
18396SOL    HW255767   1.109   5.945   3.166  0.2442  0.1030 -0.7542
18397SOL     OW55768   2.700   5.306   5.296  0.0967  0.0967 -0.5060
18397SOL    HW155769   2.759   5.246   5.340 -1.0302 -1.0708 -0.5162
18397SOL    HW255770   2.634   5.328   5.362 -0.2057  0.3115 -0.8737
18398SOL     OW55771   7.485   9.009   6.683  0.3047 -0.3696 -0.2241
18398SOL    HW155772   7.526   8.928   6.653 -0.4881 -0.6702 -0.5273
18398SOL    HW255773   7.480   8.999   6.778  0.1474 -0.7105 -0.2666
18399SOL     OW55774   4.027   6.604   9.266  0.7097  0.6385  0.3105
18399SOL    HW155775   4.027   6.532   9.203  2.2890  2.3387 -1.7688
18399SOL    HW255776   3.940   6.600   9.306  0.3836 -1.7669 -0.4392
18400SOL     OW55777   8.110   8.727   4.431  0.1287  0.0258 -0.4166
18400SOL    HW155778   8.130   8.635   4.451 -1.0481 -0.1527  0.0155
18400SOL    HW255779   8.177   8.752   4.367  0.1614 -1.2830 -0.9428
18401SOL     OW55780   8.264   6.518   8.526  0.0590  0.0627  0.0059
18401SOL    HW155781   8.306   6.485   8.605  0.8868 -1.3028 -0.9529
18401SOL    HW255782   8.202   6.449   8.501  0.9300 -0.2763 -1.3603
18402SOL     OW55783   4.018   2.193   8.293  0.3302 -0.1955  0.0460
18402SOL    HW155784   4.037   2.116   8.238  1.0890 -0.2976  0.4278
18402SOL    HW255785   3.961   2.248   8.239 -0.1070 -0.9599 -0.2886
18403SOL     OW55786   1.120   9.108   9.158  0.5709  0.2755  0.1314
18403SOL    HW155787   1.147   9.040   9.096 -0.0901 -0.2845  0.4424
18403SOL    HW255788   1.186   9.105   9.227 -1.3445 -2.6672  2.0685
18404SOL     OW55789   2.500   7.930   9.606 -0.9488  0.4142 -0.0421
18404SOL    HW155790   2.501   7.867   9.533 -1.7943  0.5892 -0.2150
18404SOL    HW255791   2.438   7.997   9.579 -1.5288  0.3152  0.9733
18405SOL     OW55792   2.297   2.183   0.830  0.1651 -0.3506 -0.0639
18405SOL    HW155793   2.244   2.251   0.871  2.3367  1.5737 -0.2507
18405SOL    HW255794   2.276   2.188   0.737 -0.7459 -0.9735  0.0951
18406SOL     OW55795   5.356   9.685   9.094  0.5955  0.8891  0.0012
18406SOL    HW155796   5.403   9.695   9.012  1.1867 -3.1801 -0.3703
18406SOL    HW255797   5.419   9.645   9.154 -1.7828 -4.4651 -0.4192
18407SOL     OW55798   4.185   6.913   1.845  0.0958  0.3436 -0.8052
18407SOL    HW155799   4.279   6.933   1.853 -0.2678  1.7207  0.4785
18407SOL    HW255800   4.179   6.820   1.868  0.9383  0.7352  1.2394
18408SOL     OW55801   8.916   2.418   0.066  0.1429  0.2003 -0.2220
18408SOL    HW155802   8.993   2.373   0.101  0.0525 -0.5606 -0.9744
18408SOL    HW255803   8.924   2.508   0.098  2.0488  0.4820 -1.3345
18409SOL     OW55804   0.354   4.106   6.810  0.2950 -0.3200 -0.2874
18409SOL    HW155805   0.330   4.017   6.787 -0.8177 -0.2318  0.4753
18409SOL    HW255806   0.274   4.157   6.799  0.0711  0.0039  2.2052
18410SOL     OW55807   7.023   0.118   4.192 -0.1611 -0.2964 -0.1026
18410SOL    HW155808   7.046   0.136   4.100 -1.6057 -3.0328 -1.1081
18410SOL    HW255809   7.061   0.032   4.210  0.9669  0.6142  2.2721
18411SOL     OW55810   5.830   8.477   4.181  0.6157 -0.0617  0.3649
18411SOL    HW155811   5.878   8.560   4.179 -0.3971  0.5292 -0.9387
18411SOL    HW255812   5.755   8.494   4.238  1.4420 -0.7301  1.7158
18412SOL     OW55813   1.359   2.732   4.489 -0.3040  0.5317  0.1445
18412SOL    HW155814   1.431   2.795   4.486  0.8998 -0.7382  1.1715
18412SOL    HW255815   1.281   2.784   4.468  0.9802  1.7630 -2.0373
18413SOL     OW55816   4.163   9.739   2.450 -0.2549 -0.0171  0.1225
18413SOL    HW155817   4.193   9.701   2.533  0.5089 -0.1039 -0.1894
18413SOL    HW255818   4.196   9.680   2.383 -0.9281  0.0173 -0.2508
18414SOL     OW55819   2.872   0.819   7.420  0.5297 -0.2279  0.7205
18414SOL    HW155820   2.804   0.808   7.486  1.1692 -0.4114  1.3614
18414SOL    HW255821   2.938   0.875   7.462  1.8185 -1.8360  0.9196
18415SOL     OW55822   6.037   8.411   5.138  0.3896 -0.0296  0.6121
18415SOL    HW155823   6.090   8.339   5.104 -1.1033 -1.7857  1.8025
18415SOL    HW255824   5.956   8.405   5.088  0.6545  1.5889 -0.0582
18416SOL     OW55825   5.180   1.538   8.970 -0.2830 -0.1755  0.2847
18416SOL    HW155826   5.146   1.546   8.881 -1.1136  0.6650  0.6642
18416SOL    HW255827   5.275   1.531   8.958 -0.4584 -1.0982 -0.7138
18417SOL     OW55828   5.030   1.042   3.916 -0.5086  0.0056 -0.2904
18417SOL    HW155829   5.100   0.981   3.940 -0.8969 -0.1537  0.4866
18417SOL    HW255830   5.067   1.095   3.845 -0.1892 -1.1895 -1.0445
18418SOL     OW55831   3.975   2.222   1.081 -0.0565  0.2121  0.4345
18418SOL    HW155832   3.934   2.255   1.162 -0.4136 -0.1904  0.4192
18418SOL    HW255833   3.950   2.286   1.014 -0.6446 -0.0131  0.4321
18419SOL     OW55834   7.247   9.745   1.880 -0.2933 -0.1520  0.7386
18419SOL    HW155835   7.319   9.691   1.910 -0.8611 -3.3839 -2.8920
18419SOL    HW255836   7.287   9.806   1.818 -0.3060  0.1857  1.0591
18420SOL     OW55837   1.751   1.345   3.429  0.1022 -0.5670  0.1477
18420SOL    HW155838   1.662   1.332   3.462  0.0695 -1.6083 -0.3370
18420SOL    HW255839   1.774   1.262   3.389  0.6715  0.2246 -1.2243
18421SOL     OW55840   5.702   6.006   2.818  0.2400 -0.0566  0.3277
18421SOL    HW155841   5.702   5.931   2.758 -0.0112 -0.0810  0.3568
18421SOL    HW255842   5.766   6.066   2.781  0.2505 -0.1714  0.1585
18422SOL     OW55843   2.189   3.885   2.506 -0.2912  0.3775  0.2692
18422SOL    HW155844   2.172   3.969   2.549 -1.6589 -0.1908  0.9168
18422SOL    HW255845   2.179   3.820   2.575  1.6682 -0.2899 -0.0191
18423SOL     OW55846   1.641   6.619  -0.016  0.1741 -0.4040  0.1157
18423SOL    HW155847   1.680   6.702   0.011  0.4426 -0.2575 -0.6925
18423SOL    HW255848   1.674   6.555   0.047  2.5242 -0.4606 -1.0611
18424SOL     OW55849   7.738   3.508   5.909 -0.1250 -0.0569 -0.0342
18424SOL    HW155850   7.826   3.470   5.907 -0.5773 -1.1744  0.4872
18424SOL    HW255851   7.685   3.449   5.856 -0.8454 -0.1739  0.7895
18425SOL     OW55852   9.322   4.659   4.165  0.1337  0.0716  1.0522
18425SOL    HW155853   9.237   4.616   4.170  0.1725 -0.9597 -3.2376
18425SOL    HW255854   9.384   4.592   4.193 -0.2013 -0.9155 -0.4459
18426SOL     OW55855   5.670   9.142   7.755 -0.3792  0.0452  0.0788
18426SOL    HW155856   5.676   9.145   7.659 -1.6260  0.8321  0.0043
18426SOL    HW255857   5.753   9.179   7.785  0.5003 -1.2421 -0.6685
18427SOL     OW55858   4.732   5.303   0.659  0.5362  0.1417  0.4492
18427SOL    HW155859   4.790   5.379   0.666 -0.6521  1.1361 -0.0560
18427SOL    HW255860   4.757   5.262   0.577 -0.5928  1.6093 -0.7066
18428SOL     OW55861   3.834   6.670   3.650  0.2361 -0.1148  0.6975
18428SOL    HW155862   3.903   6.664   3.717  0.0071  0.8631  1.0379
18428SOL    HW255863   3.876   6.717   3.578 -0.9199  3.4898  2.1579
18429SOL     OW55864   6.472   2.950   1.545 -0.1560 -0.0773  0.3835
18429SOL    HW155865   6.411   2.912   1.482 -1.2920  1.3610  0.5742
18429SOL    HW255866   6.472   2.887   1.618 -2.2620  0.3713  0.8393
18430SOL     OW55867   1.276   6.835   8.727  0.2636 -0.3359  0.3297
18430SOL    HW155868   1.225   6.880   8.795  0.8351 -0.0455  0.5765
18430SOL    HW255869   1.319   6.906   8.679 -0.1773 -0.5368 -0.3766
18431SOL     OW55870   7.082   1.939   4.928 -0.1101 -0.2448  0.1014
18431SOL    HW155871   7.130   1.893   4.997  0.1803 -1.4079 -0.8405
18431SOL    HW255872   7.146   1.951   4.858 -0.0392  2.1074  0.5070
18432SOL     OW55873   5.268   6.732   5.696 -0.4296 -0.1475  0.1932
18432SOL    HW155874   5.342   6.792   5.707  0.0570 -0.7406  0.1955
18432SOL    HW255875   5.306   6.654   5.656 -0.7663 -1.0387  1.5493
18433SOL     OW55876   7.191   8.588   3.023  0.1077 -0.3476 -0.1046
18433SOL    HW155877   7.187   8.495   3.045 -2.0997 -0.4556 -0.7254
18433SOL    HW255878   7.187   8.590   2.927  0.2528  0.3733 -0.1043
18434SOL     OW55879   1.875   4.426   8.833 -0.1049  0.3485  0.3638
18434SOL    HW155880   1.880   4.521   8.840  2.0091  0.4594 -1.5730
18434SOL    HW255881   1.955   4.401   8.787  0.7663 -2.6386  3.0819
18435SOL     OW55882   2.876   0.923   1.536 -0.0065  0.0807 -0.0317
18435SOL    HW155883   2.959   0.897   1.496  1.3091 -0.4809  2.7823
18435SOL    HW255884   2.881   1.018   1.543  0.8565 -0.0152  0.9239
18436SOL     OW55885   3.172   2.798   7.699  0.0114  0.3555 -0.6720
18436SOL    HW155886   3.216   2.881   7.714  1.2573 -0.1899 -1.2012
18436SOL    HW255887   3.243   2.735   7.684 -0.6843 -1.4064  2.4373
18437SOL     OW55888   4.179   9.095   5.623 -0.4905  0.7224 -0.2688
18437SOL    HW155889   4.102   9.043   5.646  0.0070  0.7797  1.7125
18437SOL    HW255890   4.166   9.178   5.670  0.2715  1.1264 -0.7622
18438SOL     OW55891   7.222   0.976   4.696 -0.2105  0.4787 -0.5174
18438SOL    HW155892   7.256   1.065   4.688  2.8064 -0.5339 -0.2381
18438SOL    HW255893   7.299   0.923   4.716 -1.5488 -2.5169 -2.6018
18439SOL     OW55894   9.064   7.859   8.714  0.4562  0.4829 -0.4808
18439SOL    HW155895   9.135   7.802   8.741 -0.7133 -0.6801  0.2577
18439SOL    HW255896   9.019   7.882   8.795 -0.4936  0.5226 -0.9999
18440SOL     OW55897   2.793   2.019   7.412  0.1833  0.4682 -0.4051
18440SOL    HW155898   2.855   2.008   7.484 -0.0264  0.2486 -0.2570
18440SOL    HW255899   2.839   1.986   7.335 -0.9576 -3.0554  0.2420
18441SOL     OW55900   9.353   6.465   8.436  0.2382  0.2000 -0.3885
18441SOL    HW155901   9.294   6.401   8.396 -1.3327  0.6808  1.0429
18441SOL    HW255902   9.432   6.415   8.456 -0.1126 -0.7526 -1.2437
18442SOL     OW55903   7.491   4.079   8.964 -0.0542 -0.0446 -0.0048
18442SOL    HW155904   7.555   4.009   8.946 -0.6498 -0.0235 -2.6120
18442SOL    HW255905   7.417   4.033   9.004  0.5990 -0.4459  0.7882
18443SOL     OW55906   1.169   9.465   9.126 -0.6725  0.4380 -0.1518
18443SOL    HW155907   1.232   9.408   9.082 -0.5022 -1.5274  2.3551
18443SOL    HW255908   1.084   9.424   9.110 -0.6692  0.0351  0.7705
18444SOL     OW55909   7.682   7.441   5.148  0.0643  0.0728  0.5425
18444SOL    HW155910   7.740   7.366   5.133  0.3965  0.6054 -0.8928
18444SOL    HW255911   7.594   7.405   5.136  0.2399  0.0075 -0.6116
18445SOL     OW55912   1.762   3.356   5.779  0.0283 -0.1381  0.3674
18445SOL    HW155913   1.718   3.272   5.768  0.3380 -0.3987  1.0521
18445SOL    HW255914   1.730   3.389   5.863 -3.5163  2.5314 -1.7470
18446SOL     OW55915   3.746   9.152   5.154 -0.7049 -0.0956  0.4671
18446SOL    HW155916   3.762   9.125   5.064 -1.7428 -1.0296  0.5447
18446SOL    HW255917   3.787   9.239   5.161 -1.6971  0.5532 -1.2718
18447SOL     OW55918   7.161   8.138   8.937 -0.7439  0.3838  0.1226
18447SOL    HW155919   7.120   8.071   8.882 -0.9071  2.1574 -2.0849
18447SOL    HW255920   7.099   8.154   9.007 -1.0695 -1.1528  0.2187
18448SOL     OW55921   9.305   8.006   1.164  0.1597  0.3653  0.1012
18448SOL    HW155922   9.251   7.978   1.090 -1.3507  1.3409  0.8004
18448SOL    HW255923   9.347   8.086   1.134 -1.9432  1.8464  0.8747
18449SOL     OW55924  -0.028   3.842   3.433 -0.0970 -0.6663  0.2132
18449SOL    HW155925  -0.006   3.756   3.468 -0.1117 -0.1008  1.7240
18449SOL    HW255926   0.042   3.899   3.466 -0.7522  0.1138  0.2931
18450SOL     OW55927   6.300   5.834   6.610  0.5621 -0.4278 -0.6977
18450SOL    HW155928   6.374   5.863   6.663 -0.0968  0.4380 -0.2226
18450SOL    HW255929   6.300   5.893   6.535 -1.5599  1.7901  0.9069
18451SOL     OW55930   1.758   7.542   4.528 -0.5134  0.0439 -1.1748
18451SOL    HW155931   1.718   7.487   4.460 -0.4319 -0.9891 -0.3996
18451SOL    HW255932   1.834   7.582   4.484 -0.8217 -0.1069 -1.8697
18452SOL     OW55933   2.676   0.411   0.111  0.2544  0.3933  0.0607
18452SOL    HW155934   2.726   0.341   0.153 -0.1483 -0.0668 -0.2164
18452SOL    HW255935   2.728   0.436   0.035  0.2927  0.2312  0.0326
18453SOL     OW55936   5.351   9.548   6.962  0.2172 -0.1947 -0.1498
18453SOL    HW155937   5.318   9.638   6.956 -1.0344 -0.6401 -0.3461
18453SOL    HW255938   5.280   9.499   7.005  1.2743 -0.9027  0.8336
18454SOL     OW55939   5.724   7.672   5.799 -0.4294  0.0506  0.0923
18454SOL    HW155940   5.720   7.577   5.794 -0.6042 -0.0261  1.4959
18454SOL    HW255941   5.815   7.690   5.823 -0.4608  0.2242  0.0797
18455SOL     OW55942   2.774   9.712   5.762 -0.2396  0.3825  0.1835
18455SOL    HW155943   2.768   9.622   5.731  1.2663  0.6989 -1.1435
18455SOL    HW255944   2.743   9.765   5.689 -0.6023  0.9798  0.7584
18456SOL     OW55945   3.851   3.508   8.798  0.3759  0.2791 -0.4624
18456SOL    HW155946   3.812   3.585   8.757  0.9783  0.3339 -0.9532
18456SOL    HW255947   3.940   3.535   8.818  0.6637 -0.3613 -0.8586
18457SOL     OW55948   3.988   9.555   1.336  0.0660  0.4919  0.5137
18457SOL    HW155949   4.022   9.573   1.424  0.8371 -2.9933  1.0845
18457SOL    HW255950   4.067   9.538   1.284 -0.3790  2.5701 -0.9493
18458SOL     OW55951   8.801   1.254   6.682  0.1386 -0.0520 -0.2983
18458SOL    HW155952   8.796   1.255   6.586 -0.9501 -1.9030 -0.3079
18458SOL    HW255953   8.717   1.291   6.710 -0.2497 -1.0556 -0.0991
18459SOL     OW55954   7.026   9.736   9.462  0.4034  0.3029 -0.2262
18459SOL    HW155955   6.968   9.802   9.424  0.1622  0.7064  0.8001
18459SOL    HW255956   7.088   9.786   9.515 -1.3026 -0.3554  2.6263
18460SOL     OW55957   3.572   0.153   2.351 -0.1419 -0.0832 -0.4381
18460SOL    HW155958   3.607   0.187   2.433 -2.5227 -0.4625  0.8316
18460SOL    HW255959   3.563   0.230   2.294  1.6784  0.1567 -0.4647
18461SOL     OW55960   8.805   4.600   4.220  0.2215 -0.0326  0.3191
18461SOL    HW155961   8.730   4.544   4.241  0.4450 -0.8905 -1.0776
18461SOL    HW255962   8.767   4.673   4.171 -0.1803  1.5401  2.7667
18462SOL     OW55963   8.606   7.432   1.813 -0.0520  0.7929  0.2582
18462SOL    HW155964   8.687   7.398   1.850 -1.1385 -0.9245  1.2433
18462SOL    HW255965   8.590   7.377   1.736 -1.8373 -1.1527  1.8750
18463SOL     OW55966   0.560   3.417   8.691 -0.0341 -0.4279 -0.5353
18463SOL    HW155967   0.588   3.507   8.673 -1.5164  0.4230  1.0914
18463SOL    HW255968   0.603   3.394   8.773 -0.3982 -0.8738 -0.4670
18464SOL     OW55969   0.463   8.043   8.166 -0.1700  0.3840 -0.5448
18464SOL    HW155970   0.538   8.003   8.122 -1.6361 -1.9078 -1.1227
18464SOL    HW255971   0.395   8.048   8.098 -0.3230  3.2983 -0.3068
18465SOL     OW55972   6.179   8.058   4.781 -0.0048  0.4303  0.3184
18465SOL    HW155973   6.160   8.148   4.755  1.1234 -0.0876 -2.8155
18465SOL    HW255974   6.258   8.064   4.834  1.5101  1.2126 -1.8704
18466SOL     OW55975   6.172   7.983   9.273 -0.2747 -0.7794 -0.1427
18466SOL    HW155976   6.210   7.928   9.205 -0.2723  1.2346 -1.8940
18466SOL    HW255977   6.246   8.005   9.331  0.5278  0.2267 -1.4896
18467SOL     OW55978   2.064   2.263   0.115  0.2737 -0.4367 -0.0484
18467SOL    HW155979   2.045   2.265   0.208  0.9271 -0.8137  0.0925
18467SOL    HW255980   1.995   2.317   0.076  1.1508  1.4113  0.8379
18468SOL     OW55981   5.897   3.376   4.617  0.0722  0.0063  0.4539
18468SOL    HW155982   5.825   3.438   4.630  0.1215 -0.0197  0.8590
18468SOL    HW255983   5.974   3.432   4.602 -0.4564  0.0696 -2.6494
18469SOL     OW55984   9.967   7.998   2.717  0.4819 -0.5094 -0.4575
18469SOL    HW155985  10.020   7.949   2.779 -1.2745 -0.1370  1.4329
18469SOL    HW255986   9.884   8.013   2.762 -0.4751  0.7658 -2.4799
18470SOL     OW55987   3.636   2.442   5.225 -0.3914 -0.1775  0.1490
18470SOL    HW155988   3.705   2.482   5.278  0.4120 -1.3787  0.0563
18470SOL    HW255989   3.603   2.369   5.278 -0.0240 -0.9929 -0.7068
18471SOL     OW55990   4.158   3.569   8.252  0.4009 -0.6262 -0.0356
18471SOL    HW155991   4.137   3.598   8.163 -0.7555  2.3281  1.0664
18471SOL    HW255992   4.161   3.474   8.246  0.6551 -0.5282 -3.2720
18472SOL     OW55993   9.527   8.952   1.319  0.3570 -0.4070 -0.1562
18472SOL    HW155994   9.467   9.000   1.261 -1.8861 -2.5474  0.1967
18472SOL    HW255995   9.600   8.926   1.263  0.1940  0.9086 -1.0200
18473SOL     OW55996   7.563   3.627   1.585 -0.3865  0.0280  0.0650
18473SOL    HW155997   7.655   3.650   1.593 -0.2203  0.0514 -1.4883
18473SOL    HW255998   7.563   3.539   1.548 -1.0109 -0.6626  1.6505
18474SOL     OW55999   9.876   7.639   5.428 -0.2936 -0.0224  0.4155
18474SOL    HW156000   9.847   7.730   5.426 -0.1618  0.0148 -0.1177
18474SOL    HW256001   9.901   7.623   5.519 -0.7402  0.3365  0.6038
18475SOL     OW56002   3.809   4.380   7.893  0.7848  0.5087  0.4525
18475SOL    HW156003   3.828   4.469   7.924  1.5707  0.7786 -0.7401
18475SOL    HW256004   3.891   4.350   7.854  0.4547 -0.6484  0.6166
18476SOL     OW56005   9.437   1.879   9.482 -0.2524 -0.1192  0.1640
18476SOL    HW156006   9.432   1.806   9.543 -0.1047 -0.4131 -0.1679
18476SOL    HW256007   9.524   1.917   9.497 -0.3023 -0.0579  0.2902
18477SOL     OW56008   6.839   1.816   5.018 -0.4216  0.2050 -0.6005
18477SOL    HW156009   6.817   1.772   4.936  0.9723  0.4425 -1.1358
18477SOL    HW256010   6.909   1.877   4.995 -0.7671  1.0780  0.5634
18478SOL     OW56011   7.562   7.846   3.715  0.6249  0.1976 -0.2785
18478SOL    HW156012   7.485   7.884   3.757  1.6641  1.6335  0.4445
18478SOL    HW256013   7.531   7.814   3.631 -0.6247  1.4271 -0.3180
18479SOL     OW56014   2.692   5.672   6.926 -0.2569 -0.1392  0.2267
18479SOL    HW156015   2.747   5.663   7.003 -0.4644 -1.0006  0.2880
18479SOL    HW256016   2.753   5.669   6.852 -0.3185 -2.9224  0.2031
18480SOL     OW56017   2.844   1.611   5.598 -0.1330  0.0153  0.2414
18480SOL    HW156018   2.750   1.598   5.592 -0.1919  0.4933  0.1067
18480SOL    HW256019   2.877   1.530   5.636 -0.7383  0.3244  1.4645
18481SOL     OW56020   4.756   7.890   4.712  0.5854  0.0194  0.3210
18481SOL    HW156021   4.731   7.979   4.736 -0.0385 -0.4298  1.4369
18481SOL    HW256022   4.743   7.839   4.792  0.4387 -1.1720 -0.4303
18482SOL     OW56023   0.534   0.655   0.492  0.0380  0.2324  0.3178
18482SOL    HW156024   0.525   0.608   0.575  2.0916  0.3531  0.6419
18482SOL    HW256025   0.475   0.608   0.432 -1.5004  0.1584  1.8122
18483SOL     OW56026   8.535   8.699   0.209 -0.1693  0.1409  0.4916
18483SOL    HW156027   8.458   8.648   0.234  0.6866 -1.3634  0.1781
18483SOL    HW256028   8.518   8.787   0.244 -4.1421  1.2929 -3.4272
18484SOL     OW56029   2.186   9.890   5.657  0.3307  1.1216 -0.3398
18484SOL    HW156030   2.241   9.815   5.637  0.7149  1.5166 -0.7978
18484SOL    HW256031   2.231   9.934   5.729 -0.0954  0.7068  0.1876
18485SOL     OW56032   3.339   2.285   9.537  0.8178  0.0554 -0.0853
18485SOL    HW156033   3.333   2.360   9.596  0.7356 -1.8680  2.5127
18485SOL    HW256034   3.284   2.309   9.463  0.3104  2.3049  0.9181
18486SOL     OW56035   3.554   6.176   9.372 -0.1442  0.5825  0.2957
18486SOL    HW156036   3.471   6.206   9.335  0.2766  0.3918 -0.8336
18486SOL    HW256037   3.552   6.081   9.361  1.5597  0.7856 -2.7352
18487SOL     OW56038   5.826   2.779   3.054 -0.3020  0.0681 -0.2359
18487SOL    HW156039   5.859   2.727   2.981  0.2320 -0.8577  0.6519
18487SOL    HW256040   5.802   2.715   3.121  2.6242  0.9659  1.8579
18488SOL     OW56041   6.807   6.670   9.852  0.1438  0.3492  0.5978
18488SOL    HW156042   6.879   6.627   9.898 -0.6248 -1.8316 -0.1284
18488SOL    HW256043   6.822   6.650   9.759 -1.2972 -0.0397  0.4194
18489SOL     OW56044   5.507   1.994   2.868  0.0354  0.0861 -0.0007
18489SOL    HW156045   5.553   1.917   2.903 -1.2585 -1.0276 -0.6814
18489SOL    HW256046   5.574   2.042   2.820  0.8348 -0.6845  0.3181
18490SOL     OW56047   6.487   1.976   6.035 -0.3762  0.4694  0.1677
18490SOL    HW156048   6.424   1.966   5.964  0.3609  0.2829 -0.4672
18490SOL    HW256049   6.541   1.898   6.031 -1.5987 -0.5786  2.2600
18491SOL     OW56050   8.043   1.851   3.240  0.5262 -0.3835  0.4378
18491SOL    HW156051   8.032   1.757   3.252  0.0759 -0.4497 -0.4642
18491SOL    HW256052   7.985   1.891   3.305  0.7033 -0.7181  0.8076
18492SOL     OW56053   2.150   3.651   4.185 -0.3044 -0.2646 -0.0601
18492SOL    HW156054   2.138   3.690   4.271 -1.2303 -2.7303  1.0282
18492SOL    HW256055   2.242   3.625   4.183  0.1049  1.1448 -0.4643
18493SOL     OW56056   1.921   4.154   2.202  0.1428 -0.2885 -0.2482
18493SOL    HW156057   1.831   4.186   2.201 -0.0577 -0.8507 -1.2273
18493SOL    HW256058   1.914   4.061   2.221  0.5158 -0.3393 -0.3510
18494SOL     OW56059   7.758   5.060   5.549  0.0210  0.3544  0.1333
18494SOL    HW156060   7.713   4.998   5.606  0.9319 -0.5395 -0.0931
18494SOL    HW256061   7.827   5.009   5.508 -0.3085  1.1033 -1.4135
18495SOL     OW56062   7.930   2.515   1.673 -0.4503 -0.4137 -0.0218
18495SOL    HW156063   7.964   2.435   1.713  0.5931  0.4453  0.8758
18495SOL    HW256064   7.974   2.586   1.720 -2.1898  0.7292 -0.0305
18496SOL     OW56065   8.378   8.339   4.147  0.3309  0.7118  0.2738
18496SOL    HW156066   8.432   8.289   4.086  1.1078  0.1961  1.3609
18496SOL    HW256067   8.338   8.273   4.204  0.3097  1.2384  0.8765
18497SOL     OW56068   2.795   7.182   3.089  0.0143  0.6783  0.1200
18497SOL    HW156069   2.734   7.212   3.021  0.2803 -0.2484 -0.5414
18497SOL    HW256070   2.881   7.191   3.050  0.0991 -1.1066 -0.1915
18498SOL     OW56071   2.938   0.952   3.721 -0.5808 -0.0354 -0.0383
18498SOL    HW156072   2.951   1.006   3.799 -0.4459  1.4599 -1.0594
18498SOL    HW256073   2.937   1.014   3.649 -0.0755 -1.4446 -1.3076
18499SOL     OW56074   6.109   5.285   6.705  0.3577  0.3596  0.0167
18499SOL    HW156075   6.126   5.193   6.727  0.5167  0.2023 -0.7526
18499SOL    HW256076   6.144   5.296   6.617 -2.4574  0.3535 -1.1868
18500SOL     OW56077   9.369   0.462   9.364 -0.2473 -0.0329 -0.4406
18500SOL    HW156078   9.277   0.474   9.342  0.2093  1.0218 -1.8870
18500SOL    HW256079   9.370   0.385   9.420 -1.8688 -0.8056 -1.4047
18501SOL     OW56080   1.286   2.086   4.752 -0.4954 -0.4082  0.1775
18501SOL    HW156081   1.310   2.168   4.795  0.3785 -0.4507 -0.2090
18501SOL    HW256082   1.198   2.101   4.718 -1.0358 -0.2422  1.6218
18502SOL     OW56083   5.882   3.790   4.252 -0.2486 -0.0344 -0.0667
18502SOL    HW156084   5.941   3.739   4.307 -1.2387 -0.8007  0.3077
18502SOL    HW256085   5.840   3.852   4.312  0.3956  0.7404 -0.3888
18503SOL     OW56086   1.261   3.473   1.618 -0.6258  0.0761  0.0211
18503SOL    HW156087   1.272   3.562   1.650 -1.0198  0.5279 -1.0291
18503SOL    HW256088   1.284   3.478   1.525 -0.7786 -0.8854 -0.0859
18504SOL     OW56089   7.467   5.094   7.884  0.0786 -0.1163  0.0315
18504SOL    HW156090   7.551   5.071   7.924 -0.2536 -0.5750  0.4779
18504SOL    HW256091   7.486   5.098   7.790  0.1990 -2.1626 -0.0809
18505SOL     OW56092   7.645   5.349   9.696  0.1014 -0.1216 -0.4163
18505SOL    HW156093   7.670   5.441   9.702 -2.1925  0.5757 -0.7129
18505SOL    HW256094   7.595   5.342   9.615  0.0719 -1.5959 -0.3077
18506SOL     OW56095   4.974   3.839   8.476 -0.1456  0.3496  0.0801
18506SOL    HW156096   5.051   3.869   8.427  0.6425 -1.3638  0.1752
18506SOL    HW256097   5.003   3.759   8.520 -2.2131 -0.9066 -0.6383
18507SOL     OW56098   6.830   3.998   9.767 -0.6286  0.2271  0.7632
18507SOL    HW156099   6.920   4.009   9.796  0.3006 -2.7928 -0.5534
18507SOL    HW256100   6.782   3.974   9.847  0.5324 -1.5344  1.0013
18508SOL     OW56101   1.499   3.290   6.704  0.2750  0.7333  0.1888
18508SOL    HW156102   1.500   3.340   6.623  0.0524  0.6653  0.1446
18508SOL    HW256103   1.407   3.271   6.720  0.4805 -1.9462 -1.2047
18509SOL     OW56104   7.112   5.895   0.746 -0.3488 -0.2093  0.1118
18509SOL    HW156105   7.186   5.834   0.756  0.2460  0.3961 -0.4716
18509SOL    HW256106   7.034   5.840   0.754  0.1772 -1.0203 -0.2428
18510SOL     OW56107   8.231   0.602   5.883  0.3947 -0.2730 -0.2590
18510SOL    HW156108   8.245   0.635   5.795 -0.6340 -1.1889 -0.7861
18510SOL    HW256109   8.136   0.605   5.895  0.6030  1.5366  1.5123
18511SOL     OW56110   0.345   0.086   3.093 -0.6170  0.9586 -0.0585
18511SOL    HW156111   0.343   0.065   3.186  1.9612  0.9574  0.0656
18511SOL    HW256112   0.340   0.182   3.091  2.6325  1.2634  0.4117
18512SOL     OW56113   8.346   8.227   4.522  0.0823  0.2715  1.0590
18512SOL    HW156114   8.442   8.228   4.523  0.1234  0.9475 -0.2911
18512SOL    HW256115   8.323   8.172   4.447 -0.4744  2.6858 -0.6772
18513SOL     OW56116   0.506   9.283   7.007 -0.3618  0.8030  0.3685
18513SOL    HW156117   0.448   9.343   7.053 -0.5499  1.2624 -0.4541
18513SOL    HW256118   0.450   9.209   6.982 -0.6478  1.3321 -0.5878
18514SOL     OW56119   0.997   5.815   5.553  0.1991  0.6817 -0.7992
18514SOL    HW156120   0.942   5.750   5.509  0.2902  1.0093 -1.3989
18514SOL    HW256121   0.935   5.866   5.606  0.4667 -1.9059  2.3040
18515SOL     OW56122   5.265   5.260   0.847  0.0025  0.3436  0.0793
18515SOL    HW156123   5.247   5.341   0.894 -0.6857  0.4748 -0.3869
18515SOL    HW256124   5.360   5.254   0.844  0.0660  0.3985  1.3627
18516SOL     OW56125   9.864   1.813   2.172 -0.5554  0.4622 -0.1683
18516SOL    HW156126   9.885   1.906   2.165 -0.6436  0.5344  0.4522
18516SOL    HW256127   9.918   1.771   2.106 -0.8887  1.0078 -0.8052
18517SOL     OW56128   9.515   3.125   0.312 -0.5675  0.0092 -0.4574
18517SOL    HW156129   9.546   3.145   0.400  0.2647  0.1735 -0.7675
18517SOL    HW256130   9.548   3.198   0.258 -0.1475 -0.6117 -1.0719
18518SOL     OW56131   4.108   5.267   8.466 -0.3030  0.2645  0.2786
18518SOL    HW156132   4.099   5.258   8.371  1.4827 -0.4229  0.1290
18518SOL    HW256133   4.201   5.285   8.479 -0.4283 -0.1360  1.9444
18519SOL     OW56134   1.822   3.280   1.231  0.2813  0.1203  0.1792
18519SOL    HW156135   1.842   3.337   1.305 -1.8845  0.6751  0.4253
18519SOL    HW256136   1.902   3.230   1.217  1.4945  1.5778  1.4473
18520SOL     OW56137   5.977   3.990   3.648 -0.3137  0.1463 -0.1870
18520SOL    HW156138   5.990   3.973   3.555  0.1347 -0.8858  0.0491
18520SOL    HW256139   5.883   3.980   3.662 -0.0716 -2.5691 -0.0273
18521SOL     OW56140   8.164   1.561   2.375  0.9362  0.1383  0.2608
18521SOL    HW156141   8.241   1.576   2.429 -0.1543  1.8728  1.4379
18521SOL    HW256142   8.095   1.536   2.437  0.1269  0.2406 -0.5632
18522SOL     OW56143   2.114   2.112   2.758  0.3658 -0.1267  0.2109
18522SOL    HW156144   2.083   2.196   2.724 -2.0295 -0.6497  0.9135
18522SOL    HW256145   2.142   2.131   2.848 -0.5254 -0.1266  0.4964
18523SOL     OW56146   9.073   4.673   0.687 -0.2036  0.4038 -0.2015
18523SOL    HW156147   8.979   4.655   0.696 -0.6471  2.7878  0.6013
18523SOL    HW256148   9.106   4.674   0.776  0.4584  0.2124 -0.4380
18524SOL     OW56149   5.215   9.535   6.673  1.2415  0.0163 -0.0334
18524SOL    HW156150   5.256   9.492   6.748  1.8197  1.6375  0.6078
18524SOL    HW256151   5.203   9.464   6.609  1.0983 -1.3111  1.4152
18525SOL     OW56152   5.594   1.206   3.374 -0.1056 -0.5110  0.6321
18525SOL    HW156153   5.661   1.260   3.416  0.6050 -1.8428  1.2365
18525SOL    HW256154   5.553   1.158   3.445 -0.1873 -1.3579  0.0300
18526SOL     OW56155   6.948   0.569   6.535  0.9190  0.3432  0.1868
18526SOL    HW156156   6.959   0.583   6.629  1.6459 -1.5834  0.4482
18526SOL    HW256157   6.910   0.650   6.503 -0.6358  0.5648  2.3553
18527SOL     OW56158   2.886   0.180   2.318 -0.4356 -0.0391  0.2783
18527SOL    HW156159   2.943   0.141   2.384  0.6591 -0.8858 -1.0820
18527SOL    HW256160   2.828   0.239   2.366 -1.0548 -2.1038  2.2550
18528SOL     OW56161   5.340   6.423   8.427  0.1704  0.3605 -0.2255
18528SOL    HW156162   5.257   6.380   8.407  0.1540 -0.3184  1.2307
18528SOL    HW256163   5.393   6.410   8.348 -0.5550 -0.5527 -0.5718
18529SOL     OW56164   2.866   3.447   0.964  0.1688  0.3330 -0.3600
18529SOL    HW156165   2.816   3.512   1.015  0.4170  1.9241 -2.0555
18529SOL    HW256166   2.954   3.484   0.958  0.4006 -0.3185 -1.1176
18530SOL     OW56167   2.454   1.120   0.872 -0.3592 -0.7250 -0.2182
18530SOL    HW156168   2.478   1.159   0.956 -0.0229  0.2081 -0.7300
18530SOL    HW256169   2.484   1.184   0.807 -1.5175 -0.9637 -1.0041
18531SOL     OW56170   9.739   9.336   2.588  0.2700 -0.2552  0.1031
18531SOL    HW156171   9.648   9.320   2.565 -0.0415 -0.8143  1.6633
18531SOL    HW256172   9.757   9.279   2.662  1.6584  0.4358  0.3483
18532SOL     OW56173   1.483   4.510   6.296 -0.1146 -0.2111 -0.1693
18532SOL    HW156174   1.467   4.437   6.236  0.5995 -0.1872 -0.3913
18532SOL    HW256175   1.574   4.536   6.280 -0.1422  0.2715  0.4047
18533SOL     OW56176   5.189   0.951   1.976  0.2683  0.2484 -0.3473
18533SOL    HW156177   5.156   1.029   1.932  0.0606  1.6008  2.0446
18533SOL    HW256178   5.118   0.888   1.969 -1.1394  1.6117  0.8910
18534SOL     OW56179   5.837   6.710   2.461  0.4497  0.4899 -0.0306
18534SOL    HW156180   5.796   6.770   2.399  0.7926 -0.2163 -0.9486
18534SOL    HW256181   5.930   6.712   2.440  0.4190 -0.6774 -0.3692
18535SOL     OW56182   6.104   3.562   4.600 -0.1222  0.1562 -0.1361
18535SOL    HW156183   6.106   3.647   4.555  1.5984 -0.7928 -2.0005
18535SOL    HW256184   6.143   3.501   4.538  0.8634 -1.5680  2.0426
18536SOL     OW56185   8.930   4.559   8.685  0.7301 -0.0360  0.5789
18536SOL    HW156186   8.903   4.590   8.771  1.6768 -1.6657  1.5157
18536SOL    HW256187   8.922   4.464   8.690 -3.7430 -0.1216 -2.7203
18537SOL     OW56188   8.047   0.375   0.169 -0.1213 -0.0355 -0.0373
18537SOL    HW156189   7.976   0.432   0.140  0.6458  1.1250  0.3123
18537SOL    HW256190   8.065   0.402   0.259  1.0765  0.0249 -0.2771
18538SOL     OW56191   6.335   8.804   6.474  0.0929 -0.0847 -0.0960
18538SOL    HW156192   6.268   8.780   6.538  1.5156  1.2930  2.0395
18538SOL    HW256193   6.300   8.882   6.431  0.2651  0.6443  1.0253
18539SOL     OW56194   9.952   5.179   4.839  0.5743  0.2333 -0.1337
18539SOL    HW156195   9.971   5.229   4.761  1.8447 -0.0585 -0.0226
18539SOL    HW256196   9.984   5.091   4.820  1.1891  0.2389  0.8220
18540SOL     OW56197   5.255   1.521   2.689 -0.1281  0.4236 -0.2854
18540SOL    HW156198   5.215   1.481   2.767  2.1763 -1.1085  0.2233
18540SOL    HW256199   5.182   1.557   2.640 -1.8249  0.0141  1.8078
18541SOL     OW56200   6.430   2.976   1.247 -0.0936 -0.1392 -0.2483
18541SOL    HW156201   6.378   3.047   1.286 -0.5421  1.2224 -3.0220
18541SOL    HW256202   6.365   2.911   1.221  0.1183 -0.6970  0.6149
18542SOL     OW56203   3.580   4.019   0.745  0.3250 -0.7382  0.1018
18542SOL    HW156204   3.653   4.059   0.697  0.1448  0.2741  0.6375
18542SOL    HW256205   3.507   4.022   0.683  1.0532 -3.1037 -0.9751
18543SOL     OW56206   7.312   5.124   7.622 -0.3053 -0.0457 -0.5751
18543SOL    HW156207   7.238   5.154   7.570 -0.0505  1.2834 -0.2166
18543SOL    HW256208   7.372   5.199   7.623 -0.3006 -0.0210  1.5914
18544SOL     OW56209   4.477   0.303   3.341 -0.0605 -0.4082  0.0370
18544SOL    HW156210   4.404   0.364   3.350 -0.4230 -0.5351 -1.7118
18544SOL    HW256211   4.438   0.217   3.351 -0.3152 -0.5105 -1.6675
18545SOL     OW56212   9.260   0.918   6.774 -0.7110 -0.0327 -0.7369
18545SOL    HW156213   9.328   0.859   6.741 -0.0150 -0.5338  1.4174
18545SOL    HW256214   9.286   0.936   6.865 -2.2737  1.5773 -0.5571
18546SOL     OW56215   0.296   2.029   1.424  0.6067  0.2524 -0.0794
18546SOL    HW156216   0.288   2.018   1.518 -0.0561 -0.6764 -0.2165
18546SOL    HW256217   0.323   2.120   1.411 -1.9034  1.2242  0.9153
18547SOL     OW56218   5.344   6.266   2.001  0.2092  0.0781 -0.0466
18547SOL    HW156219   5.433   6.238   1.979  1.2921  2.2069  1.2576
18547SOL    HW256220   5.357   6.336   2.065 -2.3801  1.1538 -0.5914
18548SOL     OW56221   5.676   6.417   8.683 -0.2142 -0.0903 -0.1118
18548SOL    HW156222   5.697   6.370   8.603 -2.2806 -0.3086 -0.5703
18548SOL    HW256223   5.585   6.396   8.701 -0.0170  0.5316  1.9204
18549SOL     OW56224   7.423   0.133   2.036 -0.6677  0.0496 -0.0307
18549SOL    HW156225   7.494   0.172   2.088 -0.6610 -0.0005 -0.0017
18549SOL    HW256226   7.467   0.067   1.982 -0.8753 -0.8869  0.9257
18550SOL     OW56227   5.571   1.991   6.422 -0.0537  0.2715  0.1134
18550SOL    HW156228   5.543   1.931   6.353  0.2191 -0.1662  0.3726
18550SOL    HW256229   5.659   2.019   6.396  0.9255 -1.5147  1.2757
18551SOL     OW56230   7.894   0.030   8.671  0.2376  0.5008 -0.0464
18551SOL    HW156231   7.951   0.107   8.677  0.0238  0.5775  1.1467
18551SOL    HW256232   7.952  -0.039   8.638  0.6327  0.9641 -0.3436
18552SOL     OW56233   8.061   4.651   6.476 -0.0723 -0.2415  0.5321
18552SOL    HW156234   8.018   4.667   6.560  0.3606  0.4227  0.6335
18552SOL    HW256235   8.044   4.729   6.424 -1.3560 -1.1377 -0.4613
18553SOL     OW56236   8.404   5.656   5.060 -0.5705  0.0420  0.2090
18553SOL    HW156237   8.391   5.649   4.966  1.5070 -3.1161  0.0077
18553SOL    HW256238   8.316   5.658   5.097 -1.4166  0.4550 -1.7271
18554SOL     OW56239   1.784   4.497   6.175  0.3716 -0.0260  0.3353
18554SOL    HW156240   1.762   4.565   6.112 -0.5277  1.1350  1.8160
18554SOL    HW256241   1.812   4.422   6.122 -1.0775  0.6167 -1.4241
18555SOL     OW56242   2.035   7.593   0.838  0.3374 -0.0884 -0.1078
18555SOL    HW156243   2.030   7.569   0.930  0.3051 -1.6614 -0.4942
18555SOL    HW256244   2.123   7.566   0.811 -0.1171 -0.9073 -0.8518
18556SOL     OW56245   7.407   3.820   4.032  0.1009 -0.0252  0.0412
18556SOL    HW156246   7.407   3.844   4.125 -0.0609  0.7620 -0.1555
18556SOL    HW256247   7.431   3.901   3.986  1.3715 -0.7026 -0.5334
18557SOL     OW56248   8.616   2.091   0.402  0.1046  0.0576 -0.8377
18557SOL    HW156249   8.712   2.095   0.396  0.0639  0.9167 -1.0650
18557SOL    HW256250   8.592   2.165   0.458 -0.4220 -0.2604 -0.6317
18558SOL     OW56251   8.587   2.987   3.227  0.1550  0.1557 -0.0143
18558SOL    HW156252   8.505   2.989   3.176 -0.0531 -2.3145  0.0761
18558SOL    HW256253   8.655   3.010   3.163  0.0001 -3.6469 -1.8616
18559SOL     OW56254   6.554   1.037   1.539  0.2561 -0.1476 -0.5076
18559SOL    HW156255   6.598   0.990   1.468 -0.5870 -0.4311 -0.8520
18559SOL    HW256256   6.462   1.037   1.514  0.1341  0.9806 -0.1079
18560SOL     OW56257   2.867   2.981   0.076  0.4150 -0.4454 -0.0484
18560SOL    HW156258   2.956   2.996   0.045  0.4005  0.3780  0.2766
18560SOL    HW256259   2.852   3.051   0.140 -2.0369  2.3581 -3.3347
18561SOL     OW56260   3.995   8.732   9.113 -0.2136 -0.2900 -0.0288
18561SOL    HW156261   4.013   8.665   9.047 -1.2606  0.1851 -0.8372
18561SOL    HW256262   3.949   8.801   9.064  0.3308  0.7490  0.9073
18562SOL     OW56263   0.984   6.201   3.041 -0.2701  0.5109  0.2920
18562SOL    HW156264   0.920   6.253   3.090 -0.0802  1.0698 -0.0414
18562SOL    HW256265   1.067   6.246   3.056 -0.2381  0.8059 -0.6946
18563SOL     OW56266   1.401   2.969   0.856 -0.2438  0.3039 -0.0066
18563SOL    HW156267   1.492   2.998   0.850 -0.7006  1.9376  0.5471
18563SOL    HW256268   1.376   2.987   0.947 -0.6365 -1.7449  0.3515
18564SOL     OW56269   6.784   1.086   4.182 -0.3874  0.0945  0.1981
18564SOL    HW156270   6.722   1.112   4.251 -2.0611 -1.7189 -0.5365
18564SOL    HW256271   6.866   1.070   4.229 -1.4389 -0.9340  1.8008
18565SOL     OW56272   6.740   8.323   1.426 -0.0062 -0.0398 -0.0884
18565SOL    HW156273   6.667   8.361   1.475  0.9680  0.7737  0.7828
18565SOL    HW256274   6.818   8.353   1.473  0.9089 -0.4174 -1.3256
18566SOL     OW56275   9.376   3.347   8.902  0.4062 -0.0219 -0.0246
18566SOL    HW156276   9.419   3.432   8.897  0.1431  0.1102 -0.0563
18566SOL    HW256277   9.403   3.302   8.822 -1.1209  0.8263 -1.0627
18567SOL     OW56278   1.219   9.228   9.608 -0.0851 -0.4988  0.0320
18567SOL    HW156279   1.124   9.232   9.624 -0.1449  0.0498 -0.4132
18567SOL    HW256280   1.227   9.224   9.513  0.3720  2.2975 -0.1546
18568SOL     OW56281   8.405   0.168   1.252  0.2943  0.4092 -0.0276
18568SOL    HW156282   8.325   0.128   1.218  0.1395  0.2875  0.4662
18568SOL    HW256283   8.385   0.262   1.254  0.6707  0.5259 -1.2186
18569SOL     OW56284   4.125   8.639   1.521 -0.4776 -0.1102 -0.1559
18569SOL    HW156285   4.095   8.729   1.508  1.6063  0.4056 -1.8632
18569SOL    HW256286   4.198   8.646   1.582  0.2547 -0.4805 -0.9531
18570SOL     OW56287   3.333   4.904   4.317 -1.0533  0.0372  0.2616
18570SOL    HW156288   3.319   4.993   4.350  1.7430  0.4916  0.4883
18570SOL    HW256289   3.374   4.916   4.232 -1.9410 -1.0924 -0.3563
18571SOL     OW56290   9.607   8.287   8.083  0.4081  0.1100  0.0446
18571SOL    HW156291   9.552   8.210   8.075  0.3916  0.0591  0.6066
18571SOL    HW256292   9.547   8.361   8.074  0.5626  0.0729 -1.4428
18572SOL     OW56293   7.766   7.166   4.653 -0.4700 -0.0387 -0.1642
18572SOL    HW156294   7.787   7.232   4.587  0.5748  0.6763  0.8610
18572SOL    HW256295   7.691   7.203   4.700  1.1792  1.3119  1.5546
18573SOL     OW56296   6.466   6.707   0.445 -0.2099 -0.0400 -0.7608
18573SOL    HW156297   6.445   6.728   0.535  0.6840 -2.5666  0.1226
18573SOL    HW256298   6.384   6.675   0.408 -0.4747  0.6004 -0.7460
18574SOL     OW56299   3.884   7.973   0.533 -0.5956  0.2537  0.1515
18574SOL    HW156300   3.835   7.892   0.547 -1.4293  0.5800 -0.7631
18574SOL    HW256301   3.862   8.027   0.609  0.0797 -0.4093  0.8408
18575SOL     OW56302   1.409   9.787   4.356 -0.4018  0.2475  0.0062
18575SOL    HW156303   1.338   9.826   4.407 -0.1805 -0.6283  1.0236
18575SOL    HW256304   1.472   9.858   4.344 -0.4327  0.4736  1.0282
18576SOL     OW56305   2.009   2.146   4.808 -0.4158 -0.3733 -0.3417
18576SOL    HW156306   1.987   2.238   4.822 -1.3667 -0.7613  0.9929
18576SOL    HW256307   2.002   2.133   4.714  1.7475  1.3768 -0.8396
18577SOL     OW56308   8.075   6.567   2.148 -0.0048  0.6586  0.1084
18577SOL    HW156309   8.049   6.610   2.229 -0.0436  0.1120  0.3845
18577SOL    HW256310   8.170   6.559   2.155 -0.2137 -1.5251  1.1767
18578SOL     OW56311   8.292   0.939   2.557  0.2351 -0.1613 -0.1055
18578SOL    HW156312   8.273   1.027   2.590  1.5036  0.1111 -0.0469
18578SOL    HW256313   8.269   0.882   2.630  0.4958  0.2180  0.2794
18579SOL     OW56314   8.758   4.977   2.934 -0.7030  0.1560 -0.0711
18579SOL    HW156315   8.763   4.890   2.974 -0.3403 -1.6447 -3.6570
18579SOL    HW256316   8.849   5.005   2.926 -0.6477 -0.2963 -1.1489
18580SOL     OW56317   0.239   7.596   9.339  0.1815  0.2871  0.3570
18580SOL    HW156318   0.188   7.516   9.346 -0.8458  0.8278 -0.5987
18580SOL    HW256319   0.283   7.604   9.423  0.2923 -1.2554  0.4748
18581SOL     OW56320   2.420   2.113   5.123  0.2333  0.4307  0.0891
18581SOL    HW156321   2.419   2.208   5.121 -2.3067  0.4513 -1.3110
18581SOL    HW256322   2.412   2.091   5.216 -2.2122  1.6727  0.2302
18582SOL     OW56323   9.006   0.420   6.214 -0.5061 -0.3213 -0.3660
18582SOL    HW156324   9.073   0.455   6.155 -0.7132 -0.7414 -0.8620
18582SOL    HW256325   8.963   0.498   6.249  1.9046  0.0948  1.9969
18583SOL     OW56326   5.295   2.076   7.404  0.4111 -0.6566  0.1323
18583SOL    HW156327   5.252   2.040   7.482  1.3925 -1.6298  0.2520
18583SOL    HW256328   5.293   2.004   7.340 -1.0747  0.3690 -1.0611
18584SOL     OW56329   7.967   4.215   9.417 -0.0605 -0.0196 -0.4756
18584SOL    HW156330   7.976   4.245   9.508 -0.3633 -0.3836 -0.3223
18584SOL    HW256331   7.878   4.240   9.393  0.4180  1.1763 -1.0871
18585SOL     OW56332   7.682   3.339   0.523 -0.2101  0.4349  0.0329
18585SOL    HW156333   7.620   3.286   0.573  0.3958  0.6769  1.0646
18585SOL    HW256334   7.730   3.389   0.589 -0.4317  1.9238 -0.8841
18586SOL     OW56335   6.523   6.634   1.497  0.4002 -0.2723  0.2613
18586SOL    HW156336   6.463   6.590   1.558 -0.0323 -1.2881 -0.8504
18586SOL    HW256337   6.608   6.594   1.515  0.4195 -0.0506  0.6831
18587SOL     OW56338   4.986   2.627   4.562  0.2193 -0.4256 -0.4441
18587SOL    HW156339   4.990   2.607   4.656  0.5482  2.4747  0.2373
18587SOL    HW256340   4.907   2.582   4.532  0.5687 -2.1177  0.9902
18588SOL     OW56341   9.794   7.422   1.494  0.4886  0.2976 -1.0058
18588SOL    HW156342   9.879   7.432   1.452  1.1797  0.9242  0.4664
18588SOL    HW256343   9.757   7.342   1.455  2.1007 -0.4330 -1.1001
18589SOL     OW56344   5.115   0.754   6.551 -0.4113 -0.0742  0.2696
18589SOL    HW156345   5.132   0.751   6.645 -0.0290 -0.1238  0.1974
18589SOL    HW256346   5.129   0.664   6.521  0.0927  0.0761  0.0527
18590SOL     OW56347   9.923   7.076   4.498  0.6318  0.2354  0.5931
18590SOL    HW156348   9.975   7.094   4.576  4.2054 -0.7775 -1.2804
18590SOL    HW256349   9.919   6.981   4.493 -0.8848  0.2907  0.3021
18591SOL     OW56350   8.585   4.280   3.795  0.0442 -0.4929 -0.4674
18591SOL    HW156351   8.617   4.286   3.885 -0.9865 -0.3356 -0.0973
18591SOL    HW256352   8.547   4.193   3.788 -3.1310  0.7096  0.4106
18592SOL     OW56353   6.232   9.743   3.988  0.5696 -0.0141 -0.4358
18592SOL    HW156354   6.252   9.650   3.976  0.5692 -0.0281 -0.3335
18592SOL    HW256355   6.276   9.767   4.069 -1.2813 -0.4840  0.7802
18593SOL     OW56356   2.743   5.253   9.790 -0.8053  0.0329 -0.6666
18593SOL    HW156357   2.820   5.310   9.784 -0.7138  0.3466  2.0433
18593SOL    HW256358   2.769   5.185   9.852 -2.1519 -0.8670 -1.0413
18594SOL     OW56359   5.898   7.165   5.988 -0.6371 -0.2591 -0.2275
18594SOL    HW156360   5.855   7.097   6.039 -1.0326  0.2339  0.1056
18594SOL    HW256361   5.933   7.119   5.911  0.7245 -1.1647  0.8819
18595SOL     OW56362   3.412   7.430   1.094 -0.0117  0.5838  0.1447
18595SOL    HW156363   3.450   7.409   1.179 -0.3873 -0.4478  0.0671
18595SOL    HW256364   3.473   7.493   1.055  1.0842 -0.2615  0.4534
18596SOL     OW56365   5.639   0.480   3.019 -0.3649  0.0846  0.4645
18596SOL    HW156366   5.643   0.390   3.052  1.7238  0.4864  1.4473
18596SOL    HW256367   5.633   0.534   3.097  0.2705  0.8831 -0.0300
18597SOL     OW56368   2.027   1.335   3.949 -0.2164  0.0009  0.3611
18597SOL    HW156369   2.093   1.402   3.936 -0.7205  0.3912 -0.2665
18597SOL    HW256370   2.018   1.293   3.864 -0.6390 -0.1661  0.4833
18598SOL     OW56371   4.455   4.078   3.379  0.1907  0.1633 -0.6243
18598SOL    HW156372   4.445   4.008   3.444  2.0823  0.7595  0.3836
18598SOL    HW256373   4.475   4.033   3.298  2.3508 -0.4943  0.2121
18599SOL     OW56374   9.522   1.727   4.378  0.2824  0.7691 -0.0831
18599SOL    HW156375   9.466   1.787   4.428  1.0193 -0.2598  2.1237
18599SOL    HW256376   9.461   1.664   4.339 -0.2402  0.8552  0.5784
18600SOL     OW56377   2.398   5.469   2.083  0.0404 -0.6851 -0.5254
18600SOL    HW156378   2.485   5.455   2.044  0.7558  1.5794  0.1241
18600SOL    HW256379   2.407   5.435   2.172  0.7573  0.8170  0.0097
18601SOL     OW56380   3.885   0.491   0.331 -0.5364  0.1207 -0.6298
18601SOL    HW156381   3.902   0.578   0.293 -1.4910  0.7640  0.3463
18601SOL    HW256382   3.841   0.443   0.260 -0.5676  0.6450 -0.9763
18602SOL     OW56383   4.623   5.456   2.241 -0.6218 -0.6859 -0.0911
18602SOL    HW156384   4.653   5.504   2.164 -1.1042 -0.4662 -0.1448
18602SOL    HW256385   4.528   5.449   2.229 -0.3865 -3.3598 -1.0957
18603SOL     OW56386   9.528   3.448   4.998 -0.1369  0.2894  0.5585
18603SOL    HW156387   9.546   3.358   4.969  2.9073  0.8183  0.4882
18603SOL    HW256388   9.537   3.445   5.093 -1.9712  0.1798  0.7533
18604SOL     OW56389   1.257   1.919   0.537 -0.0136 -0.4615  0.0157
18604SOL    HW156390   1.308   1.964   0.604  0.7912  0.1166 -0.9527
18604SOL    HW256391   1.172   1.903   0.578  0.4663 -0.1434  1.1716
18605SOL     OW56392   1.437   5.071   9.089 -0.1736  0.1964  0.3235
18605SOL    HW156393   1.523   5.070   9.046 -0.3496  1.0393 -0.0506
18605SOL    HW256394   1.446   5.008   9.161 -0.4656 -2.7674 -2.0495
18606SOL     OW56395   4.383   7.434   8.200  0.0956  0.0143 -0.6688
18606SOL    HW156396   4.306   7.392   8.238  1.0796 -0.4991  0.8882
18606SOL    HW256397   4.351   7.516   8.164 -0.8114  1.0349  2.1886
18607SOL     OW56398   1.656   6.868   6.860  0.3452 -0.0393 -0.0086
18607SOL    HW156399   1.698   6.873   6.773  0.9621  0.6251  0.3169
18607SOL    HW256400   1.588   6.801   6.849  0.6025 -0.1781 -0.9265
18608SOL     OW56401   0.692   2.828   7.308  0.4525 -0.0667  0.3831
18608SOL    HW156402   0.746   2.878   7.370  1.7141 -0.5749 -0.2857
18608SOL    HW256403   0.726   2.851   7.222  1.3299 -2.3416  0.0641
18609SOL     OW56404   9.502   0.998   3.130 -0.2920 -0.4393  0.4118
18609SOL    HW156405   9.447   1.049   3.070  0.3593 -0.5575 -0.3077
18609SOL    HW256406   9.482   1.032   3.216  1.6456  2.5755 -0.1879
18610SOL     OW56407   7.404   8.471   2.780 -0.0806 -0.5552 -0.2086
18610SOL    HW156408   7.457   8.502   2.707  1.1252 -0.1816  0.7863
18610SOL    HW256409   7.467   8.432   2.841 -0.9672 -0.2842  0.9242
18611SOL     OW56410   0.362   1.551   2.568  0.1664 -0.1276  0.2852
18611SOL    HW156411   0.396   1.574   2.481 -0.4916 -0.0301  0.0473
18611SOL    HW256412   0.379   1.628   2.621  0.5270 -0.1677  0.2286
18612SOL     OW56413   2.516   6.491   7.176  1.0894  0.1161 -0.2873
18612SOL    HW156414   2.546   6.516   7.263  2.3886 -0.3135 -0.5792
18612SOL    HW256415   2.421   6.504   7.178  0.9198 -1.0876  1.5856
18613SOL     OW56416   0.464   8.392   2.609 -0.2837 -0.3057 -0.3002
18613SOL    HW156417   0.496   8.474   2.570  1.4831 -1.1563 -0.7511
18613SOL    HW256418   0.424   8.420   2.692 -2.6627  1.3450 -1.8806
18614SOL     OW56419   1.351   1.560   0.977  0.0959 -0.2350 -0.3315
18614SOL    HW156420   1.384   1.639   0.935 -1.5339  0.4018 -0.4754
18614SOL    HW256421   1.266   1.585   1.013  0.7388 -1.1717  2.0684
18615SOL     OW56422   3.698   0.569   7.993 -0.1474 -0.1506 -0.3143
18615SOL    HW156423   3.670   0.530   7.911  0.4650  0.1617 -0.6847
18615SOL    HW256424   3.794   0.568   7.988 -0.1021 -0.5480  0.5966
18616SOL     OW56425   9.686   9.495   1.311  0.0244 -0.9273  0.5720
18616SOL    HW156426   9.606   9.450   1.286 -0.2357 -0.9635  1.4256
18616SOL    HW256427   9.658   9.583   1.337  0.3842 -0.6332 -0.0151
18617SOL     OW56428   5.040   4.014   9.810 -0.1714 -0.3466  0.2952
18617SOL    HW156429   4.950   4.005   9.778  0.1431 -0.1402 -0.6891
18617SOL    HW256430   5.030   4.049   9.898 -1.1221 -2.6309  1.1544
18618SOL     OW56431   0.473   1.160   2.989  0.6454  0.2469 -0.1482
18618SOL    HW156432   0.507   1.073   2.971  0.5471  0.3723 -0.9929
18618SOL    HW256433   0.537   1.219   2.949  0.7938  0.5741  0.5532
18619SOL     OW56434   1.065   8.785   9.729 -0.1797 -0.4431 -0.2590
18619SOL    HW156435   1.139   8.770   9.788  0.1795 -0.5275 -0.7276
18619SOL    HW256436   1.052   8.701   9.685  2.3552  0.6469 -3.4899
18620SOL     OW56437   3.873   0.548   7.166  0.6596 -0.3216 -0.0146
18620SOL    HW156438   3.914   0.527   7.082  0.1247  0.3746 -0.4674
18620SOL    HW256439   3.940   0.594   7.215  0.9244 -0.5839 -0.1274
18621SOL     OW56440   6.307   8.766   1.779  0.3154 -0.3268 -0.8302
18621SOL    HW156441   6.277   8.705   1.711 -0.0135 -0.3528 -0.6583
18621SOL    HW256442   6.272   8.850   1.753 -0.4526 -0.4715 -0.2817
18622SOL     OW56443   2.402   4.998   7.762 -0.3614 -0.3322  0.8916
18622SOL    HW156444   2.357   4.914   7.772  1.1790 -1.0905  1.7792
18622SOL    HW256445   2.439   4.995   7.674  0.1717 -0.8385  1.1290
18623SOL     OW56446   9.034   6.234   1.204  0.5282 -0.8070 -0.1622
18623SOL    HW156447   9.024   6.259   1.112  0.6155 -0.8718 -0.1890
18623SOL    HW256448   9.009   6.142   1.207 -0.5531 -0.5206  0.0725
18624SOL     OW56449   5.353   6.933   4.656 -0.1292 -0.4086 -0.1205
18624SOL    HW156450   5.266   6.937   4.614  0.1578 -1.9664 -0.9412
18624SOL    HW256451   5.414   6.960   4.587  0.0900  0.3769  0.3643
18625SOL     OW56452   5.096   3.483   4.508 -0.7046  0.0937 -0.6013
18625SOL    HW156453   5.067   3.511   4.422 -1.2730  2.2754  0.2239
18625SOL    HW256454   5.192   3.494   4.505 -0.4443 -2.0133 -1.6211
18626SOL     OW56455   4.426   2.120   1.648  0.6118 -0.2465  0.4671
18626SOL    HW156456   4.514   2.098   1.618  0.6183 -1.2926  1.2004
18626SOL    HW256457   4.380   2.036   1.651 -0.1150  0.1603  1.0037
18627SOL     OW56458   5.847   5.154   3.409  0.3719  0.0453 -0.2079
18627SOL    HW156459   5.803   5.084   3.458  1.3911 -0.9516 -0.6606
18627SOL    HW256460   5.920   5.179   3.465  0.6326 -0.0049 -0.5284
18628SOL     OW56461   8.960   6.854   5.567  0.2887 -0.0549  0.1910
18628SOL    HW156462   8.880   6.854   5.514  0.5558  0.6828 -0.2302
18628SOL    HW256463   8.930   6.830   5.655 -0.0792 -1.8467 -0.3762
18629SOL     OW56464   4.454   6.393   2.327 -0.2098 -0.5936  0.5456
18629SOL    HW156465   4.456   6.345   2.244  1.1882 -2.4614  1.5746
18629SOL    HW256466   4.428   6.327   2.392  0.1774  0.4599  1.8077
18630SOL     OW56467   3.663   3.753   9.875 -0.3954 -0.1657  0.2352
18630SOL    HW156468   3.574   3.775   9.847 -0.1711  1.5785  0.7622
18630SOL    HW256469   3.657   3.663   9.907 -1.5569 -0.7356 -1.4221
18631SOL     OW56470   7.450   6.080   3.912 -0.1691  0.2757  0.9544
18631SOL    HW156471   7.443   6.130   3.993  1.4170  1.1782  0.5982
18631SOL    HW256472   7.512   6.131   3.859 -0.3301 -0.8676 -0.3776
18632SOL     OW56473   6.775   9.635   9.130  0.2064 -0.2412  0.2376
18632SOL    HW156474   6.830   9.713   9.124  1.4253 -1.0162  0.8169
18632SOL    HW256475   6.709   9.656   9.196  0.6715  0.2216  0.5610
18633SOL     OW56476   8.985   7.027   8.993 -0.5011  0.0525  0.2782
18633SOL    HW156477   8.909   7.001   9.044  0.8783 -1.8079  1.5460
18633SOL    HW256478   9.035   6.946   8.981  1.9256  1.3898  0.6307
18634SOL     OW56479   4.430   9.395   7.043 -0.4996  0.1326  0.0262
18634SOL    HW156480   4.458   9.304   7.039  1.4757  0.7028 -0.2213
18634SOL    HW256481   4.441   9.419   7.135  1.4009  0.7777 -0.3237
18635SOL     OW56482   7.046   0.408   9.514  0.4206 -0.4296  0.1055
18635SOL    HW156483   7.116   0.451   9.466  1.3165  0.9376  2.4623
18635SOL    HW256484   7.028   0.466   9.588 -2.4701 -1.2718  0.2107
18636SOL     OW56485   9.273   4.216   6.737 -0.3932  0.4938  0.4985
18636SOL    HW156486   9.312   4.303   6.731  1.6739 -0.4694 -0.8378
18636SOL    HW256487   9.245   4.196   6.648  1.2717 -1.1051  0.2815
18637SOL     OW56488   6.462   1.602   3.489  0.3319  0.2744 -0.1224
18637SOL    HW156489   6.374   1.639   3.483  0.2108 -0.2535 -3.0067
18637SOL    HW256490   6.466   1.566   3.578 -2.2839  0.4662  0.1744
18638SOL     OW56491   0.726   2.406   2.054  0.0018  0.2324 -0.1706
18638SOL    HW156492   0.682   2.490   2.065 -1.5766 -0.5376 -0.3718
18638SOL    HW256493   0.736   2.372   2.143  0.4952  0.5371 -0.1021
18639SOL     OW56494   7.586   3.679   4.485 -0.5691 -0.4409  0.1994
18639SOL    HW156495   7.614   3.698   4.574 -0.4061 -0.4083  0.1413
18639SOL    HW256496   7.590   3.763   4.439  1.1309 -0.7662 -0.3257
18640SOL     OW56497   9.017   5.707   0.841 -0.1349 -0.9222  0.2141
18640SOL    HW156498   9.004   5.785   0.895  1.3920  0.6767 -1.5634
18640SOL    HW256499   8.930   5.669   0.831 -0.8772  0.3971  1.3431
18641SOL     OW56500   6.722   1.114   8.904  0.1027  0.1520 -0.4782
18641SOL    HW156501   6.749   1.178   8.838  1.7871  1.0167  0.9580
18641SOL    HW256502   6.649   1.156   8.950 -0.3374  0.0123 -1.0283
18642SOL     OW56503   7.590   1.953   4.481  0.0194 -0.6627 -0.1824
18642SOL    HW156504   7.575   1.925   4.572  0.0771 -2.0297 -0.5643
18642SOL    HW256505   7.645   1.884   4.444 -0.9649 -0.7340 -1.5937
18643SOL     OW56506   5.813   9.187   0.915 -0.7757  0.0530  0.0344
18643SOL    HW156507   5.742   9.142   0.870  1.7055 -4.4542  0.0193
18643SOL    HW256508   5.812   9.151   1.003  0.8375  0.6132  0.3100
18644SOL     OW56509   0.808   9.235   1.415 -0.4917  0.3832 -0.1972
18644SOL    HW156510   0.742   9.302   1.433 -1.0147  0.2796 -1.5806
18644SOL    HW256511   0.762   9.170   1.361  0.8148  0.4804 -1.4993
18645SOL     OW56512   8.661   0.535   8.369  0.4268  0.1802  0.0671
18645SOL    HW156513   8.681   0.467   8.305  0.8105  0.1544  0.2116
18645SOL    HW256514   8.741   0.587   8.374  0.6793 -0.2972  1.1256
18646SOL     OW56515   9.006   8.525   3.639  0.0122  0.5412 -0.4048
18646SOL    HW156516   9.035   8.594   3.580 -0.9490  2.5938  1.3543
18646SOL    HW256517   8.914   8.511   3.617  0.0373  0.2919 -0.3514
18647SOL     OW56518   4.326   8.744   4.145  0.2503  0.2626  0.2465
18647SOL    HW156519   4.314   8.649   4.149  1.5252  0.0599 -0.4005
18647SOL    HW256520   4.398   8.762   4.205 -0.9699  1.0499  1.5593
18648SOL     OW56521   7.399   9.367   4.445 -0.0256  0.4508 -0.1134
18648SOL    HW156522   7.418   9.456   4.475 -2.9963  0.4865  2.0900
18648SOL    HW256523   7.443   9.310   4.508 -3.2290  0.5234  2.4372
18649SOL     OW56524   6.317   0.719   0.201 -0.3511  0.2352  0.0911
18649SOL    HW156525   6.223   0.720   0.220 -0.3247  0.5511  0.2240
18649SOL    HW256526   6.358   0.711   0.287 -0.2581 -0.0686  0.0194
18650SOL     OW56527   1.352   4.509   7.720  0.2157  0.6588  0.3591
18650SOL    HW156528   1.275   4.556   7.753 -0.9814 -0.5062 -0.6347
18650SOL    HW256529   1.417   4.517   7.790 -1.0257  1.1553  1.4998
18651SOL     OW56530   2.451   3.742   3.726 -0.3682 -0.1120  0.7407
18651SOL    HW156531   2.488   3.701   3.804  1.3850  1.6151  0.9115
18651SOL    HW256532   2.525   3.745   3.665 -0.7056  1.8236  0.3861
18652SOL     OW56533   1.494   8.328   5.046 -0.1348 -0.2353  0.1399
18652SOL    HW156534   1.549   8.389   4.997 -0.9667  0.3023 -0.1372
18652SOL    HW256535   1.555   8.281   5.103  0.5263  0.8013  0.3060
18653SOL     OW56536   9.824   5.886   0.956  0.9435 -0.1992 -0.2550
18653SOL    HW156537   9.765   5.932   1.016  2.0706 -1.0523  1.6295
18653SOL    HW256538   9.768   5.822   0.912 -0.3602  1.9532 -1.8826
18654SOL     OW56539   8.977   9.777   1.291 -0.4118  0.3189 -0.1077
18654SOL    HW156540   8.971   9.701   1.233 -1.2066 -1.0720  1.7016
18654SOL    HW256541   8.973   9.853   1.232  0.4392 -1.0054 -1.9729
18655SOL     OW56542   0.960   1.286   3.046  0.5848 -0.6241 -0.4775
18655SOL    HW156543   0.889   1.230   3.015 -0.3436  0.1764  0.1336
18655SOL    HW256544   0.977   1.256   3.135 -1.3625  1.3298  0.6467
18656SOL     OW56545   9.339   5.277   0.866 -0.4798  0.8207  0.4045
18656SOL    HW156546   9.246   5.292   0.880 -0.8844  1.1267 -2.1335
18656SOL    HW256547   9.343   5.213   0.795  1.2116  1.7004 -0.3731
18657SOL     OW56548   2.248   1.954   0.176  1.0694  0.0180  0.2325
18657SOL    HW156549   2.238   1.859   0.167  0.1219  0.1768 -0.5664
18657SOL    HW256550   2.239   1.987   0.087 -0.4684  1.0102  0.7181
18658SOL     OW56551   5.942   7.706   1.330 -0.2369 -0.4529  0.5565
18658SOL    HW156552   5.970   7.742   1.414 -2.6802 -0.2017  1.3344
18658SOL    HW256553   5.927   7.613   1.348  2.5367 -1.1981 -0.5353
18659SOL     OW56554   8.028   5.030   0.080 -0.1344 -0.5120 -0.5172
18659SOL    HW156555   8.065   5.030   0.168 -1.4243  0.5036  0.0562
18659SOL    HW256556   8.091   5.079   0.027  0.3436 -0.5878 -0.0254
18660SOL     OW56557   9.075   1.740   6.254 -0.4673  0.1532 -0.0574
18660SOL    HW156558   9.087   1.656   6.297  1.4387 -0.4376 -1.6307
18660SOL    HW256559   9.037   1.796   6.322 -0.6338 -1.6108  1.3760
18661SOL     OW56560   4.490   3.700   6.196 -0.3309  0.3132 -0.4675
18661SOL    HW156561   4.542   3.778   6.177 -0.3842  0.1069 -1.5110
18661SOL    HW256562   4.463   3.711   6.287  0.9992  0.7343 -0.1051
18662SOL     OW56563   3.516   8.559   2.223 -0.3223  0.1922  0.0456
18662SOL    HW156564   3.541   8.472   2.192  0.0530  0.3064  0.0193
18662SOL    HW256565   3.425   8.550   2.251  0.1438 -0.5569  1.3769
18663SOL     OW56566   5.110   2.282   7.344  0.1853 -0.2179  0.1841
18663SOL    HW156567   5.030   2.282   7.291 -0.4316 -0.8397  1.0830
18663SOL    HW256568   5.152   2.199   7.324  0.0596 -0.3588  0.4983
18664SOL     OW56569   1.501   9.444   9.144  0.7775 -0.0965  0.5745
18664SOL    HW156570   1.462   9.370   9.097 -0.6573  2.0695 -1.9364
18664SOL    HW256571   1.484   9.425   9.236 -1.6686 -1.8015 -0.1082
18665SOL     OW56572   2.202   5.365   1.860  0.3056 -0.4749  1.0290
18665SOL    HW156573   2.246   5.314   1.793  1.0687  0.2634  0.9377
18665SOL    HW256574   2.271   5.384   1.924 -0.0641  0.0537  1.2803
18666SOL     OW56575   8.594   0.203   7.660 -0.0260  0.1164 -0.3273
18666SOL    HW156576   8.600   0.222   7.753 -2.4232 -0.4362  0.0004
18666SOL    HW256577   8.589   0.108   7.655 -0.8776  0.1815 -0.9275
18667SOL     OW56578   7.106   5.076   0.243  0.0739 -0.4812  0.4341
18667SOL    HW156579   7.022   5.088   0.198 -0.4607  2.2775  1.9521
18667SOL    HW256580   7.158   5.152   0.217  0.6551 -0.1238  2.4518
18668SOL     OW56581   1.631   9.015   7.954 -0.0062  0.1729 -0.1213
18668SOL    HW156582   1.581   8.946   7.910 -1.0405  0.5006  0.5098
18668SOL    HW256583   1.584   9.096   7.933  1.6157  0.8337 -1.4781
18669SOL     OW56584   6.352   5.625   2.949 -0.0118  0.1279 -0.4334
18669SOL    HW156585   6.365   5.709   2.905 -1.5691 -0.2906 -1.7624
18669SOL    HW256586   6.354   5.560   2.879  2.7161 -1.2116  0.7087
18670SOL     OW56587   0.618   7.013   0.042 -0.1016  0.1926  0.0815
18670SOL    HW156588   0.598   7.033  -0.049  1.3556  0.0679 -0.2898
18670SOL    HW256589   0.559   6.941   0.065 -1.7043  1.3676 -0.1956
18671SOL     OW56590   0.780   6.173   2.061  0.6338 -0.1609 -0.3928
18671SOL    HW156591   0.725   6.104   2.099  0.7305 -0.6225 -1.0588
18671SOL    HW256592   0.849   6.125   2.015  0.9191  0.3941 -0.5479
18672SOL     OW56593   5.465   6.180   4.237  0.0184 -0.1659 -0.1407
18672SOL    HW156594   5.503   6.107   4.285  0.8365 -0.0336 -0.5710
18672SOL    HW256595   5.510   6.180   4.153 -0.8930  0.0469 -0.6350
18673SOL     OW56596   3.424   9.726   7.422  0.6125 -0.1678 -0.0716
18673SOL    HW156597   3.481   9.692   7.490  1.1564  1.3147  0.2533
18673SOL    HW256598   3.351   9.767   7.469 -0.3802 -1.3910 -0.4698
18674SOL     OW56599   9.289   3.472   9.374  0.0834  0.4020  0.0693
18674SOL    HW156600   9.238   3.553   9.366 -1.2024 -0.2857  0.8653
18674SOL    HW256601   9.321   3.473   9.464  1.2271  0.6581 -0.3236
18675SOL     OW56602   7.846   8.149   1.181 -0.1991 -0.5083  0.1199
18675SOL    HW156603   7.876   8.123   1.269  1.8200 -0.7758 -0.5939
18675SOL    HW256604   7.772   8.091   1.163 -1.3911  0.3036  2.0624
18676SOL     OW56605   7.447   3.754   5.233 -0.0524 -0.0976  0.1939
18676SOL    HW156606   7.493   3.838   5.239  0.7939 -0.5330 -0.1006
18676SOL    HW256607   7.434   3.741   5.140  0.2444 -0.5188  0.2101
18677SOL     OW56608   2.370   1.330   6.185 -0.3269 -0.7358  0.1548
18677SOL    HW156609   2.386   1.387   6.110 -0.7065  0.2476  0.8166
18677SOL    HW256610   2.458   1.298   6.209 -0.2926 -1.9072 -1.3210
18678SOL     OW56611   4.094   1.594   7.437 -0.3568  0.3975  0.7071
18678SOL    HW156612   4.066   1.668   7.490 -1.1738  0.8312 -0.2943
18678SOL    HW256613   4.050   1.607   7.353 -1.8261 -2.0752  1.0066
18679SOL     OW56614   3.025   8.463   4.766  0.2582 -0.0791 -0.2508
18679SOL    HW156615   2.941   8.462   4.811  0.1625 -0.0656 -0.4273
18679SOL    HW256616   3.004   8.487   4.676  0.5084  0.4782 -0.1687
18680SOL     OW56617   5.626   7.534   9.267  0.1473  0.1163  0.3659
18680SOL    HW156618   5.626   7.442   9.237  1.0422  0.5331 -1.0439
18680SOL    HW256619   5.545   7.543   9.316 -0.6176 -1.0938 -0.5988
18681SOL     OW56620   1.619   1.039   6.303 -0.6549  0.3227 -0.2321
18681SOL    HW156621   1.555   1.107   6.284 -1.7485 -0.1555  1.5133
18681SOL    HW256622   1.700   1.070   6.262 -1.0261  2.8405  0.7579
18682SOL     OW56623   5.397   6.497   6.842  0.1392 -0.5832 -0.1842
18682SOL    HW156624   5.321   6.440   6.843  0.1213 -0.5963 -1.1630
18682SOL    HW256625   5.456   6.460   6.908 -0.9302 -0.2207  1.0148
18683SOL     OW56626   3.526   3.408   3.945  0.5994 -0.2662  0.3234
18683SOL    HW156627   3.615   3.430   3.919  0.4693 -0.3876 -0.2304
18683SOL    HW256628   3.508   3.325   3.901 -0.5827  0.8411 -1.4092
18684SOL     OW56629   8.807   7.187   0.653  0.0137 -0.6266  0.5645
18684SOL    HW156630   8.894   7.162   0.686 -0.2158 -0.1203  1.5884
18684SOL    HW256631   8.806   7.282   0.657 -0.0686 -0.5470 -0.8544
18685SOL     OW56632   4.479   9.553   8.181 -0.1449  0.2564  0.3557
18685SOL    HW156633   4.497   9.568   8.274 -1.7554 -0.6585  0.8517
18685SOL    HW256634   4.386   9.574   8.172 -0.5555 -1.7891 -0.5572
18686SOL     OW56635   0.737   4.505   9.291  0.0215  0.3586 -0.1994
18686SOL    HW156636   0.705   4.488   9.380  0.7313  0.7374  0.1388
18686SOL    HW256637   0.785   4.426   9.268 -0.4203  0.1358 -0.3727
18687SOL     OW56638   4.512   9.720   6.485  0.1541  0.1281  0.1174
18687SOL    HW156639   4.511   9.630   6.515  1.7151 -0.4520 -1.4302
18687SOL    HW256640   4.514   9.714   6.389  1.3307  1.7662 -0.0148
18688SOL     OW56641   8.088   5.165   0.698  0.0088 -0.6039 -0.3383
18688SOL    HW156642   8.120   5.250   0.728  0.4844 -1.1909  0.8982
18688SOL    HW256643   8.147   5.141   0.627  2.2644 -1.5143  1.6856
18689SOL     OW56644   3.893   1.067   3.224  0.1439 -0.0058 -1.0630
18689SOL    HW156645   3.871   1.019   3.144 -0.6454 -0.7151 -0.4399
18689SOL    HW256646   3.864   1.157   3.207  1.4641  0.2353 -2.1733
18690SOL     OW56647   9.330   7.020   8.824 -0.3675 -0.3430  0.0094
18690SOL    HW156648   9.318   7.001   8.917 -0.1538  0.4211  0.2018
18690SOL    HW256649   9.385   6.949   8.792  0.2988 -0.1453  0.6792
18691SOL     OW56650   4.825   0.645   5.542 -0.1814  0.3426  0.2260
18691SOL    HW156651   4.887   0.676   5.608  0.6211 -2.3360  0.8544
18691SOL    HW256652   4.743   0.633   5.589 -0.2640  0.6922  0.1734
18692SOL     OW56653   6.920   9.358   1.869 -0.5868  0.6892  0.0195
18692SOL    HW156654   6.885   9.386   1.953 -0.9830  0.0139  0.0873
18692SOL    HW256655   6.859   9.291   1.839 -0.2838  0.7137 -0.6660
18693SOL     OW56656   3.366   3.782   4.578 -0.8741  0.0107  0.2894
18693SOL    HW156657   3.327   3.823   4.655 -3.5107 -1.6759 -0.0364
18693SOL    HW256658   3.389   3.856   4.521 -0.4900  1.2012  1.9266
18694SOL     OW56659   0.143   4.116   5.137 -0.0568  0.3109  0.2399
18694SOL    HW156660   0.209   4.142   5.073 -1.4065 -0.8030 -1.7460
18694SOL    HW256661   0.165   4.026   5.159  0.1401  0.5441  1.0115
18695SOL     OW56662   3.936   6.876   1.969 -0.1244  0.1192  0.1211
18695SOL    HW156663   3.884   6.860   1.890  0.2757  0.7758 -0.2848
18695SOL    HW256664   4.025   6.892   1.937  0.4934 -1.6505  0.8517
18696SOL     OW56665   2.918   5.700   6.068  0.1605 -0.2211 -1.1067
18696SOL    HW156666   2.901   5.676   6.159  0.0304  3.1992 -0.0802
18696SOL    HW256667   2.855   5.648   6.018 -0.6063 -1.3128  0.8543
18697SOL     OW56668   4.025   6.211   5.298 -0.1409  0.3521 -0.5048
18697SOL    HW156669   3.951   6.192   5.241  0.2367 -0.4068 -0.7515
18697SOL    HW256670   4.065   6.126   5.315  0.8754  0.7855 -0.6476
18698SOL     OW56671   5.179   8.143   1.744 -0.5442 -0.0228  0.8086
18698SOL    HW156672   5.272   8.157   1.724 -0.1058 -1.3404  1.7849
18698SOL    HW256673   5.135   8.222   1.712  0.9037  0.5954  0.2784
18699SOL     OW56674   2.519   3.047   2.987  0.2710  0.1756 -0.8309
18699SOL    HW156675   2.461   3.118   2.961  0.5903  1.6983  2.1495
18699SOL    HW256676   2.600   3.063   2.938 -0.7994 -0.3078 -2.8712
18700SOL     OW56677   7.152   6.007   1.775 -0.5451 -0.6320  0.2385
18700SOL    HW156678   7.206   6.025   1.851 -0.3624  1.1518 -0.2694
18700SOL    HW256679   7.071   5.969   1.811 -0.1523 -0.5445  1.2371
18701SOL     OW56680   5.738   8.244   4.068 -0.5461 -0.4954 -0.3202
18701SOL    HW156681   5.784   8.323   4.099  1.6905 -1.6455 -0.4616
18701SOL    HW256682   5.696   8.208   4.145  1.6187 -1.1615  0.6335
18702SOL     OW56683   5.514   2.250   7.392 -0.2363 -0.0905 -0.0887
18702SOL    HW156684   5.553   2.209   7.315 -1.2069  0.1209 -0.7218
18702SOL    HW256685   5.451   2.185   7.424 -0.9037  0.3954 -0.3761
18703SOL     OW56686   7.174   8.499   6.556 -0.6683 -0.2812 -0.3078
18703SOL    HW156687   7.233   8.497   6.481  0.3843 -0.0798  0.4882
18703SOL    HW256688   7.087   8.512   6.518  0.0394  1.7205 -1.3978
18704SOL     OW56689   2.012   3.876   0.380  0.1528  0.0743 -0.4960
18704SOL    HW156690   1.941   3.939   0.368 -1.0811 -0.8265  1.5880
18704SOL    HW256691   2.055   3.871   0.294 -0.3416  2.9409 -0.9974
18705SOL     OW56692   1.702   3.347   8.212  0.0501  0.3915 -0.2116
18705SOL    HW156693   1.786   3.327   8.254 -0.4827  0.1256  0.7422
18705SOL    HW256694   1.637   3.337   8.281 -0.9747 -1.0217 -1.3064
18706SOL     OW56695   9.383   5.821   9.684 -0.4546  0.0091 -0.4522
18706SOL    HW156696   9.428   5.778   9.612 -1.2529 -1.4296 -0.1363
18706SOL    HW256697   9.372   5.753   9.750 -0.9732  0.9346  0.4527
18707SOL     OW56698   2.279   5.928   1.462  0.1396 -0.6408  0.1082
18707SOL    HW156699   2.260   5.880   1.382 -0.0056 -2.6211  1.2522
18707SOL    HW256700   2.354   5.983   1.440 -1.1304  0.3737 -1.9023
18708SOL     OW56701   8.014   4.007   6.281 -0.5349  0.3361 -0.3409
18708SOL    HW156702   8.022   4.033   6.373 -2.7298  2.9392 -0.7419
18708SOL    HW256703   8.096   4.036   6.241 -0.3228  0.9173  0.4678
18709SOL     OW56704   2.522   8.275   9.926  0.5440  0.3738 -0.6580
18709SOL    HW156705   2.556   8.186   9.935 -0.3632  0.2038  1.5220
18709SOL    HW256706   2.598   8.332   9.940  0.5382 -0.0379  1.2470
18710SOL     OW56707   7.822   7.157   1.793 -0.0773  0.4784  0.1491
18710SOL    HW156708   7.894   7.128   1.849  0.7703  2.6992  0.3161
18710SOL    HW256709   7.860   7.226   1.739 -1.9466  1.3260 -0.1606
18711SOL     OW56710   3.742   9.175   0.335 -0.0290  0.5211  0.0927
18711SOL    HW156711   3.809   9.225   0.289  0.0687 -1.5746 -2.2647
18711SOL    HW256712   3.786   9.094   0.361 -0.7433  0.6464  1.8773
18712SOL     OW56713   1.828   6.346   7.780 -0.3255  0.0734 -0.8017
18712SOL    HW156714   1.907   6.355   7.726 -0.0129  0.3257 -0.3049
18712SOL    HW256715   1.784   6.431   7.771 -0.7676 -0.2076 -1.4160
18713SOL     OW56716   2.972   4.788   7.813 -0.2557 -0.0191 -0.6566
18713SOL    HW156717   2.954   4.872   7.854 -1.3262 -0.9107  0.7898
18713SOL    HW256718   2.934   4.796   7.725  2.5836  2.1170 -1.8555
18714SOL     OW56719   4.486   2.987   8.905 -0.2403  0.2965  0.2442
18714SOL    HW156720   4.455   2.996   8.814 -1.3444 -0.6165  0.5038
18714SOL    HW256721   4.534   3.068   8.922 -1.9024  1.4947 -0.4576
18715SOL     OW56722   6.280   8.229   2.701 -0.4812  0.9082  0.2526
18715SOL    HW156723   6.368   8.214   2.665 -0.0514 -1.1664  1.9514
18715SOL    HW256724   6.222   8.184   2.640  0.2020 -2.2289  1.7048
18716SOL     OW56725   5.471   8.228   9.790 -0.4728 -0.7827  0.5041
18716SOL    HW156726   5.559   8.233   9.829 -1.3700 -0.2530  2.6378
18716SOL    HW256727   5.470   8.297   9.724  0.8745 -1.1385  0.0889
18717SOL     OW56728   5.506   9.165   5.652 -0.5832 -0.4549 -0.2117
18717SOL    HW156729   5.598   9.138   5.652 -0.9541 -1.9002  1.3907
18717SOL    HW256730   5.510   9.261   5.656  0.7749 -0.1703 -4.0198
18718SOL     OW56731   3.150   8.517   1.819 -0.1615 -0.1685 -0.0556
18718SOL    HW156732   3.177   8.478   1.902 -0.2855  1.1646  0.6280
18718SOL    HW256733   3.055   8.504   1.816  0.1289 -2.5004 -1.2267
18719SOL     OW56734   8.860   4.653   7.461  0.5061 -0.3417 -0.3348
18719SOL    HW156735   8.817   4.712   7.524  2.9478  0.3791  0.7528
18719SOL    HW256736   8.822   4.567   7.480  0.3929  0.0465  1.3928
18720SOL     OW56737   0.623   5.950   4.807 -0.1615  0.4547 -0.2089
18720SOL    HW156738   0.704   5.957   4.756  0.3797 -1.2738  0.3628
18720SOL    HW256739   0.564   5.900   4.751 -1.0249  2.0567 -0.7965
18721SOL     OW56740   5.499   8.040   4.779  0.4534  0.2273  0.4110
18721SOL    HW156741   5.542   8.113   4.734  0.6689  0.2686  0.6770
18721SOL    HW256742   5.572   7.989   4.815  0.4144 -1.2759 -1.5231
18722SOL     OW56743   3.791   5.622   8.616 -0.5885  0.1767 -1.0353
18722SOL    HW156744   3.869   5.622   8.561 -0.5780 -0.2205 -1.0238
18722SOL    HW256745   3.753   5.535   8.603 -1.1981  0.4803 -1.2763
18723SOL     OW56746   7.866   7.400   1.391 -0.3108  0.0114 -0.0230
18723SOL    HW156747   7.776   7.407   1.423 -0.2830  2.1147 -0.2326
18723SOL    HW256748   7.874   7.472   1.328  1.6312  0.1211  0.2952
18724SOL     OW56749   2.325   0.500   2.506  0.1126 -0.2370 -0.0027
18724SOL    HW156750   2.323   0.407   2.526 -2.6332 -0.1569  0.5252
18724SOL    HW256751   2.262   0.511   2.434 -0.8533  1.3735  1.0182
18725SOL     OW56752   3.540   2.773   6.176 -0.9109  0.2277  0.3654
18725SOL    HW156753   3.613   2.713   6.158 -1.8951 -0.7730 -0.3976
18725SOL    HW256754   3.556   2.803   6.266  1.5272  1.6323 -0.4562
18726SOL     OW56755   6.133   8.038   1.757 -0.6243 -0.2838 -0.4606
18726SOL    HW156756   6.082   8.118   1.752 -2.6143 -1.5033 -0.6421
18726SOL    HW256757   6.102   7.995   1.837  0.7854 -0.6597 -0.0856
18727SOL     OW56758   5.863   6.235   0.413  0.1442  0.2360 -0.1404
18727SOL    HW156759   5.856   6.313   0.468 -0.4265 -0.8675  1.4236
18727SOL    HW256760   5.777   6.194   0.418  0.1522 -0.0178 -1.6974
18728SOL     OW56761   7.756   5.266   1.971 -0.3371  0.0076  0.0713
18728SOL    HW156762   7.842   5.300   1.949 -0.9149  1.1733 -0.4719
18728SOL    HW256763   7.755   5.263   2.067  0.3132 -0.0492  0.0818
18729SOL     OW56764   0.916   3.213   8.386 -0.1060 -0.4615 -0.1289
18729SOL    HW156765   0.867   3.275   8.332  0.7749 -0.7781 -1.3200
18729SOL    HW256766   0.907   3.129   8.342  1.1423 -0.6114 -0.1440
18730SOL     OW56767   7.128   8.187   7.317 -0.5255  0.6152 -0.2407
18730SOL    HW156768   7.051   8.146   7.278  1.0326 -1.0009 -1.8643
18730SOL    HW256769   7.180   8.114   7.350  1.1641  1.4391 -0.9011
18731SOL     OW56770   5.356   4.539   3.689  0.1537 -0.3699  0.2523
18731SOL    HW156771   5.358   4.631   3.717  0.9115 -0.0253 -0.8813
18731SOL    HW256772   5.427   4.532   3.625 -1.1357 -1.2626 -1.1372
18732SOL     OW56773   7.253   2.559   7.987  0.1737  0.1159 -0.5361
18732SOL    HW156774   7.230   2.568   7.894  0.1736 -0.9301 -0.6454
18732SOL    HW256775   7.180   2.512   8.025 -0.0601  0.9715  0.1182
18733SOL     OW56776   7.974   4.918   1.351 -0.3981  0.3216  0.0436
18733SOL    HW156777   7.943   4.907   1.261 -0.5496 -1.3779  0.2744
18733SOL    HW256778   7.894   4.925   1.403 -0.3102  1.2242  0.0783
18734SOL     OW56779   0.599   4.385   5.235 -0.0159 -0.1153 -0.1691
18734SOL    HW156780   0.669   4.438   5.198  0.9217  1.3639  3.2886
18734SOL    HW256781   0.520   4.436   5.221  0.0556 -0.3082 -1.3656
18735SOL     OW56782   7.081   2.196   7.828  0.4181 -0.6011  0.1714
18735SOL    HW156783   7.088   2.290   7.811  1.3445 -0.6083  0.4587
18735SOL    HW256784   7.133   2.182   7.908  0.3259 -1.3645  0.1064
18736SOL     OW56785   4.795   0.146   6.019  0.2742  0.3683  0.3771
18736SOL    HW156786   4.886   0.171   6.039  0.5715 -0.9123  0.6960
18736SOL    HW256787   4.801   0.099   5.936 -0.0479  0.0034  0.5575
18737SOL     OW56788   0.349   9.423   0.545  0.3502 -0.1810  0.5865
18737SOL    HW156789   0.282   9.357   0.524  0.3466 -0.0249  0.0931
18737SOL    HW256790   0.368   9.465   0.461  1.2961 -0.4411  0.6623
18738SOL     OW56791   7.918   3.416   7.729 -0.3951  0.1785 -0.0262
18738SOL    HW156792   7.978   3.437   7.800 -0.4769 -0.0398  0.1074
18738SOL    HW256793   7.967   3.438   7.649  0.1753 -0.7493  0.0470
18739SOL     OW56794   2.810   8.740   2.758 -0.8206  0.1329 -0.3671
18739SOL    HW156795   2.813   8.817   2.702 -0.3986  1.8371  1.8673
18739SOL    HW256796   2.749   8.680   2.713  0.1817  0.9844 -3.0315
18740SOL     OW56797   9.339   1.939   7.091  0.1178  0.8852  0.8365
18740SOL    HW156798   9.283   2.014   7.114  0.4256  1.2524  0.4084
18740SOL    HW256799   9.427   1.968   7.112  0.1938  0.4571  1.1212
18741SOL     OW56800   3.926   9.132   5.762  0.1098  0.4217  0.1828
18741SOL    HW156801   3.938   9.088   5.846  0.9908  0.6643  0.1909
18741SOL    HW256802   3.832   9.149   5.757 -0.2665 -1.3705  0.2172
18742SOL     OW56803   7.716   0.666   8.083 -0.2260  0.3888 -0.1480
18742SOL    HW156804   7.778   0.651   8.012 -0.4968 -1.2810 -0.0846
18742SOL    HW256805   7.696   0.578   8.116  1.4161  1.1588  3.3270
18743SOL     OW56806   8.755   1.932   4.291 -0.4945 -0.7774  0.1751
18743SOL    HW156807   8.758   2.018   4.333 -1.2336 -0.6098 -0.0934
18743SOL    HW256808   8.716   1.949   4.205 -1.0599 -1.4434  0.2929
18744SOL     OW56809   1.691   6.565   7.935  0.4992  0.4570 -0.3007
18744SOL    HW156810   1.620   6.510   7.903  1.8741 -0.9167 -1.1414
18744SOL    HW256811   1.679   6.567   8.030  0.5843 -1.5849 -0.2106
18745SOL     OW56812   6.204   9.003   7.138  0.0701 -0.4992  0.4482
18745SOL    HW156813   6.237   9.048   7.216 -2.3522  0.3511  1.0798
18745SOL    HW256814   6.137   8.944   7.172 -0.1432 -1.0501 -0.8922
18746SOL     OW56815   4.386   3.216   7.275  0.1385  0.2562  0.3216
18746SOL    HW156816   4.456   3.161   7.240 -0.6624 -0.3649 -0.3321
18746SOL    HW256817   4.415   3.306   7.257  0.0337 -0.0288 -1.3888
18747SOL     OW56818   8.389   0.491   5.139 -0.0855 -0.2963 -0.0448
18747SOL    HW156819   8.400   0.478   5.045 -0.7615  1.3547 -0.3852
18747SOL    HW256820   8.478   0.507   5.172 -0.0281  1.0605 -0.7637
18748SOL     OW56821   0.342   4.262   2.624  0.2117  0.2476 -0.2827
18748SOL    HW156822   0.403   4.286   2.694  0.9073  0.3072 -0.8897
18748SOL    HW256823   0.256   4.285   2.658  0.3280 -1.3535  1.2671
18749SOL     OW56824   7.865   6.585   0.251 -0.0709 -0.1484  0.3388
18749SOL    HW156825   7.897   6.527   0.320 -0.9665  1.8362  2.5865
18749SOL    HW256826   7.786   6.542   0.219  0.5039 -1.2352  0.3305
18750SOL     OW56827   8.595   0.404   0.115 -1.1900 -0.0307 -0.1733
18750SOL    HW156828   8.509   0.363   0.101 -1.1001  0.3347 -2.1094
18750SOL    HW256829   8.600   0.472   0.047  0.7760 -0.2874 -0.3365
18751SOL     OW56830   6.264   2.805   1.425  0.1052 -0.1275  0.2853
18751SOL    HW156831   6.323   2.737   1.392 -0.3431 -0.2685 -0.2485
18751SOL    HW256832   6.211   2.829   1.349 -1.7099 -1.2443  1.1310
18752SOL     OW56833   2.442   8.227   9.662 -0.0301 -0.1252 -0.6794
18752SOL    HW156834   2.536   8.215   9.650  0.3112  1.5609 -0.0169
18752SOL    HW256835   2.431   8.239   9.756 -0.8029  0.3569 -0.8193
18753SOL     OW56836   1.177   5.434   3.055 -0.1494 -0.2384  0.0865
18753SOL    HW156837   1.110   5.398   2.997 -0.3818 -2.2785  1.5193
18753SOL    HW256838   1.259   5.397   3.022 -0.3169 -1.6598  1.1814
18754SOL     OW56839   7.445   7.802   3.424 -0.0530  0.6476  1.3561
18754SOL    HW156840   7.393   7.790   3.344 -0.6487 -0.1720  1.8475
18754SOL    HW256841   7.519   7.742   3.413  0.5769  1.4901  0.8547
18755SOL     OW56842   6.373   5.932   1.183 -0.2559 -0.1532  0.2551
18755SOL    HW156843   6.366   5.866   1.114 -1.8768  0.0385  0.2104
18755SOL    HW256844   6.437   5.895   1.245 -2.0479 -2.4185  0.9095
18756SOL     OW56845   2.084   7.377   8.135 -0.2756 -0.0740  0.3624
18756SOL    HW156846   2.150   7.335   8.080 -0.4162  0.8550 -0.5535
18756SOL    HW256847   2.112   7.360   8.224  0.7538 -0.3851 -0.0103
18757SOL     OW56848   5.345   8.175   4.946 -0.2384 -0.2598  0.5743
18757SOL    HW156849   5.290   8.235   4.897 -1.0118 -0.4061  1.2363
18757SOL    HW256850   5.362   8.102   4.886 -0.0211  0.2015  0.0702
18758SOL     OW56851   1.267   1.485   0.513  0.2216 -0.2774 -0.0982
18758SOL    HW156852   1.262   1.480   0.608  2.0007  0.3865  0.0717
18758SOL    HW256853   1.236   1.573   0.491  0.2772 -0.2529 -0.0794
18759SOL     OW56854   2.974   8.658   2.119 -0.2120 -0.2903 -0.2240
18759SOL    HW156855   3.014   8.732   2.074  0.3472 -0.4601 -0.0125
18759SOL    HW256856   3.000   8.582   2.067  0.3685 -0.4782  0.3427
18760SOL     OW56857   4.573   2.653   0.369  0.1154 -0.5478  0.3172
18760SOL    HW156858   4.638   2.669   0.438 -0.3339  0.9977  0.4310
18760SOL    HW256859   4.498   2.707   0.395 -0.1530 -0.1260 -1.2461
18761SOL     OW56860   8.303   4.229   4.800  0.0896 -0.1752 -0.0807
18761SOL    HW156861   8.348   4.243   4.883 -0.8644 -0.9682  0.5973
18761SOL    HW256862   8.270   4.316   4.775  0.5365  0.0976  0.2695
18762SOL     OW56863   9.560   6.458   3.946 -0.2441  0.2333 -0.0113
18762SOL    HW156864   9.486   6.438   3.889 -0.0935  2.0515 -0.9313
18762SOL    HW256865   9.636   6.458   3.888  0.1537  0.5447  0.5005
18763SOL     OW56866   7.254   5.865   1.105  0.1895 -0.3706  0.1287
18763SOL    HW156867   7.311   5.859   1.028  1.1753  1.6000  0.6567
18763SOL    HW256868   7.306   5.828   1.176  0.1569 -0.1220  0.2830
18764SOL     OW56869   0.150   8.968   7.421  0.0564 -0.1140 -0.1353
18764SOL    HW156870   0.112   9.041   7.373  0.1639  0.4087  0.5617
18764SOL    HW256871   0.233   9.001   7.454 -0.1342 -0.3815  0.6243
18765SOL     OW56872   1.601   4.392   9.622 -0.2597 -0.0411 -0.1661
18765SOL    HW156873   1.693   4.417   9.619 -0.2081 -0.1053  0.8089
18765SOL    HW256874   1.553   4.474   9.636 -0.0978 -0.3660  2.9095
18766SOL     OW56875   6.657   1.574   7.106 -0.1431 -0.2476  0.7450
18766SOL    HW156876   6.692   1.657   7.138 -0.9187  0.5529 -0.4064
18766SOL    HW256877   6.572   1.566   7.150 -0.4951  0.0594  0.1341
18767SOL     OW56878   5.124   7.608   4.783 -0.0755 -0.5357 -0.4030
18767SOL    HW156879   5.117   7.522   4.824 -0.8222 -0.5275 -0.5044
18767SOL    HW256880   5.177   7.593   4.705 -1.6744 -1.2804 -1.4038
18768SOL     OW56881   5.333   6.796   2.003  0.2043 -0.2238  0.2791
18768SOL    HW156882   5.419   6.831   1.979 -0.1391 -0.2707 -1.1079
18768SOL    HW256883   5.281   6.803   1.923 -1.9060  2.1787  1.6904
18769SOL     OW56884   2.348   4.108   9.321  0.3605  0.0683 -0.2769
18769SOL    HW156885   2.332   4.017   9.298 -0.2537 -0.0166  0.4514
18769SOL    HW256886   2.291   4.159   9.263  0.8701  0.0093 -0.8382
18770SOL     OW56887   0.627   2.576   7.316 -0.3692  0.3414  0.0825
18770SOL    HW156888   0.700   2.526   7.353 -1.7004 -1.0761  0.9443
18770SOL    HW256889   0.653   2.667   7.327  1.2488 -0.1216  0.3941
18771SOL     OW56890   4.483   3.678   9.292 -0.0731 -0.3601  0.1609
18771SOL    HW156891   4.552   3.630   9.338  1.1127  1.0801 -0.0484
18771SOL    HW256892   4.415   3.691   9.359 -0.5958 -2.5469  0.1385
18772SOL     OW56893   8.484   3.768   6.363  0.8890 -0.3666  0.2328
18772SOL    HW156894   8.469   3.822   6.441  0.0692 -1.0706  0.5690
18772SOL    HW256895   8.520   3.829   6.299  0.1210  0.5517  0.6546
18773SOL     OW56896   0.831   0.343   3.048 -0.3666 -0.2685  0.1544
18773SOL    HW156897   0.882   0.406   3.100  0.6451 -0.2660 -0.8094
18773SOL    HW256898   0.889   0.269   3.036 -0.3432 -0.0218 -1.4695
18774SOL     OW56899   8.754   2.193   1.696  0.1828 -0.5535  0.0767
18774SOL    HW156900   8.681   2.200   1.758 -0.2368  0.8050 -0.5223
18774SOL    HW256901   8.741   2.108   1.653 -0.0076 -1.1215  1.2397
18775SOL     OW56902   1.974   2.913   5.782  0.2644  0.0297 -0.0219
18775SOL    HW156903   2.002   2.953   5.700  1.6683 -0.6664  0.0732
18775SOL    HW256904   1.884   2.885   5.766  0.0033  1.2330 -0.8023
18776SOL     OW56905   1.032   5.793   6.315  0.1912 -0.3082  0.2630
18776SOL    HW156906   1.094   5.831   6.252  0.0497 -0.1261  0.2337
18776SOL    HW256907   0.988   5.724   6.266  0.7116 -0.7673  0.4238
18777SOL     OW56908   3.271   1.176   6.601  0.3726 -0.4795  0.8859
18777SOL    HW156909   3.279   1.125   6.521  0.6111 -1.9865  1.8318
18777SOL    HW256910   3.356   1.218   6.612 -0.6946  2.6847 -1.4713
18778SOL     OW56911   3.723   3.562   1.715 -0.5706 -0.4871  0.0140
18778SOL    HW156912   3.702   3.618   1.790  1.4762 -0.8659  0.9264
18778SOL    HW256913   3.678   3.480   1.733 -3.8276  0.7496 -1.4613
18779SOL     OW56914   8.303   1.253   9.516 -0.2686 -0.2759  0.1804
18779SOL    HW156915   8.209   1.257   9.532 -0.2548 -0.2618  0.2618
18779SOL    HW256916   8.314   1.180   9.454 -0.4462  0.4413 -0.7064
18780SOL     OW56917   9.815   1.038   8.989 -0.1604 -0.6675 -0.4711
18780SOL    HW156918   9.864   1.105   9.037  1.1640 -2.1648  0.3456
18780SOL    HW256919   9.743   1.015   9.048  0.5337 -1.3417  0.1473
18781SOL     OW56920   1.657   1.116   7.246  0.0132  0.2110 -0.3235
18781SOL    HW156921   1.696   1.165   7.173 -1.3548  0.3041 -1.0359
18781SOL    HW256922   1.581   1.168   7.271  0.2445 -0.0282  0.9339
18782SOL     OW56923   4.597   7.537   2.523  0.4031  0.1607 -0.2931
18782SOL    HW156924   4.534   7.494   2.466 -1.6841  1.0154  1.2579
18782SOL    HW256925   4.604   7.479   2.599  1.3859  0.1722 -0.3586
18783SOL     OW56926   5.495   8.614   0.180  0.4183  0.5739  0.0467
18783SOL    HW156927   5.426   8.576   0.126  0.5063 -1.3747  1.2034
18783SOL    HW256928   5.573   8.614   0.124 -0.0432  0.8788 -0.6032
18784SOL     OW56929   8.567   8.490   6.490 -0.1092  0.1712 -0.3572
18784SOL    HW156930   8.640   8.428   6.498 -1.7009 -1.5322  2.5430
18784SOL    HW256931   8.507   8.448   6.428 -1.0218 -1.1306  1.3349
18785SOL     OW56932   3.425   6.840   5.351 -0.4632  0.0161  0.1903
18785SOL    HW156933   3.361   6.774   5.378  0.4710 -0.3476  1.6225
18785SOL    HW256934   3.493   6.791   5.306 -1.5368  0.5062 -2.1159
18786SOL     OW56935   6.178   4.542   9.395  0.2793  0.4348 -0.0991
18786SOL    HW156936   6.192   4.448   9.401  1.8626  0.5770 -0.8863
18786SOL    HW256937   6.134   4.554   9.310 -2.9156  0.1864  1.3920
18787SOL     OW56938   5.152   7.337   7.854  0.3739  0.0447 -0.0276
18787SOL    HW156939   5.146   7.242   7.863  0.7140  0.0802  0.6580
18787SOL    HW256940   5.174   7.368   7.942 -1.2160  0.8989  0.1019
18788SOL     OW56941   9.592   3.602   6.788 -0.0890  0.0891  0.1618
18788SOL    HW156942   9.502   3.571   6.804 -0.8995  0.6759 -2.7162
18788SOL    HW256943   9.628   3.616   6.876 -2.9137  0.1282  1.4262
18789SOL     OW56944   4.461   7.694   4.938  0.2422  0.1742  0.3044
18789SOL    HW156945   4.440   7.779   4.898 -0.8091  1.2552  2.8985
18789SOL    HW256946   4.557   7.689   4.935  0.2561  0.7791 -1.0910
18790SOL     OW56947   2.383   0.695   6.529 -0.2576  0.1775  0.2432
18790SOL    HW156948   2.336   0.733   6.604  0.0220  1.8501 -0.3801
18790SOL    HW256949   2.328   0.714   6.454 -0.2138 -0.9149 -0.0839
18791SOL     OW56950   0.239   8.910   8.661  0.5400  0.2762 -0.2584
18791SOL    HW156951   0.166   8.873   8.711  0.9154 -1.9883 -1.2772
18791SOL    HW256952   0.217   8.891   8.570  1.0706  2.1241 -0.8202
18792SOL     OW56953   2.075   9.906   6.621  0.7054 -0.0273  0.0607
18792SOL    HW156954   2.169   9.924   6.628  1.2330 -1.2078 -2.5820
18792SOL    HW256955   2.040   9.980   6.573  0.3752  0.1443  0.5606
18793SOL     OW56956   7.221   3.290   7.566 -0.5080  0.9227  0.2162
18793SOL    HW156957   7.151   3.227   7.545 -0.2144  0.8589 -0.6224
18793SOL    HW256958   7.181   3.351   7.627 -0.7089 -0.2614  1.3062
18794SOL     OW56959   9.077   9.270   9.148 -0.4866  0.5596  0.8765
18794SOL    HW156960   9.154   9.325   9.136 -0.3734  0.5415  1.4943
18794SOL    HW256961   9.073   9.254   9.242 -0.5582 -0.4307  0.7234
18795SOL     OW56962   9.322   3.534   7.899  0.2765 -0.3319  0.2546
18795SOL    HW156963   9.375   3.545   7.978  0.2522  1.4061  0.0617
18795SOL    HW256964   9.357   3.456   7.857  1.7275 -0.0318  0.8637
18796SOL     OW56965   9.482   8.853   3.488 -0.6300  0.5324  0.5701
18796SOL    HW156966   9.539   8.903   3.546  1.1211 -1.5536  0.7826
18796SOL    HW256967   9.414   8.817   3.545  0.0957 -0.1075  1.0466
18797SOL     OW56968   7.636   5.336   0.902  0.1097  0.0643  0.0454
18797SOL    HW156969   7.596   5.315   0.986 -1.9899 -0.0366 -0.9372
18797SOL    HW256970   7.668   5.251   0.870  0.1859 -0.0316  0.3682
18798SOL     OW56971   8.354   8.595   4.088 -0.4558  0.3215 -0.1855
18798SOL    HW156972   8.367   8.573   3.996  1.3593  0.1261  0.0754
18798SOL    HW256973   8.353   8.511   4.133  0.7695  0.4731  0.1759
18799SOL     OW56974   5.413   5.094   6.284  0.3084  0.1875  0.5165
18799SOL    HW156975   5.460   5.131   6.358  0.1041  1.1718  0.1658
18799SOL    HW256976   5.393   5.004   6.311  0.4253  0.4623  1.5636
18800SOL     OW56977   7.438   5.715   3.570 -0.3284 -0.0372  0.2970
18800SOL    HW156978   7.393   5.736   3.488 -0.2451 -0.7983  0.0512
18800SOL    HW256979   7.379   5.656   3.616  0.3897 -1.0184 -0.0148
18801SOL     OW56980   4.186   9.901   8.195 -0.3243  0.0572  0.3753
18801SOL    HW156981   4.140   9.911   8.111 -1.4096 -0.2815  0.9133
18801SOL    HW256982   4.174   9.809   8.218  1.7738 -0.3846 -0.0964
18802SOL     OW56983   7.286   5.769   9.667 -0.5174 -0.0593 -0.5699
18802SOL    HW156984   7.361   5.710   9.669 -0.3171  0.1820  1.7058
18802SOL    HW256985   7.212   5.715   9.695 -0.1831  0.8303  2.3739
18803SOL     OW56986   0.703   9.268   4.255  0.1753 -0.4433 -0.0616
18803SOL    HW156987   0.793   9.276   4.223 -0.2367  1.2467 -0.8961
18803SOL    HW256988   0.665   9.198   4.201  0.2429  0.6383 -1.6018
18804SOL     OW56989   4.867   6.637   1.456 -0.1894  0.1106 -0.1086
18804SOL    HW156990   4.892   6.635   1.363 -0.4407  0.9085 -0.2064
18804SOL    HW256991   4.772   6.621   1.455 -0.4670  1.5914 -0.1341
18805SOL     OW56992   1.540   8.433   7.351  0.1021 -0.4835 -0.2559
18805SOL    HW156993   1.473   8.456   7.287 -0.4928 -1.1263  0.1285
18805SOL    HW256994   1.514   8.479   7.430  0.7194  0.1360 -0.4022
18806SOL     OW56995   5.348   6.027   7.047  0.1968 -0.0145 -0.9241
18806SOL    HW156996   5.396   6.065   7.121  1.3485 -0.6214 -1.3284
18806SOL    HW256997   5.391   6.065   6.970  0.6338 -1.2632 -1.3128
18807SOL     OW56998   9.131   6.275   8.694 -0.1966  0.1993  0.0010
18807SOL    HW156999   9.128   6.363   8.731 -0.6339 -0.0134  0.4848
18807SOL    HW257000   9.159   6.219   8.766  0.6520  0.0087 -0.4561
18808SOL     OW57001   5.695   3.053   9.423  0.5124  0.4142 -0.0750
18808SOL    HW157002   5.728   3.015   9.342 -1.0883 -1.6320  0.1388
18808SOL    HW257003   5.755   3.022   9.490  0.0540 -0.6016 -0.1063
18809SOL     OW57004   6.276   3.514   2.891 -0.2602  0.2817 -0.1982
18809SOL    HW157005   6.310   3.468   2.814  1.3321  0.7761  0.1790
18809SOL    HW257006   6.235   3.445   2.943 -0.3675 -0.2400 -0.9536
18810SOL     OW57007   9.213   3.376   7.552  0.3166 -0.3339  0.1672
18810SOL    HW157008   9.203   3.470   7.538  0.3355 -0.2301  0.8277
18810SOL    HW257009   9.140   3.353   7.611  0.2439 -0.7531 -0.0859
18811SOL     OW57010   8.613   9.349   7.789  0.2379 -0.1033 -0.1695
18811SOL    HW157011   8.670   9.283   7.748  0.9642 -0.6051  1.5577
18811SOL    HW257012   8.536   9.352   7.733  0.7778 -1.4357 -1.0387
18812SOL     OW57013   1.989   7.972   2.261  0.1692 -0.2980  0.7853
18812SOL    HW157014   1.929   7.898   2.268  0.5733 -0.7519 -0.3491
18812SOL    HW257015   1.976   8.021   2.343 -2.4508  0.1726  0.1861
18813SOL     OW57016   5.342   8.863   6.365 -0.3249  0.3161 -0.2323
18813SOL    HW157017   5.385   8.790   6.321 -2.6088 -1.0941 -0.2783
18813SOL    HW257018   5.356   8.847   6.458 -0.6094 -0.0678 -0.2525
18814SOL     OW57019   6.837   3.100   8.078 -0.8509 -0.2378  0.1554
18814SOL    HW157020   6.807   3.010   8.064  1.0494 -0.7267 -1.0499
18814SOL    HW257021   6.758   3.148   8.103 -1.9423 -2.1859  0.6168
18815SOL     OW57022   2.267   0.454   0.114  0.1358  0.1826 -0.0900
18815SOL    HW157023   2.218   0.500   0.182 -0.8937  0.0071 -0.6875
18815SOL    HW257024   2.334   0.516   0.086 -0.9946  1.2026 -0.6272
18816SOL     OW57025   7.260   5.976   6.941  0.7452  0.1334  0.2565
18816SOL    HW157026   7.317   6.047   6.969 -1.2580  2.5264 -1.3235
18816SOL    HW257027   7.172   6.013   6.945 -0.2439 -1.6741 -2.2649
18817SOL     OW57028   0.555  10.012   6.169  0.2503  0.1946  0.0438
18817SOL    HW157029   0.637   9.963   6.179  0.2246  0.3951  1.4978
18817SOL    HW257030   0.491   9.947   6.141  0.8387 -0.0260 -0.8165
18818SOL     OW57031   1.902   2.418   5.463 -0.4193 -0.5515 -0.3236
18818SOL    HW157032   1.957   2.474   5.518 -0.3719  0.3546 -1.2679
18818SOL    HW257033   1.871   2.476   5.393  0.2589 -1.8768 -1.7834
18819SOL     OW57034   0.087   6.131   6.925 -0.1384 -0.3846  0.3455
18819SOL    HW157035   0.162   6.175   6.886 -0.2684  1.1731  1.7452
18819SOL    HW257036   0.111   6.120   7.017 -1.5374 -0.0114  0.7832
18820SOL     OW57037   2.190   6.843   2.011 -0.1818 -0.2041 -0.2787
18820SOL    HW157038   2.101   6.871   1.987 -0.8686 -0.1709  2.0437
18820SOL    HW257039   2.210   6.772   1.951 -1.4982  0.2269 -1.2812
18821SOL     OW57040   0.116   7.710   2.090  0.1040 -0.0337  0.1546
18821SOL    HW157041   0.054   7.731   2.160 -0.1730  2.5242 -0.7465
18821SOL    HW257042   0.060   7.696   2.013  0.5214  2.0520 -0.6077
18822SOL     OW57043   0.352   7.802   8.028 -0.0074 -0.0746 -0.6421
18822SOL    HW157044   0.423   7.805   8.092 -1.2108  0.6146  0.7198
18822SOL    HW257045   0.392   7.830   7.946  1.1305  1.0927  0.2754
18823SOL     OW57046   1.393   8.016   0.875 -0.3019  0.5076  0.2620
18823SOL    HW157047   1.442   8.035   0.795 -1.3470  0.3753 -0.4226
18823SOL    HW257048   1.325   8.082   0.878 -1.7813 -0.9346 -0.2638
18824SOL     OW57049   8.283   7.500   1.067 -0.6369 -0.2892 -0.0796
18824SOL    HW157050   8.231   7.439   1.015 -0.7464 -1.0196  0.8620
18824SOL    HW257051   8.372   7.465   1.064 -0.4135  0.2976 -0.6937
18825SOL     OW57052   0.187   0.903   2.321  0.3266 -0.2816 -0.2749
18825SOL    HW157053   0.201   0.942   2.235  1.9465 -1.9214 -0.8131
18825SOL    HW257054   0.164   0.812   2.303 -0.4058 -0.3780  1.0090
18826SOL     OW57055   4.163   9.461   5.767 -0.2669 -0.4871 -0.0771
18826SOL    HW157056   4.247   9.502   5.787 -2.0017  2.9728  1.0307
18826SOL    HW257057   4.109   9.478   5.845 -2.6695 -0.4313 -1.6369
18827SOL     OW57058   3.551   9.239   0.721  0.0729  0.5267 -0.0520
18827SOL    HW157059   3.595   9.167   0.674  0.6972 -0.0920  1.4270
18827SOL    HW257060   3.460   9.234   0.693  0.3533 -0.0468 -0.9132
18828SOL     OW57061   4.438   3.062   0.463 -0.2515  0.1233  0.0029
18828SOL    HW157062   4.395   3.032   0.543  0.9119 -1.1980  0.1742
18828SOL    HW257063   4.421   2.993   0.400 -1.4252  1.3038 -1.0183
18829SOL     OW57064   1.042   7.392   6.128  0.7600 -0.4926  0.5646
18829SOL    HW157065   1.018   7.458   6.063 -2.0033 -1.9700 -0.0651
18829SOL    HW257066   1.118   7.348   6.090 -0.5585 -1.0807 -1.6102
18830SOL     OW57067   8.250   8.125   4.268  0.3963 -0.3810  0.4409
18830SOL    HW157068   8.278   8.058   4.205 -0.2570  0.3045 -0.6138
18830SOL    HW257069   8.172   8.089   4.309  1.2448 -1.1480  1.4197
18831SOL     OW57070   8.952   5.588   1.388 -0.3172  0.1890 -0.2009
18831SOL    HW157071   8.995   5.620   1.309 -0.7620  0.2875 -0.4050
18831SOL    HW257072   8.927   5.668   1.435 -0.3408  0.1314 -0.1159
18832SOL     OW57073   9.806   8.191   1.920  0.5005  0.0505  0.2746
18832SOL    HW157074   9.895   8.223   1.902  1.0575 -0.4601  1.8709
18832SOL    HW257075   9.812   8.096   1.909  0.2729 -0.0291  0.7916
18833SOL     OW57076   1.558   5.471   0.381  0.0413 -0.1826 -0.3506
18833SOL    HW157077   1.511   5.504   0.305 -0.5408 -3.1498 -1.4129
18833SOL    HW257078   1.533   5.379   0.387  1.6384 -0.5631  2.2577
18834SOL     OW57079   7.985   6.884   5.400  0.5198 -0.2167 -0.2760
18834SOL    HW157080   7.953   6.911   5.486 -0.1607 -1.1684 -0.2213
18834SOL    HW257081   8.047   6.953   5.375 -0.9151  1.2159 -0.0094
18835SOL     OW57082   4.180   1.204   5.747 -0.0550  0.3059  0.0909
18835SOL    HW157083   4.236   1.155   5.686  0.3727  1.1852 -0.2383
18835SOL    HW257084   4.172   1.291   5.708 -1.6179  0.2231  0.1698
18836SOL     OW57085   8.881   6.737   8.008  0.2272  0.7348  0.3215
18836SOL    HW157086   8.847   6.738   7.918 -0.1308  0.8182  0.4572
18836SOL    HW257087   8.908   6.827   8.025 -2.2954  1.3856  1.2695
18837SOL     OW57088   5.881   5.544   3.675  0.2418 -1.0763 -0.2122
18837SOL    HW157089   5.799   5.498   3.696 -0.1347 -0.9245 -1.2849
18837SOL    HW257090   5.865   5.634   3.702  0.6200 -1.3505  0.9797
18838SOL     OW57091   5.580   4.783   7.625 -0.2107  0.1475 -0.3824
18838SOL    HW157092   5.539   4.851   7.571 -0.4037 -0.3552 -0.8768
18838SOL    HW257093   5.559   4.808   7.715 -1.0129  0.2799 -0.5973
18839SOL     OW57094   2.056   7.432   6.390  0.2170 -0.7700 -0.1618
18839SOL    HW157095   2.110   7.512   6.385  2.0597 -1.7864  1.8424
18839SOL    HW257096   2.103   7.369   6.335 -0.3762 -0.9398 -0.4748
18840SOL     OW57097   0.954   9.863   7.103 -0.4137 -0.1116  0.2905
18840SOL    HW157098   0.964   9.957   7.087 -0.3640 -0.0115  0.8905
18840SOL    HW257099   0.917   9.829   7.022  0.8254  0.2071 -0.4300
18841SOL     OW57100   8.656   2.712   4.680  0.2185  0.4083  0.6657
18841SOL    HW157101   8.637   2.726   4.588  0.8815 -1.7556  0.1459
18841SOL    HW257102   8.740   2.755   4.695 -0.4097  1.7318  0.5952
18842SOL     OW57103   3.332   0.400   4.799  0.3669  0.4954 -0.5709
18842SOL    HW157104   3.270   0.369   4.733  0.7230  0.9109 -1.1056
18842SOL    HW257105   3.417   0.367   4.768  0.6171  1.2002 -0.6409
18843SOL     OW57106   6.822   6.381   0.384  0.5464  0.1014  0.0652
18843SOL    HW157107   6.763   6.447   0.347 -0.5553 -0.0893  1.3932
18843SOL    HW257108   6.906   6.425   0.389 -0.2551  1.6156  1.3147
18844SOL     OW57109   1.399   8.727   4.091  0.0328 -0.1877 -0.0476
18844SOL    HW157110   1.425   8.637   4.113 -1.3224 -0.5963 -0.0257
18844SOL    HW257111   1.320   8.742   4.142 -0.3518  0.6459 -0.8658
18845SOL     OW57112   6.962   4.128   1.081  0.5511 -0.0608  0.0529
18845SOL    HW157113   6.974   4.033   1.079 -0.4874 -0.2387  1.2299
18845SOL    HW257114   7.023   4.158   1.148  0.4446  0.0283  0.1098
18846SOL     OW57115   2.752   2.057   0.506 -0.0679 -0.6363  0.4077
18846SOL    HW157116   2.755   2.086   0.415  0.1540  2.2354  1.2154
18846SOL    HW257117   2.761   1.962   0.502  1.4145 -0.4796 -2.4873
18847SOL     OW57118   7.330   7.057   2.430  0.2855 -0.0070 -0.3971
18847SOL    HW157119   7.339   7.096   2.343  1.7958 -1.1066 -0.7820
18847SOL    HW257120   7.395   6.987   2.431  1.6488  1.1591  2.3002
18848SOL     OW57121   4.551   6.920   4.014 -0.1773 -0.4981  0.8066
18848SOL    HW157122   4.574   6.938   3.923 -0.9697  0.4184  0.7638
18848SOL    HW257123   4.507   6.835   4.013  1.0401 -1.1396  0.5495
18849SOL     OW57124   3.310   0.268   1.537 -0.5600  0.5572  0.5189
18849SOL    HW157125   3.299   0.363   1.546 -0.1434  0.6653 -0.0451
18849SOL    HW257126   3.402   0.253   1.561 -0.2836  0.4620 -0.5615
18850SOL     OW57127   9.204   9.617   4.520  0.8039 -0.4611 -0.3886
18850SOL    HW157128   9.119   9.579   4.498 -0.7617  1.9220  1.0908
18850SOL    HW257129   9.257   9.605   4.441 -1.5480 -0.3057 -2.1095
18851SOL     OW57130   9.944   7.590   4.010  0.3824 -0.2661  0.6217
18851SOL    HW157131   9.969   7.514   3.957  0.4954 -0.2695  0.6786
18851SOL    HW257132   9.893   7.645   3.951 -0.3610 -0.7510  0.7940
18852SOL     OW57133   8.051   1.278   8.865 -0.5682  0.3126  0.0305
18852SOL    HW157134   8.096   1.205   8.824  0.7726  0.1270  1.7358
18852SOL    HW257135   8.011   1.326   8.792  2.2566  0.3790 -1.5821
18853SOL     OW57136   3.947   8.876   4.725 -0.3028  0.5919 -0.7718
18853SOL    HW157137   3.871   8.824   4.751  0.3907 -0.8181 -1.4870
18853SOL    HW257138   4.021   8.836   4.770  0.2451  0.9622 -1.3220
18854SOL     OW57139   9.510   8.487   0.076 -0.6694  0.1518  0.1046
18854SOL    HW157140   9.502   8.549   0.148 -1.5834 -0.1266  0.2653
18854SOL    HW257141   9.421   8.454   0.063 -0.3706 -0.4191 -0.6037
18855SOL     OW57142   4.703   9.345   0.926 -0.1950  0.1584  0.1689
18855SOL    HW157143   4.661   9.381   0.848  0.4219 -0.5207 -0.4976
18855SOL    HW257144   4.756   9.417   0.962  0.5388  0.1161 -0.7899
18856SOL     OW57145   4.083   0.317   7.101  0.2775 -0.3472 -0.3512
18856SOL    HW157146   4.141   0.371   7.047  0.9825 -1.7629 -1.0571
18856SOL    HW257147   4.094   0.351   7.190  1.9425 -0.3632 -0.5194
18857SOL     OW57148   9.103   1.774   0.479 -0.1100 -0.1359  0.2226
18857SOL    HW157149   9.187   1.731   0.494 -0.7045 -1.1617  0.7712
18857SOL    HW257150   9.113   1.862   0.515  0.9180 -0.0399 -0.2849
18858SOL     OW57151   0.637   8.200   6.995 -0.0810 -0.1018 -0.3323
18858SOL    HW157152   0.581   8.151   6.936 -1.3654  0.9698 -0.0653
18858SOL    HW257153   0.600   8.289   6.995  1.5731  0.6314 -0.0696
18859SOL     OW57154   0.111   7.388   1.214  0.3938 -0.1541 -0.1607
18859SOL    HW157155   0.197   7.346   1.223 -0.2140 -1.4880 -0.3741
18859SOL    HW257156   0.051   7.316   1.193 -0.7541  0.7798 -0.1781
18860SOL     OW57157   0.422   7.663   8.509  0.0705 -0.3177  0.4218
18860SOL    HW157158   0.414   7.568   8.500  1.1933 -0.3621 -0.2863
18860SOL    HW257159   0.495   7.676   8.569 -0.2979  0.0978  0.7832
18861SOL     OW57160   7.816   8.171   6.294 -0.3336  0.1245  0.4864
18861SOL    HW157161   7.733   8.140   6.330 -0.4150 -0.3258 -0.0759
18861SOL    HW257162   7.881   8.149   6.361 -0.7731  1.3079  1.3446
18862SOL     OW57163   0.022   0.616   8.755 -0.3753  0.0715 -0.1157
18862SOL    HW157164   0.110   0.600   8.787 -0.5088 -0.7939 -0.1682
18862SOL    HW257165   0.016   0.712   8.749  1.2860  0.1390 -2.1065
18863SOL     OW57166   6.824   7.842   7.356 -0.2097  0.0272 -0.3310
18863SOL    HW157167   6.824   7.862   7.263  2.3185  0.0075 -0.4029
18863SOL    HW257168   6.894   7.777   7.367  0.0229  0.5337  1.6423
18864SOL     OW57169   7.830   3.721   2.371  0.6003  0.3900 -0.0948
18864SOL    HW157170   7.861   3.640   2.330 -0.2884  0.1107 -0.2460
18864SOL    HW257171   7.909   3.766   2.398  1.1915  0.1908 -1.3913
18865SOL     OW57172   7.806   8.417   7.540  1.0776 -0.6767 -0.0109
18865SOL    HW157173   7.790   8.478   7.467 -1.5689 -1.2230  0.0052
18865SOL    HW257174   7.746   8.447   7.608  1.2791 -2.0394  0.7842
18866SOL     OW57175   9.580   4.933   1.929 -0.0456 -0.2408  0.0506
18866SOL    HW157176   9.561   4.930   1.836  1.2505  0.5417 -0.2538
18866SOL    HW257177   9.651   4.996   1.938  0.8596 -1.3675  1.3815
18867SOL     OW57178   9.877   5.398   3.895  0.0738 -1.0597  0.2317
18867SOL    HW157179   9.844   5.438   3.814 -1.1398 -2.3255  0.0612
18867SOL    HW257180   9.866   5.466   3.961 -0.0841 -0.4340 -0.4182
18868SOL     OW57181   9.459   6.075   6.343  0.7050 -0.0512  0.4771
18868SOL    HW157182   9.535   6.017   6.332  2.8549  2.7316 -0.3396
18868SOL    HW257183   9.428   6.058   6.432  2.0775 -1.4788  0.7272
18869SOL     OW57184   1.806   1.302   1.370 -0.3851 -0.2234 -0.2665
18869SOL    HW157185   1.834   1.252   1.293  0.6530  2.4006 -1.7273
18869SOL    HW257186   1.865   1.274   1.439 -0.4584 -1.6501 -0.7343
18870SOL     OW57187   6.089   6.801   6.743 -0.0916  0.0221  0.0963
18870SOL    HW157188   6.040   6.849   6.809 -1.7467 -2.2041  0.5965
18870SOL    HW257189   6.022   6.763   6.685  1.0769 -1.7926 -0.1562
18871SOL     OW57190   3.848   8.924   0.405 -0.0870  0.3488 -0.2103
18871SOL    HW157191   3.934   8.886   0.423 -0.9298 -0.9327  1.4194
18871SOL    HW257192   3.791   8.848   0.392 -0.8534  1.1818 -2.0282
18872SOL     OW57193   9.351   7.206   7.643  0.2925  0.3627 -0.1672
18872SOL    HW157194   9.366   7.182   7.734 -2.2023 -0.5331  0.0668
18872SOL    HW257195   9.267   7.251   7.643 -0.9283 -1.7011 -2.2811
18873SOL     OW57196   0.033   8.811   6.208 -0.0757  0.0258  0.5140
18873SOL    HW157197   0.119   8.781   6.238  0.8531  2.6720  0.8223
18873SOL    HW257198   0.051   8.854   6.124 -1.1338  0.3999  0.4613
18874SOL     OW57199   7.276   2.519   6.861  0.2394  0.1112  0.1338
18874SOL    HW157200   7.306   2.500   6.772 -0.6008 -0.6223 -0.0170
18874SOL    HW257201   7.184   2.492   6.861  0.2203  0.1332  1.2147
18875SOL     OW57202   4.872   7.445   7.886  0.3166  0.3988  0.5473
18875SOL    HW157203   4.950   7.408   7.845  0.7097  0.3026  1.3763
18875SOL    HW257204   4.865   7.533   7.849 -0.5497 -0.4004 -1.3387
18876SOL     OW57205   4.109   9.028   9.203 -0.2527 -0.1657  0.0404
18876SOL    HW157206   4.172   8.969   9.161  2.2005  1.3160  1.3848
18876SOL    HW257207   4.029   9.017   9.152  1.3137 -1.5118 -2.3717
18877SOL     OW57208   4.385   0.555   0.152 -0.4504  0.0409  0.2082
18877SOL    HW157209   4.381   0.525   0.061  1.1026  0.2523  0.0439
18877SOL    HW257210   4.316   0.621   0.159  0.0976  0.7942 -1.1275
18878SOL     OW57211   2.598   1.121   3.848 -0.1315 -0.4476 -0.6786
18878SOL    HW157212   2.600   1.091   3.757 -0.5253 -1.4506 -0.3749
18878SOL    HW257213   2.505   1.133   3.867  0.0688  2.9055 -1.3653
18879SOL     OW57214   1.622   2.370   9.504 -0.6625  0.0418  0.0598
18879SOL    HW157215   1.550   2.426   9.474 -1.3546 -0.2384  1.1547
18879SOL    HW257216   1.632   2.391   9.596  2.3282  1.8488 -0.5710
18880SOL     OW57217   9.019   2.936   9.578  0.3121 -0.1659  0.2907
18880SOL    HW157218   9.010   2.916   9.485 -0.8230 -1.5338  0.6601
18880SOL    HW257219   9.040   3.030   9.581  2.5993 -0.5178 -1.4119
18881SOL     OW57220   8.400   7.302   9.199 -0.1507 -0.0527 -0.3526
18881SOL    HW157221   8.492   7.284   9.218  0.3767  1.2295 -1.4930
18881SOL    HW257222   8.375   7.369   9.263 -1.2701 -2.5610  2.0090
18882SOL     OW57223   8.144   3.304   7.312 -0.6306  0.1622 -0.0822
18882SOL    HW157224   8.103   3.234   7.261 -1.4854 -0.0733  0.9086
18882SOL    HW257225   8.224   3.265   7.346 -1.7674 -0.8185  1.6007
18883SOL     OW57226   2.823   9.102   6.564 -0.7560 -0.4375 -0.3401
18883SOL    HW157227   2.739   9.089   6.519 -2.1959  1.0727  1.6664
18883SOL    HW257228   2.808   9.065   6.651 -0.9918  3.5492  1.5575
18884SOL     OW57229   5.420   1.005   4.794 -0.0794 -0.7709  0.0212
18884SOL    HW157230   5.346   1.065   4.783  0.4343 -0.1296  0.0259
18884SOL    HW257231   5.488   1.040   4.738 -0.1269 -1.9770 -0.8149
18885SOL     OW57232   3.354   5.676   0.316  0.2127 -0.4726 -0.6266
18885SOL    HW157233   3.351   5.748   0.380  0.1446 -0.5577 -0.5341
18885SOL    HW257234   3.441   5.682   0.278 -0.3306  0.6641 -1.7715
18886SOL     OW57235   0.289   3.550   6.866  0.1997  0.1277 -0.3059
18886SOL    HW157236   0.297   3.487   6.937 -1.2837  1.8632  1.5258
18886SOL    HW257237   0.342   3.513   6.795 -0.7308 -3.2298  0.5576
18887SOL     OW57238   2.096   9.159   1.879  0.0263 -0.5273  0.2813
18887SOL    HW157239   2.036   9.215   1.830 -0.3305 -1.8965 -0.9303
18887SOL    HW257240   2.161   9.219   1.915  2.3355  0.4715 -4.6304
18888SOL     OW57241   8.347   7.916   2.032  0.1454  0.2659 -0.4473
18888SOL    HW157242   8.260   7.877   2.030  0.4332 -0.3762 -0.4281
18888SOL    HW257243   8.372   7.913   2.125  0.7176 -0.7266 -0.6282
18889SOL     OW57244   2.792   7.167   5.326  0.7137  0.1954 -0.0285
18889SOL    HW157245   2.815   7.230   5.257 -0.4670 -0.6031 -1.1867
18889SOL    HW257246   2.732   7.106   5.284 -0.2286 -0.1916  1.7850
18890SOL     OW57247   1.191   5.380   0.943 -0.2163 -0.1100 -0.7713
18890SOL    HW157248   1.181   5.285   0.946  0.7827 -0.2050 -0.3224
18890SOL    HW257249   1.281   5.396   0.970 -0.1593  0.9263 -1.5168
18891SOL     OW57250   3.567   4.685   6.956  0.0163 -0.2834 -0.2370
18891SOL    HW157251   3.474   4.664   6.943  0.0900 -0.7267 -0.0532
18891SOL    HW257252   3.614   4.606   6.928  0.2719 -0.5420  0.8620
18892SOL     OW57253   1.413   1.465   4.510  0.1989 -0.1541 -0.2355
18892SOL    HW157254   1.453   1.547   4.482  2.6129 -1.3190 -0.4555
18892SOL    HW257255   1.372   1.430   4.431  1.6886 -0.5223 -0.8700
18893SOL     OW57256   5.928   4.357   3.273  0.0224 -0.0212  0.1807
18893SOL    HW157257   5.923   4.424   3.205  1.8559 -0.5962 -0.5961
18893SOL    HW257258   5.886   4.280   3.233  0.1031 -0.0358  0.1235
18894SOL     OW57259   3.615   5.276   3.156  0.0499 -0.4890  0.2116
18894SOL    HW157260   3.550   5.342   3.180 -0.2923 -0.6843 -0.1606
18894SOL    HW257261   3.679   5.279   3.227 -1.0265 -1.1971  1.2598
18895SOL     OW57262   6.903   5.109   0.447 -0.1721  0.2557  0.2139
18895SOL    HW157263   6.852   5.152   0.379 -0.1372  0.3650  0.2569
18895SOL    HW257264   6.987   5.090   0.406 -0.4683 -0.5154 -0.0622
18896SOL     OW57265   6.398   8.570   5.496  0.2473  0.0757  0.3305
18896SOL    HW157266   6.437   8.556   5.410  1.9883  0.7233  0.9663
18896SOL    HW257267   6.355   8.488   5.517  0.2829 -0.2741 -0.9128
18897SOL     OW57268   3.453   5.137   2.302  0.0271 -0.3738  0.0155
18897SOL    HW157269   3.361   5.113   2.290  0.0748 -0.7035  0.2896
18897SOL    HW257270   3.482   5.084   2.377  0.7626 -1.1160 -0.7801
18898SOL     OW57271   8.772   3.018   2.981 -0.0571 -0.2541  0.5934
18898SOL    HW157272   8.855   2.977   3.005 -0.2821 -0.1276  1.6453
18898SOL    HW257273   8.796   3.093   2.927  0.4740 -0.5599  0.4025
18899SOL     OW57274   5.454   5.880   2.252 -0.2558  0.4072  0.3054
18899SOL    HW157275   5.508   5.950   2.217 -0.8174 -0.1511 -1.8511
18899SOL    HW257276   5.370   5.921   2.272  0.3001  0.8795  1.7974
18900SOL     OW57277   5.239   1.247   4.877  0.0149 -0.0179 -0.3021
18900SOL    HW157278   5.144   1.257   4.870 -0.0206  0.0573  0.2214
18900SOL    HW257279   5.272   1.337   4.886 -0.0231 -0.1201  1.1856
18901SOL     OW57280   2.126   7.131   1.308  0.0867 -0.1031 -0.3795
18901SOL    HW157281   2.050   7.144   1.365 -0.5731  0.4695 -1.3562
18901SOL    HW257282   2.190   7.086   1.363 -0.4544  0.5984  0.8626
18902SOL     OW57283   4.578   2.437   0.998  0.2068 -0.2825  0.0514
18902SOL    HW157284   4.585   2.529   0.972  2.0915 -0.4728 -0.2882
18902SOL    HW257285   4.658   2.421   1.048 -0.4911 -1.5370  0.8098
18903SOL     OW57286   9.711   7.996   1.347 -0.5269 -0.3511  0.0906
18903SOL    HW157287   9.774   8.069   1.355 -2.1112  1.1886 -0.8108
18903SOL    HW257288   9.681   7.981   1.436  0.4725 -0.5320  0.4125
18904SOL     OW57289   2.926   6.684   8.826 -0.2093  0.0273 -0.2349
18904SOL    HW157290   2.852   6.655   8.773 -1.3634 -0.5367  1.5716
18904SOL    HW257291   2.941   6.611   8.887  0.9330  0.7164  0.3416
18905SOL     OW57292   9.828   3.755   8.519 -0.1448  0.0223 -1.1310
18905SOL    HW157293   9.851   3.677   8.570  0.1068  2.3812  2.8197
18905SOL    HW257294   9.737   3.772   8.542 -0.0967  1.0528 -1.6695
18906SOL     OW57295   4.666   4.621   8.955  0.0170 -0.3439  0.6761
18906SOL    HW157296   4.579   4.594   8.984  0.1694  0.3593  1.8292
18906SOL    HW257297   4.712   4.648   9.035  0.9896  0.1463 -0.0182
18907SOL     OW57298   2.200   9.892   2.065 -0.6994  0.2558  0.0290
18907SOL    HW157299   2.243   9.900   2.150 -0.7814  2.4289 -0.0900
18907SOL    HW257300   2.112   9.861   2.085 -1.0071  1.5966  0.8332
18908SOL     OW57301   2.714   6.671   5.158  0.2951 -0.3025 -0.3030
18908SOL    HW157302   2.801   6.665   5.117 -0.4603 -1.2291 -1.8469
18908SOL    HW257303   2.679   6.582   5.151 -0.5477 -0.0820  0.8845
18909SOL     OW57304   5.783   4.858   6.272  0.5823  0.2998 -0.4217
18909SOL    HW157305   5.740   4.922   6.216  0.0846  1.1546  0.8851
18909SOL    HW257306   5.744   4.774   6.247 -2.1082  1.0573  0.8509
18910SOL     OW57307   8.191   9.526   6.902  0.8908  0.4835 -0.0247
18910SOL    HW157308   8.138   9.527   6.822  0.4281 -0.1402  0.2572
18910SOL    HW257309   8.281   9.540   6.872  0.6610  0.7551 -0.5990
18911SOL     OW57310   5.588   4.151   1.364  0.1038  0.0536 -0.7230
18911SOL    HW157311   5.575   4.220   1.429  0.1449  0.7639 -1.4579
18911SOL    HW257312   5.682   4.135   1.363  0.0537 -0.2865 -0.2820
18912SOL     OW57313   4.150   0.604   0.420 -0.1013 -0.5441 -0.3968
18912SOL    HW157314   4.062   0.566   0.418 -0.8962  0.8533  2.3640
18912SOL    HW257315   4.209   0.529   0.416 -1.3708 -1.5335 -2.0621
18913SOL     OW57316   6.022   5.255   0.859  0.1885  0.3847 -0.6276
18913SOL    HW157317   5.950   5.192   0.867  1.7312 -1.3441  0.4785
18913SOL    HW257318   6.068   5.250   0.943  0.9664  2.2717 -0.8962
18914SOL     OW57319   6.473   6.588   3.244 -0.1931  0.0362 -0.4061
18914SOL    HW157320   6.562   6.617   3.264 -0.3373  0.1780  0.0412
18914SOL    HW257321   6.476   6.562   3.152 -0.1740  1.9084 -0.9766
18915SOL     OW57322   8.784   7.663   4.175  0.6257 -0.2766 -0.6005
18915SOL    HW157323   8.721   7.734   4.183 -0.5175 -1.4522  2.4892
18915SOL    HW257324   8.780   7.638   4.083 -1.7923  1.1635 -0.9758
18916SOL     OW57325   7.861   7.969   7.558 -0.4305 -0.0845  0.6129
18916SOL    HW157326   7.841   7.908   7.629 -0.1119 -0.8302  0.0756
18916SOL    HW257327   7.843   7.920   7.478  2.2797 -0.4409  0.1014
18917SOL     OW57328   0.023   5.037   6.343  0.0572 -0.1875 -0.2272
18917SOL    HW157329  -0.025   5.109   6.302  0.6805 -0.3650 -1.2913
18917SOL    HW257330   0.114   5.063   6.339  0.1076 -0.0504  1.4024
18918SOL     OW57331   2.041   3.369   6.816  0.7126  0.7361 -0.3254
18918SOL    HW157332   2.109   3.331   6.872 -0.9336 -1.6255  0.2392
18918SOL    HW257333   1.997   3.432   6.873  0.3922 -0.1196  0.4131
18919SOL     OW57334   6.279   7.390   9.661  0.4460  0.2331  0.3111
18919SOL    HW157335   6.292   7.318   9.722  0.7704 -0.5844 -0.6898
18919SOL    HW257336   6.367   7.410   9.629  0.2133  0.2276 -0.3430
18920SOL     OW57337   3.695   2.757   2.393 -0.5830  0.1577  0.3501
18920SOL    HW157338   3.666   2.675   2.433 -0.5785  0.3309  0.7171
18920SOL    HW257339   3.790   2.754   2.400 -0.6260  1.1357  2.3406
18921SOL     OW57340   7.667   7.683   9.477 -0.0284 -0.2675  0.2893
18921SOL    HW157341   7.707   7.605   9.515  1.1524 -0.0809 -0.4962
18921SOL    HW257342   7.719   7.756   9.512 -0.1259  0.0383 -0.1914
18922SOL     OW57343   9.135   7.858   3.791  0.1853 -0.2761  1.0200
18922SOL    HW157344   9.123   7.763   3.789  1.7948 -0.5082  1.0170
18922SOL    HW257345   9.230   7.871   3.792  0.0418  1.3549 -0.3429
18923SOL     OW57346   6.438   9.774   6.113  0.3931  0.3080 -0.2513
18923SOL    HW157347   6.513   9.829   6.135  0.6758 -0.2863  0.3202
18923SOL    HW257348   6.366   9.836   6.101  0.8440  0.8458 -0.2414
18924SOL     OW57349   4.480   7.108   0.951  0.2436 -0.5110 -0.1402
18924SOL    HW157350   4.485   7.034   1.011 -0.8076 -1.7846 -1.5476
18924SOL    HW257351   4.420   7.169   0.994 -0.3022 -1.2927  0.2491
18925SOL     OW57352   1.467   0.515   0.796 -0.1313  0.1635  0.1962
18925SOL    HW157353   1.537   0.489   0.856  0.8304 -0.8194 -1.2714
18925SOL    HW257354   1.436   0.599   0.829  2.0367  0.8266  0.6549
18926SOL     OW57355   6.703   3.608   1.169  0.2367  0.8974  0.7922
18926SOL    HW157356   6.675   3.524   1.132  0.7009  1.6344 -1.3785
18926SOL    HW257357   6.621   3.650   1.195 -0.3031  0.9890 -0.9277
18927SOL     OW57358   0.829   6.609   3.845 -0.6556  0.2306 -0.3495
18927SOL    HW157359   0.738   6.638   3.840 -0.7115 -0.0204 -0.8791
18927SOL    HW257360   0.862   6.621   3.756  0.0826  1.1312  0.0241
18928SOL     OW57361   9.207   1.578   9.527 -0.1003 -0.2396  0.0388
18928SOL    HW157362   9.252   1.495   9.546  1.5170  0.2643 -1.3213
18928SOL    HW257363   9.129   1.552   9.478  0.1264 -0.9889  0.0652
18929SOL     OW57364   1.349   8.292   1.285 -0.1871  0.5630  0.5747
18929SOL    HW157365   1.332   8.289   1.379  0.4338  0.7679  0.6997
18929SOL    HW257366   1.375   8.203   1.263  0.9247  0.7911  0.8597
18930SOL     OW57367   0.932   0.365   9.216 -0.2287  0.5813 -0.0723
18930SOL    HW157368   0.938   0.339   9.308  0.9690 -1.1970 -0.6046
18930SOL    HW257369   1.021   0.392   9.194 -0.2422 -0.1033 -0.9991
18931SOL     OW57370   6.027   3.207   8.873  0.0889 -0.2564 -0.2147
18931SOL    HW157371   6.055   3.250   8.792  0.5479 -0.5517 -0.2182
18931SOL    HW257372   6.008   3.117   8.848  0.2400 -0.3524  0.0016
18932SOL     OW57373   3.816   9.440   3.238  0.2657 -0.6622  0.0041
18932SOL    HW157374   3.878   9.368   3.250 -0.1024 -1.2774 -1.5817
18932SOL    HW257375   3.751   9.406   3.178  0.2719  1.1170 -1.0739
18933SOL     OW57376   9.737   6.621   4.086 -0.1845  0.3229 -0.7514
18933SOL    HW157377   9.750   6.653   3.997 -1.1125 -1.7611 -1.7080
18933SOL    HW257378   9.667   6.556   4.078  1.3982 -1.7628  1.0538
18934SOL     OW57379   9.887   4.820   6.466  0.0859 -0.2287 -0.4731
18934SOL    HW157380   9.807   4.853   6.508 -0.3748 -1.4492 -0.3678
18934SOL    HW257381   9.916   4.893   6.410  0.0874  1.0074  1.0733
18935SOL     OW57382   1.080   1.300   9.115  0.4788 -0.0240  0.8452
18935SOL    HW157383   1.037   1.269   9.195  0.0987  0.1291  0.7042
18935SOL    HW257384   1.110   1.221   9.071 -3.0786 -0.5398 -1.0293
18936SOL     OW57385   5.091   3.566   9.598 -0.5086  0.4123  0.1419
18936SOL    HW157386   5.101   3.471   9.596  1.4402  0.5238  1.7061
18936SOL    HW257387   5.115   3.594   9.509  1.1201 -0.4188  0.2794
18937SOL     OW57388   0.342   5.460   5.477  0.1158 -0.4468 -0.6388
18937SOL    HW157389   0.336   5.513   5.557  0.7581 -1.5699  0.1870
18937SOL    HW257390   0.430   5.478   5.444 -0.0399 -0.2182 -0.9325
18938SOL     OW57391   3.869   0.640   1.514 -0.8532 -0.3277 -0.1994
18938SOL    HW157392   3.944   0.686   1.549 -1.1372 -0.4420  0.5753
18938SOL    HW257393   3.896   0.612   1.426  0.8935 -2.4718  0.9387
18939SOL     OW57394   3.428   4.633   5.893  0.5576  0.9956  0.1656
18939SOL    HW157395   3.370   4.709   5.889 -0.9875 -0.1253  0.5826
18939SOL    HW257396   3.391   4.577   5.961  0.4416 -1.0995 -1.5187
18940SOL     OW57397   5.117   6.253   4.204 -0.5429 -0.3655 -0.5398
18940SOL    HW157398   5.181   6.324   4.210 -0.0212 -0.6345 -2.2867
18940SOL    HW257399   5.162   6.177   4.241 -0.3885 -0.2164 -0.4216
18941SOL     OW57400   7.987   2.804   3.164  0.0986  0.3499 -0.1043
18941SOL    HW157401   7.902   2.793   3.207 -0.2233  0.2404 -0.7565
18941SOL    HW257402   7.993   2.730   3.104  0.8642  0.0954  0.2664
18942SOL     OW57403   2.052   3.951   9.382  0.3524  0.5117  0.3328
18942SOL    HW157404   2.130   3.942   9.437  1.0349  0.8484 -0.5669
18942SOL    HW257405   2.066   3.890   9.310  0.2602  1.2868 -0.3603
18943SOL     OW57406   7.218   8.151   5.870  0.0287  0.1231  0.3455
18943SOL    HW157407   7.186   8.213   5.935  1.2430  0.8662  0.2670
18943SOL    HW257408   7.209   8.196   5.787  0.3151 -0.0482  0.2180
18944SOL     OW57409   6.197   6.929   2.987 -0.1276  0.1037  0.3935
18944SOL    HW157410   6.205   6.911   3.081  0.0227  0.3314  0.4239
18944SOL    HW257411   6.246   6.857   2.945 -1.4382 -0.8359  0.4286
18945SOL     OW57412   0.097   9.327   4.956 -0.0732  0.6590 -0.2301
18945SOL    HW157413   0.135   9.240   4.965  0.9951  1.0843 -0.5525
18945SOL    HW257414   0.156   9.374   4.899  0.6054  2.3059  1.6971
18946SOL     OW57415   2.560   6.691   4.253  0.5792 -0.0164  0.3639
18946SOL    HW157416   2.473   6.722   4.277  0.2047 -1.1770  0.5693
18946SOL    HW257417   2.608   6.689   4.336  1.0553  1.3462  0.1408
18947SOL     OW57418   5.640   1.566   9.784  0.0282  0.6000  0.9025
18947SOL    HW157419   5.608   1.656   9.796 -1.2747  0.2256  0.4173
18947SOL    HW257420   5.716   1.576   9.725 -0.5258  1.3287  0.2846
18948SOL     OW57421   1.897   9.288   1.751 -0.0107 -0.1347  0.3168
18948SOL    HW157422   1.905   9.381   1.730  1.6502 -0.2584  0.3401
18948SOL    HW257423   1.842   9.253   1.680  1.1536  0.4621 -0.9368
18949SOL     OW57424   7.647   9.265   6.494 -0.0660 -0.5029  0.0563
18949SOL    HW157425   7.568   9.310   6.523 -0.6016  0.3092 -2.3966
18949SOL    HW257426   7.638   9.176   6.527 -1.6845 -0.2551  0.3769
18950SOL     OW57427   7.131   4.987   8.725  0.2921 -0.5480  0.3734
18950SOL    HW157428   7.196   4.945   8.781 -0.3360 -1.5447  0.3750
18950SOL    HW257429   7.048   4.973   8.771  0.1774  1.6580  0.9310
18951SOL     OW57430   0.210   0.052   7.956  0.4390 -0.3941  0.0125
18951SOL    HW157431   0.127   0.100   7.956 -0.5224 -1.9984 -0.4321
18951SOL    HW257432   0.277   0.119   7.972 -0.9201  0.9526  0.1926
18952SOL     OW57433   3.350   3.544   2.694 -0.2509 -0.1944  0.3806
18952SOL    HW157434   3.371   3.623   2.645 -0.9868  0.1121  0.5546
18952SOL    HW257435   3.418   3.481   2.669  0.8245  0.7385  0.8417
18953SOL     OW57436   5.922   5.328   1.574  0.2817 -0.8911  0.5076
18953SOL    HW157437   6.007   5.293   1.549  0.9372  0.4204  0.8261
18953SOL    HW257438   5.859   5.273   1.526  1.3530 -0.7586 -1.1641
18954SOL     OW57439   9.156   3.525   5.762  0.4253  0.5629  0.8729
18954SOL    HW157440   9.142   3.610   5.804  0.7107  0.7400  0.6153
18954SOL    HW257441   9.250   3.511   5.768  0.8103  1.5708 -1.5222
18955SOL     OW57442   3.255   9.702   1.218 -0.2414  0.2303  0.1857
18955SOL    HW157443   3.238   9.787   1.177  0.1946  1.4313  2.3608
18955SOL    HW257444   3.339   9.675   1.182  1.4379  2.5202  2.0508
18956SOL     OW57445   2.318   2.604   6.464  0.1393  0.8667  0.0978
18956SOL    HW157446   2.400   2.554   6.454 -0.1083  0.1811  1.3117
18956SOL    HW257447   2.255   2.539   6.495  0.0088  2.0819  2.5339
18957SOL     OW57448   7.684   9.880   4.258 -0.8875 -0.2587 -0.2408
18957SOL    HW157449   7.712   9.955   4.206  0.9916 -1.5609 -1.2328
18957SOL    HW257450   7.745   9.879   4.332 -1.1206 -0.6189 -0.0547
18958SOL     OW57451   8.542   0.618   8.673  0.0421 -0.1188  0.2832
18958SOL    HW157452   8.601   0.624   8.597  0.1342 -1.2042  0.2641
18958SOL    HW257453   8.574   0.686   8.733  0.2339  0.4607 -0.4576
18959SOL     OW57454   6.460   7.998   0.561 -1.4495  0.0990  0.0910
18959SOL    HW157455   6.549   8.032   0.568 -2.4460  3.1307 -0.6661
18959SOL    HW257456   6.472   7.903   0.550  1.5648  0.1944  1.5485
18960SOL     OW57457   3.187   9.069   2.435  0.0928  0.7945 -0.4544
18960SOL    HW157458   3.209   9.006   2.367 -1.4220 -0.3694  0.0663
18960SOL    HW257459   3.242   9.145   2.417  0.8918 -0.1075 -1.9880
18961SOL     OW57460   5.415   3.554   0.755 -0.9704  0.0335 -0.1367
18961SOL    HW157461   5.322   3.539   0.739 -1.2741  0.4798  1.1279
18961SOL    HW257462   5.420   3.642   0.791 -0.1178 -0.1992  0.3468
18962SOL     OW57463   3.031   8.582   8.167 -0.0672 -0.1600  0.1159
18962SOL    HW157464   3.054   8.586   8.074  0.2451 -0.1921  0.1909
18962SOL    HW257465   3.109   8.546   8.209 -0.2901 -0.3570  0.3623
18963SOL     OW57466   1.643   0.546   4.185 -0.6623 -0.1952  0.4480
18963SOL    HW157467   1.709   0.527   4.118 -1.5367  0.5115 -0.6446
18963SOL    HW257468   1.662   0.635   4.214 -0.7803 -0.2012  0.5456
18964SOL     OW57469   0.875   3.642   9.685 -0.2411 -0.9431  0.2137
18964SOL    HW157470   0.796   3.628   9.634 -1.3317  2.0481  0.8676
18964SOL    HW257471   0.845   3.646   9.776  0.7720 -0.5810  0.5519
18965SOL     OW57472   9.398   8.476   1.897  0.0204  0.6641  0.9160
18965SOL    HW157473   9.350   8.425   1.962  0.9782 -0.8378  0.4985
18965SOL    HW257474   9.408   8.562   1.936  0.0273 -0.0285  2.4894
18966SOL     OW57475   3.927   7.239   0.608  0.0004 -0.0298 -0.2004
18966SOL    HW157476   3.863   7.172   0.586 -1.6469  1.2934  0.3146
18966SOL    HW257477   4.011   7.202   0.581 -0.8696 -2.1373 -0.2100
18967SOL     OW57478   9.111   4.856   4.090  0.1523  0.0984 -0.2417
18967SOL    HW157479   9.162   4.937   4.090  0.3059  0.0519  1.8453
18967SOL    HW257480   9.175   4.786   4.075  0.4516  0.1906  0.5311
18968SOL     OW57481   9.766   9.251   8.008  0.0796  0.0088  0.0233
18968SOL    HW157482   9.801   9.319   7.950 -0.2807 -0.2699 -0.5269
18968SOL    HW257483   9.828   9.248   8.081  0.0704  0.9678  0.0884
18969SOL     OW57484   6.306   4.643   2.604 -0.2551 -0.1714  0.2201
18969SOL    HW157485   6.236   4.613   2.661 -0.6023  1.9050  0.9752
18969SOL    HW257486   6.302   4.739   2.609  1.6381  0.0279 -0.9386
18970SOL     OW57487   9.595   8.078   7.162  0.3647  0.2413 -0.4897
18970SOL    HW157488   9.587   7.987   7.188  1.5016 -0.3155 -1.9529
18970SOL    HW257489   9.684   8.086   7.127 -0.4163  1.3577 -2.3715
18971SOL     OW57490   6.220   4.742   0.664 -0.0932  0.3848  0.2681
18971SOL    HW157491   6.277   4.811   0.698  0.1250 -0.0727  0.8437
18971SOL    HW257492   6.156   4.789   0.609  0.2095  1.0095  0.4361
18972SOL     OW57493   6.467   6.555   4.073  0.0363  0.1895  0.0750
18972SOL    HW157494   6.559   6.540   4.091 -0.2506 -0.2770  1.2397
18972SOL    HW257495   6.440   6.620   4.139 -0.3579  0.6718 -0.5533
18973SOL     OW57496   3.697   6.610   6.910 -0.1629  0.0443  0.3922
18973SOL    HW157497   3.784   6.649   6.917 -0.3900  0.8552 -0.8450
18973SOL    HW257498   3.712   6.516   6.912  0.6918  0.1793  0.7057
18974SOL     OW57499   2.799   4.906   9.919 -0.1642 -0.2682  0.1125
18974SOL    HW157500   2.735   4.881   9.987  0.4831  0.3185  0.9578
18974SOL    HW257501   2.751   4.897   9.837 -0.3493 -3.1164  0.4236
18975SOL     OW57502   6.527   2.346   3.810 -0.3867  0.3215  0.0404
18975SOL    HW157503   6.526   2.441   3.818 -1.4871  0.2073  1.7454
18975SOL    HW257504   6.586   2.316   3.879 -0.6622 -0.2772  0.0242
18976SOL     OW57505   3.753   4.721   4.802  0.0792 -0.5959 -0.0106
18976SOL    HW157506   3.784   4.690   4.887  2.9692 -0.0514 -0.7500
18976SOL    HW257507   3.822   4.780   4.772 -2.8990  2.8299 -0.7851
18977SOL     OW57508   2.978   6.616   6.423  0.6713 -0.3848  0.4955
18977SOL    HW157509   2.946   6.557   6.355  0.7700 -1.3553  1.2823
18977SOL    HW257510   2.943   6.702   6.398  1.7828 -0.4361 -1.5133
18978SOL     OW57511   2.846   6.743   5.642  0.3021 -0.4488  0.1183
18978SOL    HW157512   2.909   6.693   5.694  1.6876 -0.1156 -1.1548
18978SOL    HW257513   2.897   6.774   5.567 -0.6851  2.3045  0.4943
18979SOL     OW57514   1.451   8.148   2.222  0.0654 -0.3045 -0.4177
18979SOL    HW157515   1.393   8.173   2.150 -0.6482 -0.2314  0.1719
18979SOL    HW257516   1.407   8.180   2.301  0.6762 -0.6677  0.0838
18980SOL     OW57517   2.277   7.314   5.479 -0.1020 -0.1645  0.0605
18980SOL    HW157518   2.281   7.393   5.426 -0.4390  0.4936  0.9924
18980SOL    HW257519   2.367   7.280   5.478  0.2540  0.7228  0.3646
18981SOL     OW57520   2.884   7.618   1.235 -0.1801  0.7245  0.8069
18981SOL    HW157521   2.795   7.586   1.246  0.2232 -0.0739  2.0162
18981SOL    HW257522   2.910   7.588   1.147 -0.2714 -1.2336  1.3972
18982SOL     OW57523   6.834   2.048   7.614  0.0015 -0.4756 -0.0332
18982SOL    HW157524   6.771   2.002   7.560 -0.5083  2.9207 -2.6925
18982SOL    HW257525   6.912   2.058   7.558  1.0421 -0.3586  1.3703
18983SOL     OW57526   2.341   0.087   1.660 -0.1442  0.2679  0.4096
18983SOL    HW157527   2.409   0.023   1.641 -0.9428 -0.1180 -1.4165
18983SOL    HW257528   2.267   0.035   1.692 -0.2322  0.4523  0.5105
18984SOL     OW57529   2.677   3.086   7.203 -0.1675  0.7122  0.0427
18984SOL    HW157530   2.647   3.177   7.194 -1.2557  0.4625  0.9905
18984SOL    HW257531   2.633   3.040   7.132 -0.0329  0.8229 -0.1142
18985SOL     OW57532   4.200   8.220   1.598 -0.2900 -0.5754  0.0534
18985SOL    HW157533   4.164   8.132   1.603 -1.4543 -0.1487 -0.4218
18985SOL    HW257534   4.293   8.210   1.621 -0.8447 -1.6193  2.0458
18986SOL     OW57535   5.530   2.057   1.241 -0.1806  0.4904  0.4055
18986SOL    HW157536   5.612   2.091   1.277  0.7122  0.2805 -1.3316
18986SOL    HW257537   5.510   2.115   1.168  1.0120 -2.1658 -2.2094
18987SOL     OW57538   2.566   2.912   1.387  0.0436  0.2509 -0.0865
18987SOL    HW157539   2.518   2.962   1.453  1.5280 -0.2017  1.3928
18987SOL    HW257540   2.542   2.821   1.404 -2.2428  0.2964 -2.4410
18988SOL     OW57541   4.862   4.864   1.155  0.3625  0.3704 -0.3667
18988SOL    HW157542   4.875   4.953   1.123  1.5855  0.3726  0.0731
18988SOL    HW257543   4.816   4.819   1.084  0.1107  1.2336 -0.7621
18989SOL     OW57544   4.907   6.952   1.813  0.2381  0.5914 -0.6834
18989SOL    HW157545   4.935   6.884   1.875  1.2772  2.4974  1.0523
18989SOL    HW257546   4.984   7.007   1.801 -1.0085  2.4382 -0.6536
18990SOL     OW57547   2.112   8.548   2.715 -0.4098  0.4274 -0.0787
18990SOL    HW157548   2.176   8.522   2.649 -1.1055 -0.3139 -0.4826
18990SOL    HW257549   2.108   8.474   2.776 -0.0184  0.9652  0.6227
18991SOL     OW57550   8.868   7.768   4.641  0.3594 -0.1350  0.4089
18991SOL    HW157551   8.842   7.676   4.632 -1.1115  0.1072  1.6793
18991SOL    HW257552   8.922   7.786   4.564 -0.1095 -1.7919 -0.3470
18992SOL     OW57553   8.494   8.896   9.794  0.7802 -0.8442  0.0605
18992SOL    HW157554   8.529   8.838   9.861  1.0147  0.0904  0.7726
18992SOL    HW257555   8.471   8.838   9.721  1.4499 -1.7579  0.5584
18993SOL     OW57556   9.834   8.294   3.652  0.2972 -0.0233  0.0237
18993SOL    HW157557   9.794   8.315   3.736 -0.9234  1.8361 -0.9373
18993SOL    HW257558   9.787   8.217   3.621 -0.3712  0.2553  0.3338
18994SOL     OW57559   1.198   7.434   8.313 -0.4923  0.4381  0.0253
18994SOL    HW157560   1.104   7.420   8.302 -0.6723  0.6542  1.1472
18994SOL    HW257561   1.220   7.502   8.250 -1.1334  0.5268 -0.1062
18995SOL     OW57562   7.640   1.329   6.527 -0.9010 -0.9221  0.0787
18995SOL    HW157563   7.700   1.256   6.544 -2.0230 -2.2483 -1.3161
18995SOL    HW257564   7.635   1.334   6.432 -2.5878 -0.5346  0.1491
18996SOL     OW57565   4.907   2.018   2.904  0.1092  0.2577 -0.0754
18996SOL    HW157566   4.944   1.930   2.906 -0.4716  0.0119  0.1315
18996SOL    HW257567   4.921   2.048   2.814  1.1152  0.3131  0.0886
18997SOL     OW57568   3.908   2.063   1.715  0.2085 -0.0332  0.6392
18997SOL    HW157569   3.849   1.988   1.706  2.4283 -1.6778 -1.0728
18997SOL    HW257570   3.929   2.065   1.809 -0.6544 -0.8977  0.8798
18998SOL     OW57571   3.471   1.062   2.693 -0.2717 -0.2196 -0.6331
18998SOL    HW157572   3.418   1.002   2.746 -1.7951  0.7858 -0.9897
18998SOL    HW257573   3.427   1.065   2.609  1.4378 -0.8264 -1.6015
18999SOL     OW57574   1.409   6.003   7.426  0.8209 -0.1997  0.8096
18999SOL    HW157575   1.365   6.050   7.497  0.6345  0.1521  0.4675
18999SOL    HW257576   1.350   5.931   7.404  1.5156 -1.1427  1.9304
19000SOL     OW57577   5.654   7.932   0.093 -0.2813 -0.2123  0.2405
19000SOL    HW157578   5.650   7.865   0.026  1.1187  1.9681 -2.1904
19000SOL    HW257579   5.697   8.007   0.051  0.8462  1.2604  3.6215
19001SOL     OW57580   9.157   4.031   3.587  0.3770  0.0278  0.0562
19001SOL    HW157581   9.196   4.113   3.617  0.3350 -0.2287  0.8594
19001SOL    HW257582   9.223   3.992   3.529  1.0110 -0.0410  0.8064
19002SOL     OW57583   1.893   7.150   3.611  0.4938 -0.2724  0.5262
19002SOL    HW157584   1.833   7.195   3.670  0.3213 -0.0132  0.1557
19002SOL    HW257585   1.839   7.126   3.536  0.7791 -0.3429  0.3436
19003SOL     OW57586   9.533   1.612   9.667  0.3544  0.4578 -0.3748
19003SOL    HW157587   9.459   1.598   9.726 -0.2421  0.6522 -1.0738
19003SOL    HW257588   9.606   1.632   9.726 -0.5431  2.0485  0.2773
19004SOL     OW57589   6.929   2.029   2.224  0.1670 -0.0445  0.0393
19004SOL    HW157590   6.896   2.082   2.151  1.1583  0.2297 -0.2244
19004SOL    HW257591   7.024   2.029   2.213  0.2640 -0.8806  0.7335
19005SOL     OW57592   6.804   7.587   8.632 -0.0146  0.0091  0.2569
19005SOL    HW157593   6.854   7.651   8.581 -1.6926 -0.0867 -1.6512
19005SOL    HW257594   6.728   7.636   8.663 -0.0159 -0.4452  0.9939
19006SOL     OW57595   4.850   1.642   6.984  0.3133 -0.4258  0.1917
19006SOL    HW157596   4.899   1.574   6.937 -0.1629 -0.2861 -0.5243
19006SOL    HW257597   4.771   1.599   7.014  0.5467 -0.4750  0.7473
19007SOL     OW57598   4.341   5.425   9.701 -0.5889  0.0514  0.2946
19007SOL    HW157599   4.428   5.465   9.709  0.0663 -0.9019 -1.4314
19007SOL    HW257600   4.349   5.340   9.744  0.2935 -1.3002 -2.3237
19008SOL     OW57601   2.320   5.497   8.400  0.5597 -0.0497  0.0141
19008SOL    HW157602   2.351   5.548   8.475 -0.0527  0.3445  0.0060
19008SOL    HW257603   2.359   5.540   8.324  2.1535 -1.1545  0.1532
19009SOL     OW57604   9.635   3.484   8.621  0.2024 -0.3049  0.0974
19009SOL    HW157605   9.618   3.566   8.668 -0.0801 -0.7011  0.6860
19009SOL    HW257606   9.731   3.475   8.624  0.3010  0.3842 -0.6224
19010SOL     OW57607   1.709   4.134   1.308 -0.1247  0.4071 -0.0829
19010SOL    HW157608   1.794   4.106   1.275 -0.1881  0.9260 -0.7128
19010SOL    HW257609   1.647   4.111   1.239 -0.5665 -0.3410  0.5432
19011SOL     OW57610   2.146   8.833   0.393  0.3098 -0.5364 -0.2742
19011SOL    HW157611   2.053   8.843   0.370  0.7577  2.2789 -1.2974
19011SOL    HW257612   2.146   8.827   0.489 -0.8974  1.8662 -0.0185
19012SOL     OW57613   9.887   8.013   3.495 -0.1283  0.1221  0.0420
19012SOL    HW157614   9.937   8.061   3.429 -1.4327  2.1843  0.4484
19012SOL    HW257615   9.951   7.992   3.563  0.3918  2.0414  0.2139
19013SOL     OW57616   5.398   1.743   2.138  0.1542  0.1307 -0.0632
19013SOL    HW157617   5.447   1.824   2.124  0.8074  0.0018  1.2947
19013SOL    HW257618   5.460   1.686   2.183 -0.3620 -1.0687 -0.8202
19014SOL     OW57619   0.340   4.448   1.572 -0.0184  0.0234  0.4672
19014SOL    HW157620   0.325   4.438   1.666  1.2021  0.5311  0.7401
19014SOL    HW257621   0.408   4.383   1.552 -1.7275 -1.5675 -0.5244
19015SOL     OW57622   7.380   2.523   1.486 -0.6048 -0.7221 -0.5395
19015SOL    HW157623   7.370   2.433   1.458 -0.9575 -0.2936 -1.8540
19015SOL    HW257624   7.462   2.552   1.445 -0.2640 -0.5797  0.2341
19016SOL     OW57625   3.217   7.224   2.320 -0.3149  0.9640  0.3868
19016SOL    HW157626   3.256   7.311   2.329  0.4232  0.8094 -1.1042
19016SOL    HW257627   3.167   7.229   2.239  1.2747 -0.5356 -0.7512
19017SOL     OW57628   5.756   2.435   4.165 -0.4809  0.2185  0.4154
19017SOL    HW157629   5.749   2.513   4.112 -0.0627 -0.7254 -1.0954
19017SOL    HW257630   5.769   2.467   4.254  1.7283  1.9029 -0.4235
19018SOL     OW57631   5.852   1.092   5.459  0.4536  0.1280  0.3036
19018SOL    HW157632   5.892   1.005   5.466  1.1451  0.5231  1.5903
19018SOL    HW257633   5.760   1.075   5.438  0.9117 -0.8442 -1.0644
19019SOL     OW57634   7.379   4.785   9.958  0.3963  0.5567 -0.6059
19019SOL    HW157635   7.366   4.691   9.946 -1.1705  0.9593 -2.8648
19019SOL    HW257636   7.294   4.817   9.988  0.7523  1.3189 -0.4048
19020SOL     OW57637   1.785   8.301   1.151  0.0361  0.3980 -0.2780
19020SOL    HW157638   1.724   8.250   1.098 -2.6848  3.2061 -0.1575
19020SOL    HW257639   1.825   8.362   1.089 -0.9507  1.7507  0.3777
19021SOL     OW57640   0.330   7.979   5.520 -0.6479  1.1760  0.0454
19021SOL    HW157641   0.368   7.905   5.568 -1.7616  0.9934  0.6603
19021SOL    HW257642   0.389   8.052   5.540  0.9370  0.3205 -1.2116
19022SOL     OW57643   9.154   4.557   7.855 -0.4416 -0.3193 -0.3885
19022SOL    HW157644   9.172   4.521   7.768  0.9178 -0.5590 -0.0195
19022SOL    HW257645   9.221   4.624   7.868 -1.0269  0.1629  0.2208
19023SOL     OW57646   2.887   3.152   2.082  0.0600 -0.6067 -0.4851
19023SOL    HW157647   2.824   3.080   2.074 -1.4446  0.8297 -2.8782
19023SOL    HW257648   2.850   3.208   2.150  0.0938 -0.9922 -0.1426
19024SOL     OW57649   4.588   7.195   5.484  0.0185 -0.1103  0.0011
19024SOL    HW157650   4.564   7.204   5.392 -0.1176 -0.9373 -0.0499
19024SOL    HW257651   4.628   7.108   5.490 -1.6032 -0.8415  1.0601
19025SOL     OW57652   4.385   2.383   8.784  0.4554  0.4242  0.8185
19025SOL    HW157653   4.403   2.469   8.823 -2.2159  0.3803  2.3523
19025SOL    HW257654   4.405   2.320   8.853  1.9262 -0.2297 -0.1367
19026SOL     OW57655   1.574   9.454   9.920 -0.2291  0.0193  0.2443
19026SOL    HW157656   1.651   9.506   9.940 -0.7779  0.3616  1.6162
19026SOL    HW257657   1.608   9.367   9.900  0.5498  0.3440  0.1177
19027SOL     OW57658   8.548   9.973   0.482  0.4161  0.0092 -0.0008
19027SOL    HW157659   8.567   9.936   0.396  0.7036 -3.6201  1.4513
19027SOL    HW257660   8.453   9.989   0.481  0.1634 -1.4229 -0.5113
19028SOL     OW57661   3.073   9.118   9.032 -0.1322  0.3337  0.1949
19028SOL    HW157662   3.101   9.140   9.120 -1.7517  0.9743  0.5919
19028SOL    HW257663   3.016   9.191   9.006  1.0896  0.6567 -1.7813
19029SOL     OW57664   9.589   9.764   6.100  0.1581 -0.1424 -0.4721
19029SOL    HW157665   9.594   9.721   6.185 -0.2288 -0.7550 -0.7589
19029SOL    HW257666   9.634   9.848   6.114  0.1423 -0.2543  0.3184
19030SOL     OW57667   6.289   0.627   6.889  0.6668 -0.5495  0.0653
19030SOL    HW157668   6.258   0.566   6.822 -1.1810  0.0678  0.3093
19030SOL    HW257669   6.367   0.585   6.926 -0.2311 -2.4857 -0.1519
19031SOL     OW57670   0.284   6.349   5.718 -0.4577  0.2495 -0.0713
19031SOL    HW157671   0.361   6.307   5.678 -0.6977  1.1570 -1.5901
19031SOL    HW257672   0.314   6.375   5.805  1.3153  1.4763 -0.9744
19032SOL     OW57673   1.378   1.879   7.701  0.1850  0.3209 -0.1527
19032SOL    HW157674   1.398   1.899   7.793 -0.2831  0.6249 -0.1160
19032SOL    HW257675   1.396   1.785   7.693 -1.1798 -0.0243  0.6361
19033SOL     OW57676   2.572   5.562   0.287  0.1093  0.1076 -0.2948
19033SOL    HW157677   2.498   5.500   0.282 -0.9171  1.3093 -0.4645
19033SOL    HW257678   2.641   5.521   0.235 -0.5309 -0.9233 -0.3601
19034SOL     OW57679   1.592   6.431   4.215 -0.5223 -0.0175 -0.0070
19034SOL    HW157680   1.649   6.508   4.214 -0.7287  0.1394 -0.6861
19034SOL    HW257681   1.503   6.467   4.215 -0.6400 -0.2197 -1.6242
19035SOL     OW57682   3.872   4.549   0.753 -0.1137  0.3706 -0.4325
19035SOL    HW157683   3.909   4.462   0.767  0.0630  0.3909 -0.7649
19035SOL    HW257684   3.790   4.548   0.802  1.7027  1.3478  2.8895
19036SOL     OW57685   5.081   3.646   8.645  0.8777 -0.2210  0.0117
19036SOL    HW157686   5.174   3.629   8.632  0.9782  1.0832 -1.2736
19036SOL    HW257687   5.077   3.705   8.720  1.1633  0.3456 -0.4121
19037SOL     OW57688   0.672   7.305   0.554  0.2014 -0.0497  0.0302
19037SOL    HW157689   0.762   7.310   0.588  0.6895  0.0002 -1.2047
19037SOL    HW257690   0.626   7.251   0.618  1.2328 -0.4485  0.4733
19038SOL     OW57691   8.414   8.931   2.259  0.0742 -0.1228  0.1751
19038SOL    HW157692   8.480   8.996   2.283  0.4659  0.2256 -1.6683
19038SOL    HW257693   8.463   8.852   2.239 -0.3303 -0.7432  1.5317
19039SOL     OW57694   8.931   8.898   8.587 -0.0068 -0.1296 -0.1750
19039SOL    HW157695   8.991   8.904   8.513 -0.2970  1.1559 -0.3399
19039SOL    HW257696   8.988   8.887   8.663  0.6141  2.4003 -0.1649
19040SOL     OW57697   9.271   9.486   1.319  0.3176 -0.6954  0.3909
19040SOL    HW157698   9.183   9.510   1.347 -0.4964 -0.5402 -2.0633
19040SOL    HW257699   9.314   9.456   1.399 -1.5173  0.4573  1.8955
19041SOL     OW57700   6.316   8.191   0.286  0.1691  0.3200  0.1619
19041SOL    HW157701   6.233   8.144   0.300  0.6413 -1.1196 -1.5769
19041SOL    HW257702   6.318   8.256   0.357 -2.7189  0.8146 -0.0643
19042SOL     OW57703   8.558   9.273   1.573 -0.3430 -0.0162 -0.0512
19042SOL    HW157704   8.641   9.225   1.577  0.6059  1.0667 -3.1733
19042SOL    HW257705   8.584   9.365   1.582 -1.3652  0.2739  0.0576
19043SOL     OW57706   1.167   4.773   4.086  0.0967  0.0455 -0.0556
19043SOL    HW157707   1.141   4.744   3.998 -0.9785  2.8303 -0.7649
19043SOL    HW257708   1.256   4.804   4.075  0.4815 -0.9212  0.2135
19044SOL     OW57709   0.470   7.189   4.891  0.1529 -0.2201 -0.4274
19044SOL    HW157710   0.468   7.170   4.985 -0.6155  0.9978 -0.1684
19044SOL    HW257711   0.480   7.284   4.886 -1.9370  0.0089 -1.5105
19045SOL     OW57712   8.708   6.290   3.033 -0.1234 -1.0913  0.2431
19045SOL    HW157713   8.794   6.252   3.019  0.7891  0.5546  1.0489
19045SOL    HW257714   8.718   6.342   3.113 -2.1906 -1.7812  1.0180
19046SOL     OW57715   7.214   7.964   7.467 -0.1452 -0.0180  0.8371
19046SOL    HW157716   7.218   7.887   7.409  0.7667  0.3389  0.4198
19046SOL    HW257717   7.135   7.949   7.519 -0.5676 -0.7232  0.0335
19047SOL     OW57718   5.472   1.839   4.843 -0.0187 -0.2469 -0.0711
19047SOL    HW157719   5.448   1.757   4.801 -1.6050 -0.2071  0.6891
19047SOL    HW257720   5.403   1.900   4.820  1.9859  1.4560 -2.0470
19048SOL     OW57721   7.971   1.853   0.233  0.2602  0.0415 -0.7172
19048SOL    HW157722   7.910   1.794   0.189 -1.7985  1.3555  0.2140
19048SOL    HW257723   8.045   1.862   0.173 -0.3720 -1.7563 -1.8093
19049SOL     OW57724   3.317   3.284   5.070 -0.2754  0.6365 -0.1547
19049SOL    HW157725   3.244   3.228   5.043 -0.0489  0.2793 -0.0275
19049SOL    HW257726   3.309   3.362   5.014  0.1618 -0.0682 -1.2408
19050SOL     OW57727   4.916   4.288   2.956 -0.8394 -0.1181  0.1296
19050SOL    HW157728   4.895   4.344   3.031 -1.1961 -0.5906  0.3823
19050SOL    HW257729   4.857   4.318   2.887 -0.9038 -0.0613  0.2094
19051SOL     OW57730   3.600   5.219   3.568 -0.0741 -0.2024  0.5391
19051SOL    HW157731   3.510   5.187   3.575 -0.3432  0.3423 -0.3047
19051SOL    HW257732   3.592   5.310   3.540  0.7289  0.0795  1.1699
19052SOL     OW57733   8.766   0.796   9.285 -0.4447 -0.3010  0.0137
19052SOL    HW157734   8.721   0.879   9.296  0.2523 -0.1370  2.0243
19052SOL    HW257735   8.703   0.741   9.238 -1.6079  0.8000  0.2282
19053SOL     OW57736   8.921   8.432   4.258  0.7567 -0.4342  0.0368
19053SOL    HW157737   8.853   8.416   4.193  0.1688 -1.6326  0.8968
19053SOL    HW257738   8.882   8.496   4.318 -0.6996 -2.8897  1.9294
19054SOL     OW57739   2.952   7.602   6.427 -0.2351 -0.3035  0.3327
19054SOL    HW157740   2.927   7.618   6.518  1.7103  1.2658  0.6585
19054SOL    HW257741   2.931   7.683   6.381 -0.2117 -0.6998 -0.4097
19055SOL     OW57742   4.122   0.358   8.178  0.3426  0.2299 -0.0465
19055SOL    HW157743   4.174   0.361   8.258 -0.0642  0.6144  0.2040
19055SOL    HW257744   4.179   0.396   8.111  0.6841 -0.0993  0.0501
19056SOL     OW57745   9.727   4.732   3.037  0.3655 -0.0350 -0.0817
19056SOL    HW157746   9.657   4.763   3.095  0.9885  2.1360 -0.3914
19056SOL    HW257747   9.734   4.800   2.970  3.0192  0.0107  0.1501
19057SOL     OW57748   5.880   0.436   4.521  0.3577 -0.7918  0.0729
19057SOL    HW157749   5.788   0.413   4.508  0.1007 -0.5785  1.2953
19057SOL    HW257750   5.887   0.526   4.490  0.2297 -0.9174 -0.3193
19058SOL     OW57751   3.381   9.113   2.971  0.4132  0.1853 -0.3931
19058SOL    HW157752   3.443   9.050   2.935  2.0802  1.5567 -0.0999
19058SOL    HW257753   3.354   9.166   2.896 -0.3239 -0.3404 -0.5012
19059SOL     OW57754   7.822   9.772   1.877 -0.4606  0.1290  0.0802
19059SOL    HW157755   7.826   9.686   1.835  0.2036 -0.9685  2.2651
19059SOL    HW257756   7.846   9.833   1.807 -0.5470 -1.4712 -1.4282
19060SOL     OW57757   0.690   6.467   5.103  0.3121 -0.1369 -0.3789
19060SOL    HW157758   0.748   6.483   5.030 -0.9834 -0.3005 -1.4862
19060SOL    HW257759   0.644   6.386   5.080  0.1086 -0.3629  0.7605
19061SOL     OW57760   3.942   4.958   0.478 -0.2964  0.0145  0.2592
19061SOL    HW157761   3.861   4.995   0.444 -0.4575  0.4757  1.0909
19061SOL    HW257762   3.983   5.031   0.526  1.1414  0.1012 -1.0377
19062SOL     OW57763   0.579   9.291   5.421 -0.1641 -0.0397 -0.1097
19062SOL    HW157764   0.595   9.382   5.397 -0.0669  0.0216  0.1796
19062SOL    HW257765   0.570   9.245   5.338 -0.0885  0.2122 -0.2577
19063SOL     OW57766   9.716   7.335   5.074  0.3453  0.0149  0.0861
19063SOL    HW157767   9.747   7.349   5.164 -0.2338 -1.0040  0.4598
19063SOL    HW257768   9.622   7.320   5.084  0.4423 -1.1669 -0.5721
19064SOL     OW57769   3.470   1.934   6.830  0.0746 -0.4051  0.3814
19064SOL    HW157770   3.547   1.986   6.808  0.3746 -0.6614  0.8096
19064SOL    HW257771   3.505   1.851   6.863 -0.3688 -0.3551  1.0070
19065SOL     OW57772   2.259   3.228   9.633 -0.1618 -0.1689 -0.0869
19065SOL    HW157773   2.296   3.230   9.721 -0.6490  1.6359  0.1188
19065SOL    HW257774   2.324   3.274   9.579 -0.4300 -0.1917 -0.4338
19066SOL     OW57775   9.230   4.910   1.516  0.6750 -0.1994  0.3239
19066SOL    HW157776   9.237   4.882   1.424  2.5033  1.4556 -0.1125
19066SOL    HW257777   9.149   4.961   1.519  1.8513  1.9079 -1.0815
19067SOL     OW57778   5.479   5.266   0.421  0.6107  0.2542 -0.5686
19067SOL    HW157779   5.479   5.358   0.393 -0.7720  0.3082 -0.4506
19067SOL    HW257780   5.510   5.268   0.511  0.4088  0.6319 -0.5060
19068SOL     OW57781   7.289   5.713   1.494 -0.7464 -0.0610 -0.2193
19068SOL    HW157782   7.367   5.658   1.502 -0.6625  0.3607  3.0935
19068SOL    HW257783   7.318   5.787   1.440  0.5041 -0.9262 -0.7776
19069SOL     OW57784   0.911   4.979   5.357 -0.7625 -0.0985 -0.7668
19069SOL    HW157785   0.902   4.932   5.274  0.1152 -2.0472  0.1637
19069SOL    HW257786   1.005   4.995   5.366 -0.7307 -0.7092  0.2321
19070SOL     OW57787   0.224   2.823   3.952 -0.1069 -0.1243  0.6925
19070SOL    HW157788   0.156   2.770   3.910  1.4587 -0.8134 -1.1411
19070SOL    HW257789   0.222   2.797   4.044  0.2392 -3.0466 -0.0269
19071SOL     OW57790   6.133   3.911   1.685  0.0982 -0.0584 -0.0303
19071SOL    HW157791   6.219   3.877   1.710  0.0534  0.9064  1.5615
19071SOL    HW257792   6.110   3.862   1.606  1.2358 -1.7466  0.6259
19072SOL     OW57793   9.936   1.101   3.250  0.3334 -0.1800 -0.0788
19072SOL    HW157794  10.022   1.133   3.223  0.0189 -0.5074 -1.5476
19072SOL    HW257795   9.874   1.166   3.217 -0.2533 -1.8059 -2.4927
19073SOL     OW57796   9.720   0.743   2.178 -0.0869 -0.0909 -0.2448
19073SOL    HW157797   9.730   0.788   2.094  2.9715  0.0056  0.0791
19073SOL    HW257798   9.765   0.659   2.166  1.8163  0.5767  1.7080
19074SOL     OW57799   9.783   0.037   9.753  0.7558  0.2100  0.8212
19074SOL    HW157800   9.848   0.003   9.692 -0.5912  0.7094 -0.9621
19074SOL    HW257801   9.834   0.085   9.818  2.1466  1.2365 -0.9408
19075SOL     OW57802   0.120   1.810   7.583  0.2810  0.5123  0.0826
19075SOL    HW157803   0.111   1.743   7.651  0.6188  1.0324  0.6513
19075SOL    HW257804   0.071   1.886   7.617  1.5150  1.2163  0.3389
19076SOL     OW57805   6.045   4.773   0.290 -0.0110  0.4254 -0.5535
19076SOL    HW157806   6.110   4.817   0.236 -0.3909  1.2640 -0.3339
19076SOL    HW257807   6.008   4.706   0.232  3.6524 -2.7619  0.3632
19077SOL     OW57808   5.143   1.900   2.315 -0.1850 -0.1511  0.5081
19077SOL    HW157809   5.177   1.979   2.274 -0.0043  0.0462  1.0245
19077SOL    HW257810   5.202   1.885   2.389  0.1430 -1.1057  0.0700
19078SOL     OW57811   4.299   2.009   0.058  0.0308  0.1009  0.3937
19078SOL    HW157812   4.260   1.946  -0.002 -0.2888  0.6533  0.0041
19078SOL    HW257813   4.362   1.959   0.110 -1.5096 -0.9078  1.3478
19079SOL     OW57814   5.848   1.480   0.627 -0.1158 -0.1457  0.1769
19079SOL    HW157815   5.878   1.570   0.638 -1.3454  0.1711  1.1749
19079SOL    HW257816   5.755   1.483   0.649 -0.3475 -1.5245 -0.5070
19080SOL     OW57817   8.190   1.448   6.709 -0.2450 -0.4869  0.1361
19080SOL    HW157818   8.238   1.527   6.733  1.4027 -1.4634  0.1701
19080SOL    HW257819   8.118   1.479   6.654 -1.1397  1.2908  2.1608
19081SOL     OW57820   6.093   4.301   3.545  0.4964  0.1510  0.4927
19081SOL    HW157821   6.098   4.379   3.600  1.1429  0.4774 -0.0097
19081SOL    HW257822   6.005   4.267   3.559 -0.3884  1.8782 -0.4943
19082SOL     OW57823   7.163   4.368   2.560 -0.4936 -0.2404  0.3734
19082SOL    HW157824   7.217   4.440   2.526  1.1194 -1.3987  0.3615
19082SOL    HW257825   7.191   4.358   2.651 -1.0643 -0.5468  0.5174
19083SOL     OW57826   4.374   2.256   6.762 -0.1096  0.1212  0.6889
19083SOL    HW157827   4.452   2.201   6.755 -1.0122 -1.0259 -1.4871
19083SOL    HW257828   4.361   2.291   6.674 -2.1945  0.0199  0.8929
19084SOL     OW57829   3.883   5.017   2.359 -0.2473  0.3053 -0.2172
19084SOL    HW157830   3.959   5.031   2.303 -0.6508  0.4268 -0.7396
19084SOL    HW257831   3.824   4.963   2.307 -1.0433  1.2139 -0.2870
19085SOL     OW57832   2.202   5.869   1.172  0.2386  0.3956 -0.7109
19085SOL    HW157833   2.140   5.805   1.207  0.2784  0.1839 -1.0239
19085SOL    HW257834   2.186   5.869   1.077 -0.0833  1.1889 -0.6693
19086SOL     OW57835   6.959   6.985   9.303  0.6945 -0.2512  0.1894
19086SOL    HW157836   6.879   7.017   9.345  0.8561  0.6772 -0.2035
19086SOL    HW257837   7.028   7.041   9.337  0.8865  0.2411 -0.9963
19087SOL     OW57838   0.841   4.128   2.109 -0.4249  0.0627 -0.3641
19087SOL    HW157839   0.925   4.083   2.110  0.5619  1.8061 -0.2549
19087SOL    HW257840   0.782   4.071   2.158  0.8139 -0.9853 -0.0555
19088SOL     OW57841   0.779   7.467   5.012 -0.0720 -0.0896  0.5590
19088SOL    HW157842   0.872   7.469   4.987  0.0711  1.9422  1.0978
19088SOL    HW257843   0.779   7.493   5.104 -1.2759  1.3252  0.1809
19089SOL     OW57844   8.949   2.894   5.593  0.0100 -0.1570  0.5439
19089SOL    HW157845   8.969   2.862   5.505  1.0214  0.9652  0.3491
19089SOL    HW257846   8.997   2.976   5.601 -2.0385  1.0541  1.2371
19090SOL     OW57847   0.608   2.748   1.663  0.1081 -0.1808 -0.2344
19090SOL    HW157848   0.699   2.764   1.685  0.2190 -1.0259 -0.0391
19090SOL    HW257849   0.608   2.736   1.568 -0.1542  2.0433 -0.5559
19091SOL     OW57850   7.370   3.000   1.898 -0.2071  0.2297  0.0481
19091SOL    HW157851   7.395   3.069   1.958 -0.2568  0.5332 -0.2786
19091SOL    HW257852   7.415   3.020   1.816 -0.1737 -0.1545 -0.0329
19092SOL     OW57853   3.578   6.203   2.944 -0.2752  0.2505 -0.3091
19092SOL    HW157854   3.487   6.182   2.964 -1.0609  0.6396 -3.0195
19092SOL    HW257855   3.606   6.259   3.016 -2.0468 -0.1982  0.7981
19093SOL     OW57856   5.379   1.655   2.938 -0.5126  0.6183 -0.6028
19093SOL    HW157857   5.357   1.572   2.981  0.8142  0.6285  0.1415
19093SOL    HW257858   5.470   1.646   2.912 -0.4172  1.7490 -0.7188
19094SOL     OW57859   6.218   6.514   4.914  0.1281  0.2991 -0.0705
19094SOL    HW157860   6.197   6.494   4.823 -1.2451  2.1006 -0.2005
19094SOL    HW257861   6.258   6.601   4.911 -0.2994  0.5568  1.0684
19095SOL     OW57862   5.702   7.753   2.498 -0.3071  0.0664  0.9426
19095SOL    HW157863   5.718   7.659   2.491 -1.3098 -0.2750  2.5162
19095SOL    HW257864   5.788   7.791   2.514  0.3238 -0.3703 -1.2145
19096SOL     OW57865   8.491   1.942   7.084  0.2592 -0.1114 -0.0489
19096SOL    HW157866   8.470   1.849   7.091 -0.3923 -0.0593 -1.0777
19096SOL    HW257867   8.583   1.948   7.109  1.5760 -1.6830 -3.7722
19097SOL     OW57868   5.301   4.674   0.351 -0.3125  0.2111 -0.0075
19097SOL    HW157869   5.355   4.732   0.297  0.7269 -1.3688 -0.7491
19097SOL    HW257870   5.216   4.674   0.307  0.0239  0.2735 -0.6748
19098SOL     OW57871   1.138   9.204   4.788  0.3323 -0.1287 -0.3396
19098SOL    HW157872   1.203   9.230   4.852  0.0022 -3.2130  1.4893
19098SOL    HW257873   1.063   9.175   4.840 -1.0438 -0.2016 -2.2368
19099SOL     OW57874   8.727   7.067   8.330  0.3605  0.5081  0.3349
19099SOL    HW157875   8.708   7.140   8.270 -1.8706  0.1742  0.5723
19099SOL    HW257876   8.755   6.996   8.272 -0.2288  0.6834 -0.1808
19100SOL     OW57877   0.390   4.757   9.423  0.1044  0.0696 -0.1774
19100SOL    HW157878   0.456   4.825   9.411 -0.4843  0.5202 -1.0036
19100SOL    HW257879   0.421   4.683   9.370  0.1513  0.1316 -0.2365
19101SOL     OW57880   6.304   5.857   9.561 -0.0038 -0.3203  0.5406
19101SOL    HW157881   6.385   5.813   9.586 -0.3773 -0.3502  1.7921
19101SOL    HW257882   6.237   5.789   9.570 -0.2117 -0.2225 -0.2175
19102SOL     OW57883   9.142   8.049   3.053  0.2957  0.0680  0.1811
19102SOL    HW157884   9.216   8.002   3.091  0.7289  1.1726  0.7428
19102SOL    HW257885   9.149   8.138   3.089 -1.9165 -0.0713  1.1006
19103SOL     OW57886   3.831   1.636   0.408  0.1394 -0.2516 -0.6972
19103SOL    HW157887   3.922   1.607   0.418 -0.3938 -1.5069  0.7665
19103SOL    HW257888   3.828   1.674   0.320  2.2792  0.6092 -0.4542
19104SOL     OW57889   7.550   4.758   5.013 -0.8779  0.6819 -0.2807
19104SOL    HW157890   7.544   4.814   4.936  3.2462  0.3330 -1.0951
19104SOL    HW257891   7.544   4.669   4.979 -0.0535  0.5419 -0.0720
19105SOL     OW57892   0.905   6.510   9.295  0.1370 -0.0919 -0.1268
19105SOL    HW157893   0.887   6.595   9.253  0.5545  0.6888  1.1932
19105SOL    HW257894   0.819   6.480   9.326  0.2017  0.6745  0.8482
19106SOL     OW57895   7.669   1.110   7.218  0.3166  0.6105  0.4757
19106SOL    HW157896   7.586   1.151   7.195 -0.5077 -0.2119  1.8035
19106SOL    HW257897   7.723   1.182   7.252 -0.1103  1.0310  0.2710
19107SOL     OW57898   0.067   4.062   7.815 -0.2044  0.1293  0.9177
19107SOL    HW157899   0.065   4.018   7.729  1.4190  2.9500 -0.6926
19107SOL    HW257900  -0.021   4.097   7.826  0.0982  1.4647 -0.6208
19108SOL     OW57901   5.722   3.470   6.328 -0.4614 -0.2743  0.7271
19108SOL    HW157902   5.753   3.455   6.417 -1.8254 -0.7799  1.1446
19108SOL    HW257903   5.626   3.466   6.335 -0.6553  1.1514 -0.4981
19109SOL     OW57904   4.720   5.952   9.356  0.7094 -1.1595  0.2316
19109SOL    HW157905   4.690   5.956   9.266 -1.6050 -0.2090  0.9602
19109SOL    HW257906   4.812   5.979   9.353  0.3277  0.0746 -1.6913
19110SOL     OW57907   5.311   4.525   7.524 -0.0326  0.1959  0.2504
19110SOL    HW157908   5.292   4.619   7.525  0.3794  0.2865 -0.0705
19110SOL    HW257909   5.402   4.519   7.553  0.4585  0.0326 -1.2234
19111SOL     OW57910   5.566   0.085   8.043  0.4204 -0.1301 -0.1658
19111SOL    HW157911   5.654   0.052   8.064  0.4582  0.3281  0.4235
19111SOL    HW257912   5.532   0.116   8.127 -0.7953 -1.4338 -0.1490
19112SOL     OW57913   6.382   5.723   1.037  0.0269  0.0831 -1.2083
19112SOL    HW157914   6.352   5.714   0.946  1.2722 -0.9229 -1.5454
19112SOL    HW257915   6.378   5.634   1.072  0.5524  0.2956 -0.6038
19113SOL     OW57916   1.593   7.321   9.118 -0.0764 -0.5362 -0.1732
19113SOL    HW157917   1.645   7.301   9.196  1.2062 -0.8678 -1.0719
19113SOL    HW257918   1.544   7.400   9.141 -0.6646 -1.3258  1.3686
19114SOL     OW57919   3.112   6.117   6.302 -0.1265  0.1976 -0.3859
19114SOL    HW157920   3.076   6.049   6.244  1.5255 -1.1771  0.1138
19114SOL    HW257921   3.072   6.099   6.387 -0.3689  0.4113 -0.4552
19115SOL     OW57922   1.663   5.833   0.861 -0.1461  0.2078  0.3050
19115SOL    HW157923   1.603   5.899   0.827 -1.6825 -1.2717  0.0512
19115SOL    HW257924   1.607   5.761   0.891  1.4970 -1.8691 -1.2612
19116SOL     OW57925   2.825   3.568   5.766  1.0114  0.1245  0.3489
19116SOL    HW157926   2.809   3.474   5.756  0.0447  0.2983  0.1425
19116SOL    HW257927   2.738   3.606   5.779  1.3112  1.0775 -0.3084
19117SOL     OW57928   7.547   2.463   2.874  0.0557 -0.2429  0.0942
19117SOL    HW157929   7.566   2.369   2.881  2.9247  0.3012  0.5543
19117SOL    HW257930   7.532   2.478   2.781  0.4108 -1.0061 -0.0886
19118SOL     OW57931   9.939   9.360   4.066 -0.5076  0.3182 -0.0564
19118SOL    HW157932  10.014   9.420   4.063  0.8866 -1.2467  1.3179
19118SOL    HW257933   9.904   9.362   3.977  1.7731  0.3788 -1.0306
19119SOL     OW57934   1.547   1.853   1.189  0.0645 -0.3850  0.2416
19119SOL    HW157935   1.484   1.826   1.256 -0.0667  2.4398  1.3600
19119SOL    HW257936   1.504   1.832   1.106 -0.8764 -1.5761  0.9996
19120SOL     OW57937   3.292   1.319   9.337  0.0296 -0.0911 -0.1476
19120SOL    HW157938   3.256   1.379   9.402 -1.9457 -2.1314  0.7513
19120SOL    HW257939   3.370   1.283   9.378  1.2542  1.7553 -0.7044
19121SOL     OW57940   5.007   5.499   1.261  0.3473 -0.8619  0.3443
19121SOL    HW157941   5.090   5.504   1.309  0.0862  0.4906  0.7028
19121SOL    HW257942   4.944   5.546   1.316 -0.0138  0.5576 -1.1875
19122SOL     OW57943   6.385   3.133   8.021  0.1107  0.3175  0.4793
19122SOL    HW157944   6.421   3.049   7.994 -1.4769 -0.0004 -0.8126
19122SOL    HW257945   6.337   3.114   8.102 -0.4861 -0.1050  0.0361
19123SOL     OW57946   7.718   8.035   0.283  0.2273 -0.0535 -0.1909
19123SOL    HW157947   7.786   8.045   0.217  0.1007  0.7627 -0.2107
19123SOL    HW257948   7.751   7.968   0.343  1.0282  0.3088 -0.2236
19124SOL     OW57949   9.032   4.711   9.456  0.1630 -0.4518 -0.3056
19124SOL    HW157950   9.019   4.778   9.523 -2.5613  0.8348 -1.9390
19124SOL    HW257951   9.031   4.760   9.373 -2.3132 -2.4726 -1.5885
19125SOL     OW57952   4.257   2.264   1.223  0.4873 -0.1244 -0.8038
19125SOL    HW157953   4.289   2.179   1.255 -0.0233 -0.2243 -0.5559
19125SOL    HW257954   4.165   2.248   1.201  0.3371  0.4205 -0.5678
19126SOL     OW57955   8.598   3.067   3.494  0.2206  0.1795 -0.3732
19126SOL    HW157956   8.623   2.980   3.462  2.8484  0.6667  0.1351
19126SOL    HW257957   8.572   3.115   3.416  0.7028 -0.4556 -0.9361
19127SOL     OW57958   8.096   2.566   9.214 -0.3526 -0.4166  0.6045
19127SOL    HW157959   8.028   2.626   9.185 -0.4405 -2.0694 -3.0373
19127SOL    HW257960   8.151   2.552   9.137  0.7894 -3.4898  1.8093
19128SOL     OW57961   3.650   6.515   2.872  0.4443  0.0250 -0.3322
19128SOL    HW157962   3.636   6.599   2.916 -1.2663 -0.9082  1.0140
19128SOL    HW257963   3.567   6.497   2.829  1.2026 -0.4270 -1.6703
19129SOL     OW57964   2.319   3.394   0.809  0.0335 -0.4111  0.7718
19129SOL    HW157965   2.275   3.346   0.879  1.1648 -1.0861  1.0406
19129SOL    HW257966   2.335   3.329   0.741  1.9177 -0.5550  1.2959
19130SOL     OW57967   3.955   8.588   0.203  0.4125 -0.1784 -0.3292
19130SOL    HW157968   3.971   8.498   0.175  1.6210  0.3448 -1.3689
19130SOL    HW257969   4.010   8.599   0.281 -0.1593 -0.4947  0.1295
19131SOL     OW57970   5.036   4.978   2.033 -0.2819  0.5706  0.3787
19131SOL    HW157971   5.072   4.907   1.981 -0.2864  0.8001  0.0618
19131SOL    HW257972   4.993   4.934   2.106 -1.1325  0.1872 -0.3320
19132SOL     OW57973   3.030   8.941   6.444  0.4745  0.2106  0.0911
19132SOL    HW157974   3.049   8.988   6.363 -2.1915 -1.8461 -1.9396
19132SOL    HW257975   2.984   9.005   6.499 -2.5987  0.3990 -2.3673
19133SOL     OW57976   2.236   9.918   2.662  0.0862  0.1302  0.5019
19133SOL    HW157977   2.289   9.843   2.633 -2.3657 -1.8501  0.7935
19133SOL    HW257978   2.231   9.975   2.585  0.8510 -0.6861 -0.1809
19134SOL     OW57979   1.287   1.370   7.425 -0.4568 -0.5816  0.6469
19134SOL    HW157980   1.343   1.437   7.387  1.5440 -0.7502  3.0109
19134SOL    HW257981   1.202   1.381   7.382  0.8922  0.8300 -1.8345
19135SOL     OW57982   2.877   4.395   8.217  0.2412 -0.3480  0.2547
19135SOL    HW157983   2.802   4.415   8.161  0.7156  2.4502  0.4750
19135SOL    HW257984   2.938   4.349   8.160  0.7412  2.4808 -1.6815
19136SOL     OW57985   8.396   3.262   7.703  0.1231 -0.2258  0.5653
19136SOL    HW157986   8.386   3.212   7.784 -1.5621 -0.4342  0.2524
19136SOL    HW257987   8.360   3.206   7.635  0.8282  0.2597 -0.2291
19137SOL     OW57988   2.356   3.192   5.853  0.5027 -0.3197 -0.3267
19137SOL    HW157989   2.413   3.119   5.832 -0.1668 -1.0818  0.4394
19137SOL    HW257990   2.268   3.154   5.858  0.2405  0.3710  0.8113
19138SOL     OW57991   4.568   4.356   4.195  0.0962  0.2677 -0.1879
19138SOL    HW157992   4.613   4.274   4.220 -0.3373  0.2035  0.3904
19138SOL    HW257993   4.483   4.327   4.162 -1.0934  0.5995  2.3615
19139SOL     OW57994   9.784   7.800   8.802 -0.4567 -0.0651 -0.4915
19139SOL    HW157995   9.761   7.809   8.709 -0.7845 -0.6615 -0.4727
19139SOL    HW257996   9.748   7.715   8.827 -1.8536  0.8223  0.6389
19140SOL     OW57997   2.825   7.087   1.986  0.2070  0.4128 -0.0930
19140SOL    HW157998   2.739   7.129   1.981 -0.2583 -0.5094 -0.0470
19140SOL    HW257999   2.849   7.071   1.895 -0.4476 -0.8373 -0.0706
19141SOL     OW58000   8.788   8.431   5.086  0.2942  0.3173 -0.2495
19141SOL    HW158001   8.782   8.360   5.150  1.6609 -0.6373 -1.1167
19141SOL    HW258002   8.878   8.426   5.054 -0.2354  1.0310 -1.9395
19142SOL     OW58003   0.451   9.383   7.759  0.6637 -0.1223  0.0958
19142SOL    HW158004   0.376   9.331   7.786  0.1971 -0.2640 -1.3880
19142SOL    HW258005   0.486   9.418   7.841 -1.0660  0.0216  0.8307
19143SOL     OW58006   8.725   5.847   2.402  0.2300 -0.4828 -0.0402
19143SOL    HW158007   8.780   5.778   2.439  1.7806  0.3781 -0.6232
19143SOL    HW258008   8.665   5.801   2.344 -0.5654 -1.5826  1.5910
19144SOL     OW58009   3.937   8.283   1.339 -0.4952  0.0655  0.2663
19144SOL    HW158010   4.031   8.294   1.326 -0.4085 -0.1162  0.7294
19144SOL    HW258011   3.901   8.370   1.327 -0.3436  0.0308 -0.5194
19145SOL     OW58012   3.794   9.752   2.537 -0.0863 -0.0888 -0.0331
19145SOL    HW158013   3.709   9.734   2.497  0.8609 -0.5778 -1.8879
19145SOL    HW258014   3.830   9.825   2.486  1.5774 -1.3708 -0.7724
19146SOL     OW58015   3.284   5.532   4.833  0.0792 -0.4888 -0.2444
19146SOL    HW158016   3.196   5.566   4.853  0.1649 -1.1706  1.4027
19146SOL    HW258017   3.296   5.458   4.892  1.5741 -0.7515 -0.8245
19147SOL     OW58018   8.506   5.966   4.027  0.4029  0.3804  0.1045
19147SOL    HW158019   8.586   5.942   3.980 -0.2939 -0.4910 -0.6932
19147SOL    HW258020   8.444   5.990   3.958  0.4000  2.4873  0.7804
19148SOL     OW58021   8.961   8.736   0.447  0.3969 -0.0094  0.0446
19148SOL    HW158022   8.971   8.821   0.404  0.5464 -0.0704 -0.0403
19148SOL    HW258023   8.868   8.733   0.471  0.3996  0.1940  0.0816
19149SOL     OW58024   8.340   9.102   4.735  0.0071  0.3173 -0.2371
19149SOL    HW158025   8.338   9.019   4.782 -0.1728  0.5218  0.1120
19149SOL    HW258026   8.251   9.114   4.702  0.3620 -0.3279 -1.5153
19150SOL     OW58027   6.075   8.666   2.635  0.1915 -0.3398 -0.4455
19150SOL    HW158028   6.130   8.613   2.578  0.8174 -1.5193  1.1793
19150SOL    HW258029   6.028   8.725   2.576  0.8582 -1.4486 -2.1375
19151SOL     OW58030   3.579   0.494   4.306 -0.2562  0.0557 -0.1363
19151SOL    HW158031   3.624   0.427   4.256 -2.1331 -1.2505 -0.1940
19151SOL    HW258032   3.521   0.537   4.243  0.1807  1.0617  0.1187
19152SOL     OW58033   9.841   0.807   4.062 -0.1758  0.0785  0.8325
19152SOL    HW158034   9.824   0.839   3.973 -0.2132 -1.7567  0.1285
19152SOL    HW258035   9.762   0.759   4.086  0.0852  0.0214  1.6041
19153SOL     OW58036   6.461   8.309   4.235 -0.5354  0.1959 -0.2830
19153SOL    HW158037   6.437   8.234   4.181  0.1164 -0.2412  0.0171
19153SOL    HW258038   6.470   8.381   4.174  0.9435 -0.4576 -0.8841
19154SOL     OW58039   4.769   2.688   0.767  0.0618 -0.1123 -0.3737
19154SOL    HW158040   4.709   2.700   0.841 -0.1310 -0.1651 -0.5210
19154SOL    HW258041   4.780   2.593   0.760 -0.1580 -0.1213 -0.6020
19155SOL     OW58042   4.631   9.952   3.113 -0.9703 -0.2030 -1.0579
19155SOL    HW158043   4.624   9.943   3.208 -0.1897 -1.3027 -1.0872
19155SOL    HW258044   4.623   9.863   3.079 -1.1040  0.1623 -2.0164
19156SOL     OW58045   9.557   8.405   2.962  0.2987  0.5171 -0.0634
19156SOL    HW158046   9.474   8.388   2.918 -0.3998  0.1915  1.3190
19156SOL    HW258047   9.605   8.462   2.902 -1.4942  1.8963 -0.2651
19157SOL     OW58048   9.770   9.315   9.533 -0.3379 -0.4284 -0.5869
19157SOL    HW158049   9.687   9.347   9.497 -1.4450 -1.1970  1.1321
19157SOL    HW258050   9.789   9.236   9.483 -0.4014 -0.0212 -1.2725
19158SOL     OW58051   7.768   4.117   8.224 -0.9596 -0.1397  0.1557
19158SOL    HW158052   7.793   4.037   8.271 -0.9190 -1.2695 -1.6599
19158SOL    HW258053   7.708   4.162   8.283  0.0026 -0.8622  1.7585
19159SOL     OW58054   9.511   7.086   6.143  0.0103 -0.4930 -0.0175
19159SOL    HW158055   9.423   7.116   6.166 -0.7646 -1.1895 -1.9156
19159SOL    HW258056   9.562   7.166   6.135 -0.3021 -0.1050  1.5337
19160SOL     OW58057   7.079   0.301   6.535  0.2248  0.0945  0.2925
19160SOL    HW158058   7.018   0.373   6.518 -0.8155 -1.0401 -0.9124
19160SOL    HW258059   7.146   0.309   6.467 -1.1412 -1.3813 -1.3162
19161SOL     OW58060   3.142   2.519   4.601 -0.2237  0.2922 -0.5548
19161SOL    HW158061   3.134   2.527   4.506 -0.7511 -0.0935 -0.5451
19161SOL    HW258062   3.083   2.447   4.625 -0.6817  0.8903  0.1603
19162SOL     OW58063   3.508   1.725   0.752  0.3960  0.2501 -0.3688
19162SOL    HW158064   3.424   1.680   0.745  0.2940  0.2698  0.5118
19162SOL    HW258065   3.547   1.719   0.665 -0.0384 -0.6976 -0.5056
19163SOL     OW58066   8.755   4.789   2.299 -0.7075  0.8839 -0.0074
19163SOL    HW158067   8.697   4.851   2.254  0.4528  1.3913 -0.8556
19163SOL    HW258068   8.782   4.728   2.230 -0.3900  0.5404  0.4196
19164SOL     OW58069   2.580   9.905   5.291  0.3348 -0.3983  0.0193
19164SOL    HW158070   2.675   9.915   5.301  0.7986 -2.1874 -1.7134
19164SOL    HW258071   2.570   9.863   5.205 -1.9806 -0.9912  0.5121
19165SOL     OW58072   5.320   1.290   3.109 -0.4605 -0.2964 -0.3097
19165SOL    HW158073   5.398   1.314   3.058 -0.8133 -0.9251 -1.1655
19165SOL    HW258074   5.291   1.208   3.070 -0.6818 -0.8544  0.9908
19166SOL     OW58075   8.289   8.513   5.172 -0.5119 -0.5675  0.1513
19166SOL    HW158076   8.341   8.461   5.233 -0.0872  0.9225  1.1210
19166SOL    HW258077   8.353   8.549   5.110 -0.6460 -0.3573  0.1308
19167SOL     OW58078   6.700   2.037   2.031 -0.9746 -0.0653  0.1594
19167SOL    HW158079   6.651   2.120   2.034 -1.9686 -0.5972 -0.5485
19167SOL    HW258080   6.637   1.971   2.062 -0.8795 -0.8289 -1.1842
19168SOL     OW58081   7.522   4.363   5.663 -0.6727 -0.0078  0.4539
19168SOL    HW158082   7.540   4.270   5.677 -0.3960  0.0338  0.3985
19168SOL    HW258083   7.466   4.388   5.736  0.2491  0.0623  1.1545
19169SOL     OW58084   0.934   9.397   9.619  0.4424  0.4459  0.1905
19169SOL    HW158085   0.936   9.304   9.645  0.5551  0.2855 -0.3894
19169SOL    HW258086   0.967   9.398   9.530  0.7444  1.0906  0.3044
19170SOL     OW58087   3.221   0.546   3.769 -0.3472 -0.2653  0.2029
19170SOL    HW158088   3.182   0.485   3.706 -3.2238  0.6131  1.0096
19170SOL    HW258089   3.177   0.629   3.753  1.8577  1.0715  0.6609
19171SOL     OW58090   7.287   0.366   0.423 -0.2974 -0.1015  0.6810
19171SOL    HW158091   7.313   0.359   0.515 -1.7601 -3.6729  0.9860
19171SOL    HW258092   7.353   0.318   0.375  0.1049  1.2001 -0.1264
19172SOL     OW58093   5.708   9.547   2.144  0.2323 -0.1092 -0.3964
19172SOL    HW158094   5.704   9.497   2.063  1.3178 -1.3394  0.2772
19172SOL    HW258095   5.645   9.505   2.202  1.1080 -0.6955  0.1554
19173SOL     OW58096   3.787   8.101   1.216  0.4558  0.1787 -0.1080
19173SOL    HW158097   3.866   8.097   1.162 -0.3861  0.9172 -1.4285
19173SOL    HW258098   3.814   8.149   1.294  1.7236 -1.0249  0.2280
19174SOL     OW58099   3.363   3.111   4.540 -0.3340 -0.1849 -0.3405
19174SOL    HW158100   3.381   3.031   4.492 -3.2132 -1.2491  0.1230
19174SOL    HW258101   3.334   3.082   4.626 -3.7829  1.0457 -0.9021
19175SOL     OW58102   5.604   0.902   1.201  0.0751  0.0782  0.0062
19175SOL    HW158103   5.520   0.893   1.247 -1.3748  0.0991 -2.4709
19175SOL    HW258104   5.642   0.814   1.204  0.9550  0.4589  2.7515
19176SOL     OW58105   1.634   4.480   1.739 -0.1581  0.1787 -0.0920
19176SOL    HW158106   1.653   4.498   1.831 -0.6755  0.4956 -0.0407
19176SOL    HW258107   1.713   4.438   1.706  0.5882  1.3634  0.1351
19177SOL     OW58108   2.051   2.684   0.281 -0.1659  0.3067  0.0779
19177SOL    HW158109   1.973   2.629   0.274  0.6436 -0.8304 -0.5471
19177SOL    HW258110   2.042   2.729   0.365 -1.2523 -0.1816  0.2374
19178SOL     OW58111   9.669   6.038   5.640  0.0250  0.0679 -0.6397
19178SOL    HW158112   9.610   6.066   5.570  0.5540 -0.4733 -1.3301
19178SOL    HW258113   9.631   6.073   5.720 -1.7889 -1.0911 -0.9219
19179SOL     OW58114   2.072   8.858   1.864 -0.0692 -0.6837 -0.7326
19179SOL    HW158115   2.163   8.856   1.835  0.9758  0.0775  2.2400
19179SOL    HW258116   2.054   8.950   1.881 -0.4139 -1.1244  1.4964
19180SOL     OW58117   4.249   3.118   2.663 -0.3981  0.8593  0.0658
19180SOL    HW158118   4.270   3.165   2.743 -1.3296 -1.9004  2.0574
19180SOL    HW258119   4.325   3.061   2.648 -1.5769 -1.0266  0.9429
19181SOL     OW58120   7.912   6.282   6.525  0.1205 -0.5525  0.6192
19181SOL    HW158121   7.835   6.289   6.581 -1.2029  1.5703 -1.2759
19181SOL    HW258122   7.879   6.296   6.436  2.2622 -2.7350 -0.6553
19182SOL     OW58123   3.119   7.952   8.008  0.4223 -0.4635  0.3134
19182SOL    HW158124   3.149   8.028   8.059 -1.9056  1.3933 -0.8468
19182SOL    HW258125   3.198   7.920   7.964  1.2547  2.6802 -0.8108
19183SOL     OW58126   8.678   2.272   7.257 -0.5826  0.1938 -0.3116
19183SOL    HW158127   8.685   2.242   7.166 -0.3301  1.5191 -0.7526
19183SOL    HW258128   8.708   2.363   7.254  2.0253 -0.5005  1.5666
19184SOL     OW58129   1.565   4.664   6.832 -0.6027  0.3637  0.0872
19184SOL    HW158130   1.556   4.569   6.832 -1.0678  0.3844  1.5538
19184SOL    HW258131   1.658   4.679   6.851 -0.8036  0.1872  1.2910
19185SOL     OW58132   5.623   9.262   5.931 -0.1335  0.0243  0.1225
19185SOL    HW158133   5.583   9.322   5.868  2.1463  0.9149 -0.6085
19185SOL    HW258134   5.697   9.312   5.967  0.4267 -1.5543  1.2517
19186SOL     OW58135   1.365   0.628   7.148 -0.5389 -0.3188 -0.2354
19186SOL    HW158136   1.399   0.559   7.205 -2.5817  0.1495  1.7131
19186SOL    HW258137   1.434   0.694   7.147  0.8452 -1.7054 -0.9519
19187SOL     OW58138   7.293   5.047   8.384  0.5363  0.6215  0.4092
19187SOL    HW158139   7.361   5.073   8.322  0.1515  1.5477  0.3627
19187SOL    HW258140   7.341   5.014   8.460  1.0202  0.5018  0.0622
19188SOL     OW58141   0.017   3.564   1.036 -0.7281 -0.1482 -0.4501
19188SOL    HW158142   0.017   3.608   0.951  0.8903 -0.1651 -0.4835
19188SOL    HW258143  -0.010   3.474   1.016  1.9887 -0.8323 -1.3733
19189SOL     OW58144   0.323   5.543   6.050 -0.3662  0.4717 -0.0890
19189SOL    HW158145   0.353   5.626   6.011  0.5851  1.5386  2.6894
19189SOL    HW258146   0.373   5.535   6.131 -1.6922 -1.9907  0.5859
19190SOL     OW58147   1.417   4.014   7.110 -0.0156  0.2182  0.0485
19190SOL    HW158148   1.448   4.100   7.085  1.1800 -1.0092 -3.1795
19190SOL    HW258149   1.466   3.953   7.055 -1.3529 -2.5078  1.6250
19191SOL     OW58150   3.915   8.653   6.561  0.5912 -0.1035  0.4092
19191SOL    HW158151   4.002   8.668   6.523  0.5603 -1.5711 -0.2960
19191SOL    HW258152   3.889   8.567   6.528 -1.6677  0.8199 -0.3635
19192SOL     OW58153   3.351   0.339   6.941  0.4833  0.7194 -0.1028
19192SOL    HW158154   3.335   0.353   6.848  1.6722  0.4656 -0.3573
19192SOL    HW258155   3.404   0.414   6.968 -1.2072  1.6514  0.7641
19193SOL     OW58156   0.052   7.332   3.564  0.0688  0.2019 -0.0245
19193SOL    HW158157   0.076   7.373   3.481 -0.8112  0.5886 -0.1049
19193SOL    HW258158   0.074   7.240   3.553  0.9133  0.4283 -0.3031
19194SOL     OW58159   8.694   3.700   3.140 -0.0971  0.3836  0.1084
19194SOL    HW158160   8.784   3.681   3.167 -0.7579 -1.9013  0.8927
19194SOL    HW258161   8.703   3.757   3.064  1.9537  2.1095  1.5320
19195SOL     OW58162   6.957   1.878   6.285 -0.3754  0.3877  0.1559
19195SOL    HW158163   7.013   1.810   6.321 -1.0889 -0.6403 -0.6319
19195SOL    HW258164   7.012   1.957   6.285 -0.2712  0.4504  3.2589
19196SOL     OW58165   5.610   9.276   4.200  0.4937 -0.1687  0.0637
19196SOL    HW158166   5.630   9.367   4.222  0.9715 -0.0486 -0.8141
19196SOL    HW258167   5.548   9.248   4.268 -0.6270  1.1848 -0.3449
19197SOL     OW58168   6.935   3.637   7.890  0.3030 -0.2715  0.3145
19197SOL    HW158169   6.877   3.561   7.891  0.4664 -0.4177 -0.7341
19197SOL    HW258170   6.878   3.710   7.866 -0.4832  0.5240  4.0173
19198SOL     OW58171   1.936   8.439   9.005 -0.2386 -0.0669 -0.4563
19198SOL    HW158172   1.890   8.371   8.956 -2.7572  1.3370 -0.2172
19198SOL    HW258173   1.871   8.509   9.015  1.5378  1.4424  1.2324
19199SOL     OW58174   4.267   6.304   3.766 -0.2290 -0.4187  0.4598
19199SOL    HW158175   4.191   6.246   3.762  0.4481 -1.4584  1.8701
19199SOL    HW258176   4.342   6.245   3.762  0.5397  0.6013 -1.1260
19200SOL     OW58177   8.955   8.146   0.474  0.1333  0.7284 -0.1279
19200SOL    HW158178   9.003   8.228   0.484 -0.8733  2.0389 -4.1423
19200SOL    HW258179   9.022   8.082   0.447  0.5321  0.9367  0.3629
19201SOL     OW58180   3.441   1.836   5.826  0.5139  0.5109  0.3145
19201SOL    HW158181   3.388   1.903   5.783  1.2356  0.4118 -0.7629
19201SOL    HW258182   3.403   1.753   5.796  0.3918  0.4345  0.6733
19202SOL     OW58183   9.842   7.306   5.535 -0.2942  0.1085  0.0219
19202SOL    HW158184   9.819   7.230   5.589 -0.6597  0.9155  1.0340
19202SOL    HW258185   9.922   7.340   5.575 -0.0716  0.2052 -0.4968
19203SOL     OW58186   1.087   6.688   0.821  0.0970  0.0995  0.9328
19203SOL    HW158187   1.004   6.641   0.813  0.2683 -0.2217  1.0177
19203SOL    HW258188   1.075   6.766   0.766 -0.4166  0.2811  1.2932
19204SOL     OW58189   2.938   3.789   8.898 -0.4348  0.0572  0.5341
19204SOL    HW158190   2.940   3.874   8.855  1.6394  0.2411  0.9033
19204SOL    HW258191   2.905   3.806   8.986 -0.1515  0.4672  0.5621
19205SOL     OW58192   1.422   0.700   2.584  0.1327 -0.0851  0.0753
19205SOL    HW158193   1.387   0.628   2.637 -0.1016 -1.3042 -1.6563
19205SOL    HW258194   1.350   0.726   2.527  0.5817  0.7188 -0.1429
19206SOL     OW58195   3.354   3.956   8.872 -1.0009 -0.4437  0.2147
19206SOL    HW158196   3.399   3.890   8.925 -1.7680 -0.4034  0.9357
19206SOL    HW258197   3.381   4.040   8.910  0.7982 -0.2417 -1.3452
19207SOL     OW58198   9.945   3.923   7.461  0.0192 -0.0375  0.1681
19207SOL    HW158199   9.908   3.987   7.522  0.1592  0.6040 -0.4078
19207SOL    HW258200   9.882   3.851   7.461  0.8399 -0.8238  2.3380
19208SOL     OW58201   3.936   6.601   5.060  0.2637 -0.3848  0.0122
19208SOL    HW158202   3.894   6.525   5.020  1.3624 -0.0509 -1.8800
19208SOL    HW258203   4.020   6.610   5.015  0.9999  0.8463  1.4966
19209SOL     OW58204   6.176   8.787   0.410 -0.8089 -0.0622 -0.0890
19209SOL    HW158205   6.118   8.713   0.398  1.0006 -1.7103  0.7104
19209SOL    HW258206   6.157   8.819   0.498 -0.4498 -0.6825  0.2212
19210SOL     OW58207   3.619   6.688   4.924 -0.1489 -0.1294 -0.5890
19210SOL    HW158208   3.567   6.755   4.881 -1.9753 -1.1728 -0.1108
19210SOL    HW258209   3.693   6.673   4.865 -0.0841  1.7655 -1.0372
19211SOL     OW58210   8.615   8.268   8.569 -0.2335 -0.3135 -0.3064
19211SOL    HW158211   8.665   8.288   8.490  1.3948  0.1356  0.7917
19211SOL    HW258212   8.532   8.231   8.537 -0.5034  1.7968 -2.2532
19212SOL     OW58213   1.411   1.445   3.129  0.7514  0.1895 -0.3365
19212SOL    HW158214   1.505   1.438   3.114  0.6927 -0.9160 -0.2308
19212SOL    HW258215   1.402   1.463   3.222  0.8896  1.3977 -0.5413
19213SOL     OW58216   4.404   1.565   7.093 -0.2148  0.8549 -0.4435
19213SOL    HW158217   4.334   1.501   7.102 -0.4579  1.2321  0.4619
19213SOL    HW258218   4.400   1.592   7.001  0.0221 -0.5497 -0.8961
19214SOL     OW58219   7.974   4.584   7.177  0.6565 -0.1318 -0.4864
19214SOL    HW158220   8.060   4.603   7.215  0.4367  2.1254 -0.9659
19214SOL    HW258221   7.984   4.603   7.084 -0.3092  0.0681 -0.5600
19215SOL     OW58222   7.905   6.728   8.714  0.2060 -0.0942  0.0741
19215SOL    HW158223   7.878   6.715   8.623 -0.8711 -2.0225  0.6125
19215SOL    HW258224   7.974   6.663   8.728  1.2228  1.0029  0.3292
19216SOL     OW58225   1.453   4.099   0.703  0.0462 -0.0166 -0.1419
19216SOL    HW158226   1.479   4.053   0.783 -2.1729  0.3885  0.8846
19216SOL    HW258227   1.398   4.036   0.656 -2.4411  1.1878  0.9396
19217SOL     OW58228   2.535   7.892   2.683 -0.0037 -0.0217  0.0561
19217SOL    HW158229   2.503   7.932   2.764 -0.6234  0.0141 -0.1976
19217SOL    HW258230   2.620   7.933   2.667 -0.1689  0.4404  0.3454
19218SOL     OW58231   6.525   2.243   5.508  0.4140 -0.4138  0.0997
19218SOL    HW158232   6.579   2.172   5.543  1.0742  0.6714  1.4237
19218SOL    HW258233   6.587   2.314   5.493 -0.5652  0.7253  1.2312
19219SOL     OW58234   4.008   0.613   8.056  0.4479 -0.1250 -0.0431
19219SOL    HW158235   4.032   0.535   8.106  0.4425  0.6986  1.2828
19219SOL    HW258236   4.002   0.582   7.965  4.5838 -0.8249 -0.2715
19220SOL     OW58237   7.737   6.821   7.253 -0.4953 -0.2241 -0.5467
19220SOL    HW158238   7.690   6.879   7.313  0.5734  1.4734 -1.2718
19220SOL    HW258239   7.820   6.865   7.237  0.6836 -2.3225 -0.6087
19221SOL     OW58240   6.363   9.432   3.374  0.4845 -0.3548  0.0178
19221SOL    HW158241   6.317   9.426   3.290  1.3257  0.1345 -0.4975
19221SOL    HW258242   6.296   9.415   3.440 -0.8131  1.8197 -0.6306
19222SOL     OW58243   3.375   5.672   6.005 -0.1663 -0.4263  0.6767
19222SOL    HW158244   3.327   5.590   6.009  1.0113 -1.2093 -0.5039
19222SOL    HW258245   3.461   5.648   5.971  0.8162  1.0419  1.9609
19223SOL     OW58246   5.634   1.909   0.213  0.0756  0.3180 -1.0158
19223SOL    HW158247   5.719   1.893   0.255 -0.4554  0.1322  0.0112
19223SOL    HW258248   5.591   1.824   0.210 -0.8481  0.7143  0.2229
19224SOL     OW58249   2.802   9.661   1.412  0.4184 -0.2226  0.3157
19224SOL    HW158250   2.869   9.674   1.344  0.2503  0.8236  0.3251
19224SOL    HW258251   2.737   9.729   1.394  0.2260 -0.1216  1.3386
19225SOL     OW58252   6.161   5.894   3.297 -0.2917 -0.4562 -0.7209
19225SOL    HW158253   6.180   5.925   3.385 -1.5932 -0.4667 -0.4163
19225SOL    HW258254   6.239   5.844   3.272  0.4693  0.2989  0.0565
19226SOL     OW58255   7.600   7.657   6.909  0.2378 -0.4415 -0.0681
19226SOL    HW158256   7.634   7.742   6.936 -2.1073 -0.0868  2.2831
19226SOL    HW258257   7.597   7.605   6.990 -1.3713 -1.6054 -0.7982
19227SOL     OW58258   0.118   5.626   3.867 -0.7975 -0.0050  0.2101
19227SOL    HW158259   0.106   5.584   3.952 -1.7684  1.1255  0.6615
19227SOL    HW258260   0.064   5.705   3.871  0.0613  0.6859 -1.0316
19228SOL     OW58261   2.212   6.492   0.183  0.5666  0.3279  0.2565
19228SOL    HW158262   2.239   6.443   0.261  1.1602  0.1576 -0.0453
19228SOL    HW258263   2.196   6.424   0.117 -1.0146  0.4008  0.5375
19229SOL     OW58264   7.344   7.381   1.497 -0.0065  0.4821  0.7327
19229SOL    HW158265   7.285   7.368   1.422 -0.7901  1.9355  1.0528
19229SOL    HW258266   7.290   7.363   1.574  0.3785  0.4376  0.9942
19230SOL     OW58267   8.721   7.580   7.240  0.5671 -0.4705  0.0739
19230SOL    HW158268   8.630   7.593   7.217  0.6731  0.3531  0.0720
19230SOL    HW258269   8.770   7.610   7.164  0.8406 -0.7481  0.1381
19231SOL     OW58270   8.469   9.613   7.055 -0.6727  0.1515  0.3163
19231SOL    HW158271   8.528   9.681   7.020  1.8691 -1.1231  1.8560
19231SOL    HW258272   8.384   9.656   7.060  0.9269  3.5003  1.8155
19232SOL     OW58273   6.841   1.549   4.037 -0.0082  0.4378  0.1669
19232SOL    HW158274   6.885   1.588   3.961 -0.2443  1.7473  0.6711
19232SOL    HW258275   6.838   1.456   4.018  0.6972  0.6426 -1.0458
19233SOL     OW58276   9.943   7.083   3.846  0.4633 -0.3732  0.2255
19233SOL    HW158277   9.973   7.040   3.926 -1.0480 -1.3685  0.3042
19233SOL    HW258278   9.856   7.047   3.831 -0.1256  1.3383 -0.7373
19234SOL     OW58279   6.092   6.847   3.681 -0.6005  0.3096  0.0477
19234SOL    HW158280   6.187   6.834   3.678 -0.5440 -0.0514  1.8528
19234SOL    HW258281   6.056   6.761   3.702 -1.0257  0.9622  2.3816
19235SOL     OW58282   2.264   6.943   4.480 -0.3684 -0.1484 -0.2926
19235SOL    HW158283   2.225   6.875   4.426  0.7497 -0.1025 -1.2047
19235SOL    HW258284   2.287   6.899   4.562  0.8211 -1.0223 -1.0664
19236SOL     OW58285   7.871   4.565   9.922 -0.5736  0.4178 -0.2089
19236SOL    HW158286   7.855   4.475   9.952  0.2209  0.6581  1.0179
19236SOL    HW258287   7.790   4.611   9.944 -1.3643 -0.1744 -1.7224
19237SOL     OW58288   6.685   3.736   1.476  0.3042  0.1592 -1.0325
19237SOL    HW158289   6.610   3.770   1.427 -0.6248  0.4751  0.5415
19237SOL    HW258290   6.748   3.711   1.409 -1.5513 -0.9606 -2.4575
19238SOL     OW58291   2.423   2.941   9.669 -0.3039 -0.7532  0.7325
19238SOL    HW158292   2.328   2.956   9.667 -0.2805 -0.6472  0.4793
19238SOL    HW258293   2.451   2.977   9.753  0.2430  3.4556 -1.0062
19239SOL     OW58294   2.035   6.109   2.900  0.4894  0.5507  0.3892
19239SOL    HW158295   1.945   6.080   2.890  1.3921 -1.5498 -3.7611
19239SOL    HW258296   2.041   6.189   2.848  0.3841  2.8321  3.5778
19240SOL     OW58297   8.347   8.457   6.884 -0.0056 -0.5249  0.0834
19240SOL    HW158298   8.276   8.428   6.941 -0.1475  2.8189  1.8828
19240SOL    HW258299   8.303   8.485   6.804 -0.8389  1.4703  1.1606
19241SOL     OW58300   8.832   2.015   4.613 -0.1547 -0.0280 -0.8014
19241SOL    HW158301   8.798   2.092   4.567  1.4550  1.4270  0.3431
19241SOL    HW258302   8.906   1.986   4.559 -1.3763 -1.4547 -1.7781
19242SOL     OW58303   9.002   4.342   4.738 -0.2049 -0.0048 -0.3956
19242SOL    HW158304   8.921   4.368   4.783 -0.7352 -0.7361 -0.9063
19242SOL    HW258305   8.995   4.247   4.729  0.4510 -0.0076 -0.9644
19243SOL     OW58306   6.502   3.193   5.880 -0.2044  0.3515 -0.5101
19243SOL    HW158307   6.542   3.244   5.810 -0.5408  0.5062 -0.5953
19243SOL    HW258308   6.564   3.198   5.953  0.1669  0.1513 -0.8103
19244SOL     OW58309   6.338   0.268   1.962  0.1763  0.0639 -0.0339
19244SOL    HW158310   6.405   0.326   1.924  1.5730 -1.2474  0.3165
19244SOL    HW258311   6.307   0.216   1.888  0.6402 -0.3531  0.0610
19245SOL     OW58312   0.062   6.992   1.416 -0.0875  0.0888 -0.7242
19245SOL    HW158313   0.152   7.004   1.388 -0.3535  1.0833 -1.2002
19245SOL    HW258314   0.058   7.028   1.504  0.0618 -0.3350 -0.5378
19246SOL     OW58315   0.064   6.974   5.874  0.6189  0.1741  0.0801
19246SOL    HW158316   0.008   6.900   5.899 -0.3184  1.4707  2.1108
19246SOL    HW258317   0.007   7.050   5.883  2.1043  1.3334  0.0141
19247SOL     OW58318   1.975   7.650   4.393 -0.2997  0.3235 -0.3136
19247SOL    HW158319   2.028   7.724   4.425  0.8718 -1.0251  1.0263
19247SOL    HW258320   2.015   7.628   4.309 -0.0422  0.6059 -0.2715
19248SOL     OW58321   2.095   5.055   8.527 -0.7083 -0.2008  0.5817
19248SOL    HW158322   2.098   4.982   8.464 -0.1733  0.8970 -0.7159
19248SOL    HW258323   2.030   5.114   8.490 -0.7488  0.2312  1.3425
19249SOL     OW58324   2.304   6.301   1.178 -0.2036 -0.1810 -0.5000
19249SOL    HW158325   2.254   6.362   1.232 -0.4243 -0.2880 -0.5816
19249SOL    HW258326   2.387   6.346   1.160 -0.4127  0.1393 -0.6547
19250SOL     OW58327   2.897   5.857   3.586 -0.0450  0.2911 -0.2025
19250SOL    HW158328   2.953   5.904   3.648 -0.4133 -0.7736  0.9753
19250SOL    HW258329   2.915   5.898   3.501  0.8467  1.4436  0.5206
19251SOL     OW58330   7.752   9.857   1.335 -0.0781  0.4425 -0.5872
19251SOL    HW158331   7.818   9.799   1.370 -1.0536 -0.1638  0.3186
19251SOL    HW258332   7.729   9.915   1.408 -0.7616  0.4381 -0.7870
19252SOL     OW58333   4.385   1.408   0.804  0.1852  0.1063  0.3053
19252SOL    HW158334   4.445   1.479   0.829 -0.1621  0.4900  0.0745
19252SOL    HW258335   4.307   1.422   0.858  0.0740 -0.0383  0.1830
19253SOL     OW58336   6.248   3.607   7.448  0.7079  0.2366 -0.4431
19253SOL    HW158337   6.282   3.595   7.537 -0.9451 -1.8970 -0.0367
19253SOL    HW258338   6.201   3.690   7.452  0.3094 -0.0307  0.7966
19254SOL     OW58339   6.426   2.136   9.681 -0.5504 -0.0160 -0.1226
19254SOL    HW158340   6.339   2.095   9.686  0.0663 -1.1852  1.8882
19254SOL    HW258341   6.465   2.122   9.767  1.2408  1.4479 -0.6228
19255SOL     OW58342   9.245   8.380   9.573  0.1296 -0.3671  0.4711
19255SOL    HW158343   9.279   8.411   9.489 -3.2709 -1.2242 -1.3951
19255SOL    HW258344   9.278   8.291   9.581  1.3678  0.0846  0.6600
19256SOL     OW58345   6.313   9.144   7.356  0.0803 -0.5171  0.1403
19256SOL    HW158346   6.403   9.178   7.356  0.2839 -1.0330  0.9325
19256SOL    HW258347   6.292   9.132   7.448 -0.4739 -1.2629 -0.0790
19257SOL     OW58348   1.121   4.044   9.146 -0.2301  0.2494  0.0862
19257SOL    HW158349   1.087   4.004   9.226 -0.3031  1.0588  0.4701
19257SOL    HW258350   1.049   4.036   9.083  0.2352 -1.4581 -0.2977
19258SOL     OW58351   1.558   3.483   1.660  0.1861 -0.1360 -0.0600
19258SOL    HW158352   1.467   3.462   1.639  0.9287 -2.7388 -1.0707
19258SOL    HW258353   1.552   3.547   1.732 -2.4424 -1.4109  0.9815
19259SOL     OW58354   9.710   8.291   0.170 -0.4484  0.5327 -0.1407
19259SOL    HW158355   9.663   8.350   0.111 -0.1308  1.5925  0.6328
19259SOL    HW258356   9.683   8.320   0.258 -0.4625 -0.6372  0.2475
19260SOL     OW58357   4.291   1.013   4.964 -0.2278 -0.0007 -0.2980
19260SOL    HW158358   4.293   1.078   5.034  0.5791 -1.4868  1.1327
19260SOL    HW258359   4.333   1.056   4.890 -2.3780  2.1190 -0.4068
19261SOL     OW58360   5.644   0.697   0.701 -0.5308 -0.2749  0.0443
19261SOL    HW158361   5.643   0.742   0.616 -0.3757 -0.3920 -0.0214
19261SOL    HW258362   5.565   0.643   0.701 -0.0244 -1.0580 -0.4593
19262SOL     OW58363   0.851   0.792   2.584 -0.5492 -0.0512  0.6348
19262SOL    HW158364   0.928   0.751   2.544 -0.9589 -0.8324  0.6184
19262SOL    HW258365   0.791   0.807   2.511  0.8923  3.8260  0.0099
19263SOL     OW58366   6.806   5.953   5.375  0.1116  0.5523  0.6512
19263SOL    HW158367   6.835   5.867   5.404 -0.5315 -0.4389 -1.4133
19263SOL    HW258368   6.874   6.013   5.406  1.6483 -0.9865  0.4319
19264SOL     OW58369   4.212   2.386   8.533  0.2072 -0.9384  0.2947
19264SOL    HW158370   4.270   2.400   8.607  0.9982 -0.9507 -0.3183
19264SOL    HW258371   4.212   2.469   8.486  0.9476 -1.4165 -0.5612
19265SOL     OW58372   8.997   8.982   5.116  0.7928  0.5672 -0.0869
19265SOL    HW158373   9.046   8.996   5.035  1.2123  1.4128  0.2976
19265SOL    HW258374   8.948   9.063   5.129  0.1574  0.1581  0.1262
19266SOL     OW58375   0.123   9.768   3.773  0.2186 -0.4048  0.1696
19266SOL    HW158376   0.144   9.777   3.866  1.2443 -3.0960  0.2860
19266SOL    HW258377   0.147   9.852   3.735  1.9785 -0.0050  1.9745
19267SOL     OW58378   3.992   6.610   2.778  0.1169 -0.3673  0.1183
19267SOL    HW158379   4.055   6.539   2.782 -1.2238 -1.5716  1.0425
19267SOL    HW258380   4.002   6.657   2.861  1.8198  1.3428 -0.9649
19268SOL     OW58381   6.986   1.004   2.735 -0.1177  0.2037 -0.6035
19268SOL    HW158382   7.051   1.033   2.799 -0.2019  1.0187 -0.8694
19268SOL    HW258383   6.974   0.911   2.752 -1.8674  0.8143  2.1050
19269SOL     OW58384   0.197   4.978   4.417 -0.2651 -0.0198  0.1309
19269SOL    HW158385   0.214   5.042   4.487 -0.8547  0.1657  0.1044
19269SOL    HW258386   0.218   5.026   4.336  1.4547 -0.5613  0.2080
19270SOL     OW58387   6.342   9.839   2.834  0.0407 -0.0973 -0.2093
19270SOL    HW158388   6.333   9.871   2.924 -0.1883 -2.1764  0.5606
19270SOL    HW258389   6.296   9.904   2.780 -0.7255  0.6395  1.2835
19271SOL     OW58390   4.485   7.867   1.530 -0.0478  0.4062  1.0930
19271SOL    HW158391   4.510   7.958   1.518 -1.1154  0.5879  0.1186
19271SOL    HW258392   4.398   7.871   1.569 -0.5734 -0.1785  0.0195
19272SOL     OW58393   0.070   5.754   7.565  0.0247  0.5473 -0.4511
19272SOL    HW158394   0.018   5.800   7.632  0.9443 -0.4633  1.0200
19272SOL    HW258395   0.011   5.746   7.490 -0.2374  3.9883 -0.7950
19273SOL     OW58396   9.436   9.006   5.938 -0.3873 -0.3318 -0.4583
19273SOL    HW158397   9.390   9.079   5.980  1.1477 -0.3941  1.4665
19273SOL    HW258398   9.488   9.048   5.869  2.4584  0.9537  2.2109
19274SOL     OW58399   9.782   2.940   6.785  0.6731 -0.3215  0.2132
19274SOL    HW158400   9.699   2.902   6.755  0.5675  1.9705 -2.8067
19274SOL    HW258401   9.849   2.887   6.741  0.5882  1.1953 -1.8618
19275SOL     OW58402   8.022   6.438   7.241  0.0219  0.0056  0.1378
19275SOL    HW158403   8.045   6.400   7.325  0.4467 -0.8989 -0.3679
19275SOL    HW258404   8.025   6.532   7.255  1.1959 -0.1221  0.8491
19276SOL     OW58405   1.454   7.034   3.725 -0.4219  0.9956 -0.1506
19276SOL    HW158406   1.392   7.000   3.661  0.4623 -1.8286  0.3601
19276SOL    HW258407   1.420   7.004   3.809  0.9602  0.4561  0.2443
19277SOL     OW58408   9.292   0.139   5.951  0.2100  0.4789  0.5405
19277SOL    HW158409   9.339   0.179   6.024 -0.1274  2.5675 -0.3119
19277SOL    HW258410   9.230   0.206   5.922  0.1587 -0.3582 -1.5144
19278SOL     OW58411   0.451   7.702   4.934 -0.7645  0.3207  0.1266
19278SOL    HW158412   0.374   7.745   4.971 -1.6510 -1.2342  0.2125
19278SOL    HW258413   0.525   7.749   4.972 -1.5140  4.1191 -2.6098
19279SOL     OW58414   1.210   0.301   6.992 -0.2617 -0.3612  0.1344
19279SOL    HW158415   1.124   0.272   7.021  0.0920 -1.3653  0.2206
19279SOL    HW258416   1.226   0.255   6.910 -0.6436  1.3747 -0.9736
19280SOL     OW58417   3.084   2.428   3.461  1.1476  0.0535 -0.0485
19280SOL    HW158418   3.109   2.502   3.406  1.0578  0.2491  0.1721
19280SOL    HW258419   3.084   2.353   3.402 -0.1521  0.4507 -0.6025
19281SOL     OW58420   6.527   3.787   2.215 -0.5672  0.1508 -0.0957
19281SOL    HW158421   6.530   3.744   2.301  1.4901  0.0991 -0.1502
19281SOL    HW258422   6.437   3.820   2.208 -0.3969  1.5195  2.7565
19282SOL     OW58423   7.219   9.988   5.637 -0.0088 -0.0213 -0.1672
19282SOL    HW158424   7.223   9.976   5.732  1.5121 -1.9278 -0.4079
19282SOL    HW258425   7.134   9.953   5.611  0.6710 -2.0553  0.2230
19283SOL     OW58426   9.586   2.448   9.672 -0.0066 -0.0822 -0.1819
19283SOL    HW158427   9.522   2.408   9.614  0.4208  0.2691 -0.9121
19283SOL    HW258428   9.558   2.540   9.679  0.7108  0.2074 -0.9456
19284SOL     OW58429   4.101   3.596   0.911  0.2676  0.6269 -0.3440
19284SOL    HW158430   4.035   3.631   0.970  0.7486 -0.2417  0.7463
19284SOL    HW258431   4.051   3.560   0.838 -0.3889  1.0777 -0.1200
19285SOL     OW58432   3.988   6.860   5.512 -0.0378  0.0354  0.6604
19285SOL    HW158433   4.052   6.925   5.482  0.1988 -0.1908  0.6701
19285SOL    HW258434   4.038   6.779   5.519  0.0976  0.2323  2.4089
19286SOL     OW58435   1.536   4.021   7.480 -0.3480 -0.0203 -0.1173
19286SOL    HW158436   1.578   4.007   7.565  2.0127  0.5615 -1.1006
19286SOL    HW258437   1.553   3.940   7.432 -0.0293  0.3590 -0.6499
19287SOL     OW58438   2.284   1.437   3.163  0.0923  0.4984  0.5811
19287SOL    HW158439   2.335   1.486   3.227 -0.4140  0.1540  1.2685
19287SOL    HW258440   2.208   1.492   3.145  0.5208  0.8526 -0.1715
19288SOL     OW58441   7.487   0.270   9.573  0.6101  0.0687  0.8028
19288SOL    HW158442   7.467   0.329   9.501  0.9036 -1.9809 -1.0697
19288SOL    HW258443   7.467   0.320   9.652 -3.1361  1.2857 -0.6961
19289SOL     OW58444   0.654   3.026   3.993 -0.2358 -0.0894 -0.5005
19289SOL    HW158445   0.673   2.989   4.079  0.1094  1.3439  0.0667
19289SOL    HW258446   0.561   3.046   3.995  0.3684  3.1879  0.9258
19290SOL     OW58447   9.879   2.065   3.906 -0.3500 -0.4244  0.5018
19290SOL    HW158448   9.969   2.039   3.923 -0.6439 -0.7368  1.6841
19290SOL    HW258449   9.830   2.035   3.983 -1.6155 -1.0154 -0.4848
19291SOL     OW58450   6.348   2.159   5.187  0.6204  0.0390 -1.0359
19291SOL    HW158451   6.383   2.248   5.186  0.6680  0.0533  0.2280
19291SOL    HW258452   6.422   2.104   5.211  0.2961 -0.1780 -0.5036
19292SOL     OW58453   4.823   8.345   6.104  0.1312  0.5588 -0.4013
19292SOL    HW158454   4.906   8.392   6.110  0.6079  0.0706 -2.4373
19292SOL    HW258455   4.829   8.276   6.170  1.9746 -0.3333 -1.4298
19293SOL     OW58456   4.887   5.580   4.925  0.3538 -0.2484 -0.0850
19293SOL    HW158457   4.940   5.622   4.857 -0.1064 -0.8952 -0.8569
19293SOL    HW258458   4.946   5.575   5.000  1.2114 -0.4307 -0.7433
19294SOL     OW58459   3.111   6.930   5.830  0.0211 -0.7804 -0.0741
19294SOL    HW158460   3.049   6.935   5.902 -1.1172  0.3688 -1.0592
19294SOL    HW258461   3.148   7.018   5.824 -0.6403 -0.5547 -1.4628
19295SOL     OW58462   3.315   0.656   9.883  0.0418 -0.1817 -0.1732
19295SOL    HW158463   3.236   0.616   9.918  0.4189  0.3498  1.3785
19295SOL    HW258464   3.381   0.644   9.952  1.1679 -0.1695 -1.2222
19296SOL     OW58465   0.105   4.379   0.878  0.3795 -0.1281  0.2979
19296SOL    HW158466   0.089   4.377   0.973 -1.5699 -1.0910 -0.0043
19296SOL    HW258467   0.199   4.365   0.870  0.3585 -1.7619  2.0541
19297SOL     OW58468   3.965   8.391   9.199 -0.1850  0.0561 -0.5722
19297SOL    HW158469   3.910   8.458   9.159 -1.0962  0.6313  1.5276
19297SOL    HW258470   3.923   8.371   9.282  0.5086 -2.5774 -0.7504
19298SOL     OW58471   4.249   4.160   3.523  0.0284  0.1661 -0.3781
19298SOL    HW158472   4.176   4.099   3.517 -0.3804  0.7176 -1.3961
19298SOL    HW258473   4.302   4.140   3.446  1.6763 -1.0893  1.0164
19299SOL     OW58474   3.719   6.798   7.702 -0.8621 -1.0910  0.0625
19299SOL    HW158475   3.708   6.719   7.756  0.2490 -1.6821 -0.5461
19299SOL    HW258476   3.667   6.780   7.623 -0.9439 -1.0270  0.1009
19300SOL     OW58477   9.460   7.598   9.432  0.4600 -0.2689 -0.2249
19300SOL    HW158478   9.421   7.597   9.345 -0.7839 -0.6493  0.3164
19300SOL    HW258479   9.410   7.665   9.479 -1.3044 -2.4600  1.2333
19301SOL     OW58480   8.435   8.471   0.343 -0.2102  0.4116 -0.3067
19301SOL    HW158481   8.523   8.448   0.372 -0.7733 -0.5898  0.6779
19301SOL    HW258482   8.418   8.411   0.270 -1.4400 -2.1100  1.8678
19302SOL     OW58483   5.449   9.187   1.708 -0.8101 -0.0938 -0.5603
19302SOL    HW158484   5.365   9.163   1.746 -0.5984  0.1432  0.0655
19302SOL    HW258485   5.474   9.111   1.655 -0.5849 -0.8843  0.6552
19303SOL     OW58486   2.704   2.389   1.052  0.4342 -0.1728 -0.0239
19303SOL    HW158487   2.764   2.454   1.015  0.8039 -0.7488 -0.4747
19303SOL    HW258488   2.761   2.314   1.072  0.3859  0.3777  2.4588
19304SOL     OW58489   2.696   3.548   9.624 -0.5367  0.2454  0.4140
19304SOL    HW158490   2.635   3.552   9.698 -0.2538 -0.6715  0.7058
19304SOL    HW258491   2.641   3.526   9.549 -0.8992  1.6475  0.2454
19305SOL     OW58492   3.344   3.533   4.941 -0.2234 -0.1315 -0.0372
19305SOL    HW158493   3.339   3.628   4.939  1.6628  0.0057  0.0089
19305SOL    HW258494   3.314   3.505   4.855 -1.4391  0.4466  0.1792
19306SOL     OW58495   2.190   2.082   6.276 -0.0604  0.9001  0.3850
19306SOL    HW158496   2.236   2.085   6.360  0.2109 -0.5692  0.3113
19306SOL    HW258497   2.120   2.017   6.288  1.4203 -1.1213 -1.1720
19307SOL     OW58498   9.606   4.212   5.196 -0.4497 -0.4800 -0.2699
19307SOL    HW158499   9.657   4.290   5.217  1.3663 -1.2833 -1.4524
19307SOL    HW258500   9.606   4.209   5.101 -0.3012 -2.0479 -0.2341
19308SOL     OW58501   0.825   1.026   2.363  0.3995  0.0894 -0.2856
19308SOL    HW158502   0.777   0.943   2.364 -0.6540  0.6801  0.8710
19308SOL    HW258503   0.879   1.021   2.284 -1.0163 -0.9293 -1.2614
19309SOL     OW58504   5.287   3.661   4.185  0.5083  0.2609  0.1454
19309SOL    HW158505   5.193   3.655   4.203  0.1715 -1.6889 -1.8160
19309SOL    HW258506   5.326   3.590   4.236  0.2431 -1.7724 -2.2553
19310SOL     OW58507   8.044   3.550   0.267 -0.0364 -0.2664 -0.0842
19310SOL    HW158508   7.975   3.611   0.243  0.6360  1.1791  1.3929
19310SOL    HW258509   8.001   3.485   0.322 -0.5273 -0.4038 -0.6200
19311SOL     OW58510   8.550   4.714   7.375 -0.7355  0.2675  0.4161
19311SOL    HW158511   8.561   4.630   7.419  0.0131 -0.7174 -1.5468
19311SOL    HW258512   8.507   4.769   7.440  0.2396 -1.1110  2.3433
19312SOL     OW58513   7.885   7.287   7.930 -0.5868 -0.2163  0.7320
19312SOL    HW158514   7.902   7.241   8.012  0.6781 -0.4191  0.3771
19312SOL    HW258515   7.939   7.241   7.865  1.3478  2.1884  0.5099
19313SOL     OW58516   5.784   1.536   6.145  0.4091 -0.0844  0.3096
19313SOL    HW158517   5.821   1.467   6.200  0.7071 -0.2161 -0.0485
19313SOL    HW258518   5.691   1.515   6.139  0.5995 -0.7930 -0.2765
19314SOL     OW58519   0.954   7.887   9.269  0.0803 -0.0514  0.1383
19314SOL    HW158520   1.009   7.852   9.199  0.1184 -0.6564  0.4608
19314SOL    HW258521   0.865   7.859   9.247 -0.0417  0.5460 -0.1485
19315SOL     OW58522   4.247   2.652   4.749 -0.1963  0.5434  0.0567
19315SOL    HW158523   4.251   2.722   4.815 -2.0890  0.5742  0.1871
19315SOL    HW258524   4.156   2.653   4.719  0.2148 -0.6339 -1.3030
19316SOL     OW58525   0.738   9.472   8.999 -0.1490 -0.4118 -0.1520
19316SOL    HW158526   0.787   9.426   8.931  2.9011  1.6071  0.4659
19316SOL    HW258527   0.672   9.521   8.951  0.7985 -0.3915 -1.5072
19317SOL     OW58528   8.550   9.215   8.964  0.2536 -0.0680  0.6824
19317SOL    HW158529   8.513   9.285   9.017 -0.2245 -0.0852  0.3726
19317SOL    HW258530   8.483   9.147   8.963 -0.0665  0.2462 -0.5700
19318SOL     OW58531   9.775   0.538   7.000  0.0570 -0.1471  0.0239
19318SOL    HW158532   9.681   0.524   6.990  0.0262  0.0933 -0.0430
19318SOL    HW258533   9.816   0.467   6.950 -0.0807 -0.8478  0.8925
19319SOL     OW58534   6.315   0.548   2.617  0.2244  0.3227 -0.1435
19319SOL    HW158535   6.308   0.616   2.549  0.3293 -0.4305 -0.9294
19319SOL    HW258536   6.315   0.466   2.568  0.0936 -0.2473  0.7975
19320SOL     OW58537   6.766   0.057   9.148  0.2778 -0.0535  0.3258
19320SOL    HW158538   6.782   0.149   9.129  1.2264 -0.5289 -1.4907
19320SOL    HW258539   6.680   0.039   9.108  0.6616 -0.2310 -0.4340
19321SOL     OW58540   0.684   9.005   8.730  0.1857  0.4695  0.0101
19321SOL    HW158541   0.677   8.970   8.640  2.9303  0.1047 -0.1349
19321SOL    HW258542   0.726   8.935   8.779 -0.2676  1.1059  1.3384
19322SOL     OW58543   2.365   1.568   8.810 -0.3308  0.2706 -0.2121
19322SOL    HW158544   2.324   1.541   8.892  0.8447  0.5364  0.4757
19322SOL    HW258545   2.353   1.663   8.807  1.2058  0.5173  0.5686
19323SOL     OW58546   8.004   9.820   8.090  0.0107 -0.0622 -0.4026
19323SOL    HW158547   8.071   9.806   8.157 -0.7699 -0.8816  0.2313
19323SOL    HW258548   7.989   9.732   8.053 -0.3479  0.2050 -0.9013
19324SOL     OW58549   0.483   2.567   6.908 -0.0384  0.3030 -0.2938
19324SOL    HW158550   0.456   2.486   6.865  2.2926 -0.4177 -0.5381
19324SOL    HW258551   0.405   2.598   6.954 -0.8779 -2.2945  0.1459
19325SOL     OW58552   4.478   6.365   6.311 -0.3751 -0.7011  0.0643
19325SOL    HW158553   4.506   6.281   6.275  0.9925 -0.3516  0.2766
19325SOL    HW258554   4.555   6.422   6.305 -1.6896  1.0459 -1.5475
19326SOL     OW58555   4.231   1.907   1.727  0.3595 -0.0218  0.2847
19326SOL    HW158556   4.205   1.906   1.635  0.2614  2.6492  0.2286
19326SOL    HW258557   4.208   1.819   1.759 -0.9923 -0.5099 -1.8385
19327SOL     OW58558   2.609   6.688   3.950 -0.1863 -0.5955 -0.2577
19327SOL    HW158559   2.601   6.659   4.041 -0.5881 -0.4981 -0.2623
19327SOL    HW258560   2.696   6.729   3.946  0.4634 -1.9127 -0.2874
19328SOL     OW58561   5.501   2.664   3.924  0.2283 -0.7632  0.0865
19328SOL    HW158562   5.529   2.586   3.876 -1.4100  0.0624 -2.3940
19328SOL    HW258563   5.406   2.657   3.928 -0.0679  1.5830 -1.1822
19329SOL     OW58564   5.093   6.341   2.143  0.5731  0.0609 -0.2365
19329SOL    HW158565   5.099   6.293   2.225  0.1948  0.9040  0.2896
19329SOL    HW258566   5.154   6.295   2.084  1.1983 -0.2614  0.6464
19330SOL     OW58567   3.257   9.444   0.818  0.2876  0.1526  0.3416
19330SOL    HW158568   3.235   9.357   0.784 -0.5863  0.5818 -0.2194
19330SOL    HW258569   3.278   9.428   0.910  0.3690 -0.6840  0.1924
19331SOL     OW58570   8.893   9.767   2.208  0.2689 -0.2987 -0.2526
19331SOL    HW158571   8.968   9.768   2.268  0.3563 -3.1139 -0.1797
19331SOL    HW258572   8.819   9.797   2.262  0.9102  0.3217  0.3091
19332SOL     OW58573   7.088   7.192   2.919  0.0122  0.4872 -0.7973
19332SOL    HW158574   7.149   7.228   2.984  1.0057 -0.1617 -1.3510
19332SOL    HW258575   7.070   7.104   2.951  0.7560  0.0498 -1.5506
19333SOL     OW58576   9.642   6.404   8.056 -0.2629  0.1515 -0.5384
19333SOL    HW158577   9.590   6.475   8.093 -0.8400 -1.4709  2.0108
19333SOL    HW258578   9.725   6.409   8.103 -0.7711 -1.5665  0.6439
19334SOL     OW58579   0.998   9.566   5.874  0.2214  0.1083  0.1344
19334SOL    HW158580   0.916   9.526   5.845  1.4460 -0.4682 -2.8995
19334SOL    HW258581   1.048   9.493   5.911 -0.4477  0.4096  1.7295
19335SOL     OW58582   1.919   4.544   6.464 -0.3677  0.1732  0.1435
19335SOL    HW158583   1.852   4.540   6.396  1.3153  1.2470 -1.6514
19335SOL    HW258584   1.912   4.633   6.499 -0.8664 -0.2051  1.0439
19336SOL     OW58585   0.618   0.906   6.012  0.1600  0.1717 -0.3482
19336SOL    HW158586   0.588   0.997   6.009  1.1675  0.5067 -0.7295
19336SOL    HW258587   0.708   0.911   6.045  0.3707 -0.6504 -0.7603
19337SOL     OW58588   4.519   9.565   4.979 -0.1940 -0.6466 -0.0329
19337SOL    HW158589   4.539   9.475   4.951 -0.5489 -0.5841 -0.4879
19337SOL    HW258590   4.576   9.620   4.926 -0.0936 -0.5905  0.1325
19338SOL     OW58591   3.621   2.468   9.096  0.0836 -0.0549 -0.3940
19338SOL    HW158592   3.681   2.426   9.157  1.9191  0.3307 -1.8412
19338SOL    HW258593   3.591   2.397   9.040  0.0343 -0.0805 -0.3351
19339SOL     OW58594   8.452   4.953   2.736 -0.5778  0.4706 -0.2801
19339SOL    HW158595   8.455   4.909   2.821  0.4724  0.8433 -0.1084
19339SOL    HW258596   8.463   4.882   2.672 -0.2545  0.3197 -0.0587
19340SOL     OW58597   6.697   9.096   4.945  0.3619  0.0465 -0.5165
19340SOL    HW158598   6.700   9.180   4.989  0.8316  0.9114 -2.1338
19340SOL    HW258599   6.750   9.038   5.001 -1.4228  0.2942  1.5611
19341SOL     OW58600   3.479   9.385   9.122  0.0427  0.3583 -0.1964
19341SOL    HW158601   3.514   9.332   9.194  0.7468  2.5944  1.2041
19341SOL    HW258602   3.534   9.463   9.122 -0.0944  0.5323 -3.0685
19342SOL     OW58603   6.725   4.052   4.806  0.1177 -0.2304  0.1816
19342SOL    HW158604   6.652   4.041   4.868 -2.1905  1.8061 -1.9970
19342SOL    HW258605   6.703   3.994   4.733  0.9579  0.0398 -0.2981
19343SOL     OW58606   1.954   1.011   8.963 -0.3526 -0.1470 -0.9042
19343SOL    HW158607   2.041   1.027   8.926 -0.5083 -1.0689 -1.7233
19343SOL    HW258608   1.960   0.923   9.001  0.0282  1.0300  2.0289
19344SOL     OW58609   1.286   9.070   6.041 -0.3863 -0.7133 -0.4311
19344SOL    HW158610   1.267   9.064   6.134  0.2954 -1.4489 -0.3234
19344SOL    HW258611   1.353   9.138   6.034 -0.3764 -0.7171 -0.3737
19345SOL     OW58612   7.852   9.154   6.347 -0.1599  0.2975 -0.0732
19345SOL    HW158613   7.801   9.216   6.400 -0.6409 -1.4163  1.5612
19345SOL    HW258614   7.812   9.069   6.363 -0.8579 -0.2948 -3.8957
19346SOL     OW58615   7.486   0.738   2.095 -0.4034  0.0200 -0.5852
19346SOL    HW158616   7.557   0.698   2.044  0.2741 -0.6510  0.8338
19346SOL    HW258617   7.413   0.743   2.034  0.5238 -0.3099 -1.7613
19347SOL     OW58618   7.279   3.481   1.340 -0.4598 -0.0011  0.0938
19347SOL    HW158619   7.240   3.395   1.321  0.7076 -0.3923 -0.7051
19347SOL    HW258620   7.225   3.518   1.409 -2.8518 -0.0676 -1.6066
19348SOL     OW58621   7.314   8.672   7.274 -0.1921  0.5053 -0.1199
19348SOL    HW158622   7.328   8.735   7.204  1.0820 -0.5254 -0.8165
19348SOL    HW258623   7.400   8.660   7.314 -0.4607 -0.5984  0.1619
19349SOL     OW58624   9.839   9.924   6.174  0.8515  0.3122 -0.1835
19349SOL    HW158625   9.906   9.858   6.156 -0.0136 -0.8375  0.6710
19349SOL    HW258626   9.798   9.940   6.089  2.1700  1.0153 -0.7130
19350SOL     OW58627   4.212   2.819   5.989  0.2045  0.1701  0.7737
19350SOL    HW158628   4.245   2.875   5.920  0.4332 -0.7550  0.1192
19350SOL    HW258629   4.247   2.732   5.969 -0.8768 -0.3948  1.2503
19351SOL     OW58630   4.980   2.426   5.635 -0.3586  0.4863  0.5025
19351SOL    HW158631   4.953   2.487   5.704 -0.3041 -0.0408  1.0047
19351SOL    HW258632   5.023   2.355   5.682  1.6597  1.1481 -0.2637
19352SOL     OW58633   0.535   9.304   2.159  0.3470  0.6041  0.4637
19352SOL    HW158634   0.537   9.218   2.118  1.2686  1.4845 -1.5009
19352SOL    HW258635   0.463   9.300   2.221  0.1623 -1.4615  0.1731
19353SOL     OW58636   5.219   8.414   1.026 -0.0123 -0.3654  0.2418
19353SOL    HW158637   5.139   8.434   1.076  0.2816 -0.2867  0.6869
19353SOL    HW258638   5.212   8.469   0.948 -1.4766 -1.9993 -0.8391
19354SOL     OW58639   1.726   1.717   1.941 -0.1837 -0.1316 -0.0884
19354SOL    HW158640   1.726   1.662   1.863 -2.8062  0.7583 -0.8339
19354SOL    HW258641   1.700   1.803   1.910 -0.2131  0.5190  1.6228
19355SOL     OW58642  -0.014   3.589   1.974  0.2224 -0.0191  0.4908
19355SOL    HW158643   0.053   3.635   2.025  1.3592 -0.3138 -0.6904
19355SOL    HW258644   0.016   3.596   1.883 -0.1003 -2.2255  0.1700
19356SOL     OW58645   5.973   0.323   0.200  0.3419  0.4718 -0.3782
19356SOL    HW158646   5.885   0.296   0.223  0.5391  0.5553  0.5149
19356SOL    HW258647   6.005   0.371   0.277  3.1457 -4.0792  1.7056
19357SOL     OW58648   7.090   7.607   3.254  0.2747  0.4828  0.9927
19357SOL    HW158649   7.097   7.614   3.159  1.2888  2.6010  1.1667
19357SOL    HW258650   6.995   7.608   3.271  0.0966  0.6031  0.0349
19358SOL     OW58651   7.598   4.319   8.031  0.3734 -0.3498 -0.0623
19358SOL    HW158652   7.691   4.312   8.011  0.9921  0.0457  2.3161
19358SOL    HW258653   7.595   4.340   8.125 -2.1576 -2.1216  0.3582
19359SOL     OW58654   1.206   7.551   4.160  0.3723  0.0425 -0.2413
19359SOL    HW158655   1.264   7.581   4.230  0.9220 -1.6705  0.0967
19359SOL    HW258656   1.228   7.458   4.149 -1.1941 -0.2515 -1.2189
19360SOL     OW58657   7.892   0.877   8.416  0.0051  0.2679  0.0299
19360SOL    HW158658   7.973   0.865   8.465 -1.8945  0.7585  3.5779
19360SOL    HW258659   7.865   0.788   8.392  1.7617  0.1386 -1.6575
19361SOL     OW58660   1.442   9.392   9.399 -0.3454 -0.7701  0.1552
19361SOL    HW158661   1.402   9.312   9.364 -0.9076 -0.4450  0.0433
19361SOL    HW258662   1.428   9.387   9.493 -0.9579 -0.4964  0.0841
19362SOL     OW58663   4.855   3.570   0.896  0.1886 -0.0546 -0.3002
19362SOL    HW158664   4.855   3.526   0.811  0.9729 -0.7301  0.0309
19362SOL    HW258665   4.763   3.579   0.919 -0.0368  0.4104 -1.3618
19363SOL     OW58666   5.095   9.173   9.703 -0.6576 -0.0681 -0.3430
19363SOL    HW158667   5.026   9.155   9.641 -0.8762  1.3422 -0.5506
19363SOL    HW258668   5.148   9.093   9.704 -1.7052 -0.7979 -0.9189
19364SOL     OW58669   1.352   4.328   6.140 -0.3297  0.6743 -0.5903
19364SOL    HW158670   1.272   4.380   6.127 -0.4134  1.2654  1.7768
19364SOL    HW258671   1.321   4.246   6.179 -0.1276 -1.0244 -3.7222
19365SOL     OW58672   1.144   7.658   1.139  0.1513  0.3134 -0.1223
19365SOL    HW158673   1.152   7.709   1.219 -0.6379  0.3066 -0.0256
19365SOL    HW258674   1.179   7.714   1.070 -0.6961  0.9991 -0.0139
19366SOL     OW58675   9.003   9.115   6.169  0.4297  0.1811  0.1615
19366SOL    HW158676   8.972   9.078   6.087  1.5623 -1.2861  0.3555
19366SOL    HW258677   8.979   9.208   6.164 -1.0540 -0.2251 -1.0528
19367SOL     OW58678   1.189   5.451   7.776 -0.2882  0.3943  0.2166
19367SOL    HW158679   1.284   5.467   7.776 -0.2456  0.2984 -1.2952
19367SOL    HW258680   1.167   5.441   7.869  1.1038  0.8343  0.6304
19368SOL     OW58681   9.214   5.060   0.104 -0.0178 -0.7266 -0.1248
19368SOL    HW158682   9.125   5.028   0.118 -0.7563  1.7393  1.4237
19368SOL    HW258683   9.262   5.031   0.182 -0.1840  0.2086  0.3340
19369SOL     OW58684   3.174   0.180   5.306  0.3351  0.0174 -0.6302
19369SOL    HW158685   3.143   0.270   5.298  1.1056  0.4014  0.3930
19369SOL    HW258686   3.118   0.141   5.373  0.7138  0.0948 -0.2574
19370SOL     OW58687   8.580   5.391   3.433  0.3634  0.4561  0.3366
19370SOL    HW158688   8.540   5.412   3.517 -0.5524 -0.6296  0.1818
19370SOL    HW258689   8.654   5.452   3.427  0.1676  0.8717  1.7013
19371SOL     OW58690   9.534   4.017   0.429 -0.1576 -0.2712 -0.0672
19371SOL    HW158691   9.484   4.080   0.377  1.1234  0.5014 -0.4233
19371SOL    HW258692   9.511   3.932   0.393  0.1102  0.1978 -1.4086
19372SOL     OW58693   4.936   2.099   3.572  0.1589 -0.2119  0.2393
19372SOL    HW158694   4.847   2.100   3.538  0.7386 -1.4405 -1.4181
19372SOL    HW258695   4.954   2.007   3.592  0.8254  0.1151  1.2381
19373SOL     OW58696   2.283   6.784   2.268  0.6376 -0.1179  0.0829
19373SOL    HW158697   2.268   6.802   2.176  1.8624  0.2719 -0.0578
19373SOL    HW258698   2.205   6.818   2.312  0.3016  0.2197 -0.7557
19374SOL     OW58699   3.686   5.102   5.411 -0.7981  0.6139 -0.3258
19374SOL    HW158700   3.639   5.058   5.341 -1.1097  0.6322 -0.1270
19374SOL    HW258701   3.741   5.166   5.366 -1.1146  0.7341 -0.5441
19375SOL     OW58702   0.904   8.510   1.658 -1.0141 -0.2430 -0.1398
19375SOL    HW158703   0.852   8.590   1.663 -0.1220  0.3119  0.5832
19375SOL    HW258704   0.988   8.538   1.621 -0.6110 -0.8037  0.3359
19376SOL     OW58705   3.709   3.011   2.135 -0.5426 -0.8743  0.6284
19376SOL    HW158706   3.623   2.969   2.130 -1.5870  0.8549  2.7656
19376SOL    HW258707   3.718   3.038   2.226  0.9757  1.5747 -0.1435
19377SOL     OW58708   1.925   8.160   6.462  0.6895  0.4335  0.6903
19377SOL    HW158709   1.964   8.240   6.497  3.0882 -1.0710  1.6780
19377SOL    HW258710   1.993   8.094   6.471 -1.0547 -1.6575 -0.4997
19378SOL     OW58711   0.749   2.124   5.826  0.4871  0.0754  0.0745
19378SOL    HW158712   0.798   2.151   5.748  1.9795 -1.5768  0.3700
19378SOL    HW258713   0.815   2.089   5.885 -1.0572 -3.2812  0.0811
19379SOL     OW58714   0.036   1.949   9.843 -0.0015  0.5868  0.2483
19379SOL    HW158715   0.015   2.018   9.779  1.4950  3.3790  2.5363
19379SOL    HW258716   0.129   1.934   9.831 -0.1921 -0.6259  0.2181
19380SOL     OW58717   4.791   5.054   9.705  0.7619  0.2470  0.0847
19380SOL    HW158718   4.827   5.043   9.617  0.1390  1.1447 -0.3031
19380SOL    HW258719   4.803   5.147   9.724  0.1888  0.2208  0.6254
19381SOL     OW58720   9.420   5.187   9.955  0.5064 -0.6570 -0.4796
19381SOL    HW158721   9.375   5.226   9.880  0.5143 -1.1890 -0.7634
19381SOL    HW258722   9.352   5.136   9.999  0.1373  0.7574  0.6882
19382SOL     OW58723   2.312   9.598   2.332  0.2180  0.5430  0.0528
19382SOL    HW158724   2.295   9.535   2.262 -1.4418 -0.1894  1.0704
19382SOL    HW258725   2.401   9.630   2.314  0.4281 -0.7847 -1.4815
19383SOL     OW58726   1.794   2.431   1.233  0.3077 -0.5254  0.1387
19383SOL    HW158727   1.850   2.497   1.193 -1.2939  0.1331 -1.1416
19383SOL    HW258728   1.757   2.474   1.311  0.9920 -0.7203  0.5830
19384SOL     OW58729   4.058   7.496   4.540  0.0026  0.4582 -0.0035
19384SOL    HW158730   4.038   7.537   4.624  2.7033  1.1650  0.4083
19384SOL    HW258731   4.099   7.566   4.489  1.0297 -0.6941 -0.8002
19385SOL     OW58732   6.588   5.708   1.789 -0.3416  0.2342 -0.0157
19385SOL    HW158733   6.523   5.775   1.768  0.2990  0.9993  0.4034
19385SOL    HW258734   6.658   5.723   1.726  0.2120  0.5483  0.6722
19386SOL     OW58735   6.846   3.264   8.897 -0.1582 -0.1512  0.0389
19386SOL    HW158736   6.843   3.175   8.933 -0.1243 -0.2919 -0.3054
19386SOL    HW258737   6.903   3.257   8.821  0.4721  0.3268  0.4548
19387SOL     OW58738   9.960   0.616   0.484 -0.2145  0.1634  0.3563
19387SOL    HW158739  10.035   0.590   0.537 -0.6014  0.7390  1.2099
19387SOL    HW258740   9.890   0.557   0.512  0.1797 -1.1499 -1.2571
19388SOL     OW58741   8.534   7.648   2.513  0.1526  0.0070  0.8745
19388SOL    HW158742   8.464   7.586   2.496  0.9992 -1.2611  1.7656
19388SOL    HW258743   8.602   7.627   2.449 -0.1342  1.0081  0.2250
19389SOL     OW58744   0.453   1.660   6.217 -0.1833 -0.1786 -0.3127
19389SOL    HW158745   0.485   1.621   6.299  0.5054 -2.5030 -1.5843
19389SOL    HW258746   0.398   1.592   6.179 -2.0979  1.6093 -0.9141
19390SOL     OW58747   8.623   7.734   2.763  0.0425 -0.2761  0.2620
19390SOL    HW158748   8.581   7.712   2.679 -0.0966 -0.0585  0.2749
19390SOL    HW258749   8.550   7.756   2.821  0.0895 -1.0475  0.6290
19391SOL     OW58750   9.084   4.837   2.095  0.9463  0.7479  0.8195
19391SOL    HW158751   9.105   4.761   2.040  1.8658  0.0053  2.1561
19391SOL    HW258752   9.154   4.900   2.078 -0.2443  1.6908 -0.9035
19392SOL     OW58753   8.090   9.061   3.057  0.1295 -0.0462 -0.3752
19392SOL    HW158754   8.058   9.149   3.077 -0.2054 -0.5028  1.1964
19392SOL    HW258755   8.178   9.076   3.022 -0.8837  1.0638 -2.6502
19393SOL     OW58756   5.372   0.840   8.093 -0.2302  0.8689 -0.0899
19393SOL    HW158757   5.367   0.787   8.014 -0.1133  0.7236  0.0007
19393SOL    HW258758   5.341   0.927   8.066 -1.8057  0.4002  0.0800
19394SOL     OW58759   5.487   3.869   5.158  0.3315 -0.7750  0.3331
19394SOL    HW158760   5.566   3.894   5.206  0.6453 -3.6931  1.5734
19394SOL    HW258761   5.417   3.917   5.202  1.3700  2.3356 -1.1766
19395SOL     OW58762   2.914   8.094   6.413  0.1206  0.5003  0.2722
19395SOL    HW158763   2.915   8.115   6.506  0.4804 -1.3593  0.7266
19395SOL    HW258764   2.884   8.174   6.371 -3.1595  0.4663  2.2224
19396SOL     OW58765   9.205   7.309   3.174 -0.4885  0.1882  0.4487
19396SOL    HW158766   9.275   7.292   3.236 -0.8213  0.0419  0.7853
19396SOL    HW258767   9.153   7.229   3.174  0.6135 -0.6136 -1.4977
19397SOL     OW58768   4.207   3.626   9.391  0.4178 -0.1177 -0.2709
19397SOL    HW158769   4.214   3.580   9.474  1.8737 -0.0211 -0.3046
19397SOL    HW258770   4.180   3.559   9.328 -0.0717 -0.3302  0.1644
19398SOL     OW58771   5.665   6.660   2.811 -0.1425  0.0998 -0.7579
19398SOL    HW158772   5.700   6.740   2.774 -0.7690 -0.1268 -1.9104
19398SOL    HW258773   5.679   6.668   2.905  0.1355  1.3861 -0.8934
19399SOL     OW58774   2.289   4.874   5.880  0.1545  0.1290  0.0013
19399SOL    HW158775   2.380   4.888   5.906 -0.1532  2.0773  0.2400
19399SOL    HW258776   2.240   4.941   5.929 -1.2925 -0.3423 -0.7362
19400SOL     OW58777   5.698   4.128   6.067 -0.1501  0.0301 -0.9980
19400SOL    HW158778   5.614   4.173   6.065 -0.4447 -0.4932 -0.5916
19400SOL    HW258779   5.756   4.182   6.013 -0.3633  1.1543 -0.1541
19401SOL     OW58780   4.964   1.537   2.008 -0.4587  0.1540 -0.1801
19401SOL    HW158781   4.902   1.578   2.068  0.6558  0.8712  0.5138
19401SOL    HW258782   5.050   1.561   2.042  0.2365 -1.7551 -0.4647
19402SOL     OW58783   4.497   3.261   9.622 -0.4101  0.0565  0.5129
19402SOL    HW158784   4.469   3.234   9.710 -0.2147  1.9408  1.1829
19402SOL    HW258785   4.589   3.234   9.617 -1.3479 -3.4563 -0.5899
19403SOL     OW58786   7.862   3.454   8.071  0.8114  0.0573 -0.1098
19403SOL    HW158787   7.933   3.417   8.123 -0.2501 -1.3294  0.4315
19403SOL    HW258788   7.825   3.379   8.025 -0.6620  0.6323  0.0779
19404SOL     OW58789   7.470   2.057   0.681 -0.2770 -0.1349 -0.2178
19404SOL    HW158790   7.535   2.062   0.750 -2.0268 -0.7510  1.5565
19404SOL    HW258791   7.513   2.009   0.610  0.7430 -1.7899  1.4497
19405SOL     OW58792   5.998   1.135   5.178 -0.5343  0.7177  0.2041
19405SOL    HW158793   5.948   1.216   5.181 -0.8311  0.6963 -2.2138
19405SOL    HW258794   5.931   1.066   5.171 -0.2384  0.5154 -0.7686
19406SOL     OW58795   4.923   1.356   8.789 -0.0021 -0.5792 -0.5690
19406SOL    HW158796   4.892   1.356   8.699  0.2105 -0.2798 -0.6435
19406SOL    HW258797   5.003   1.304   8.788 -0.1002 -0.7355 -0.5136
19407SOL     OW58798   7.937   6.093   1.886  0.1823 -0.1962  0.3918
19407SOL    HW158799   7.901   6.174   1.850  0.1758 -0.7844 -0.9934
19407SOL    HW258800   7.934   6.105   1.980 -1.4607  0.7033  0.2538
19408SOL     OW58801   9.860   5.178   3.528  0.2994  0.5924  0.0400
19408SOL    HW158802   9.766   5.194   3.522  0.0579 -0.9562 -0.7228
19408SOL    HW258803   9.890   5.176   3.438  0.9012  0.2024  0.2398
19409SOL     OW58804   0.589   1.658   7.215 -0.0051 -0.6656 -0.3795
19409SOL    HW158805   0.644   1.597   7.165 -0.3565  0.3302 -2.0645
19409SOL    HW258806   0.502   1.648   7.176 -0.7959 -1.3635  1.4679
19410SOL     OW58807   3.045   0.080   5.550  0.1008  0.6620  0.3694
19410SOL    HW158808   3.020   0.022   5.622  1.7062 -0.1631  0.3105
19410SOL    HW258809   3.085   0.156   5.593 -0.5733  0.9976  0.4017
19411SOL     OW58810   6.609   1.640   8.048  0.3179 -0.3173  0.1135
19411SOL    HW158811   6.548   1.592   8.104 -1.3259  0.3381 -1.0623
19411SOL    HW258812   6.570   1.727   8.038  1.7193  0.3078 -0.2520
19412SOL     OW58813   8.066   9.033   1.902 -0.5350  0.2030  0.0329
19412SOL    HW158814   8.097   9.121   1.925 -0.2753 -0.2966  1.7386
19412SOL    HW258815   7.973   9.035   1.923 -0.7120  0.3110 -0.7346
19413SOL     OW58816   0.882   0.365   7.044 -0.3713  0.1582 -0.6132
19413SOL    HW158817   0.882   0.422   7.120 -2.5326  2.4606 -2.1556
19413SOL    HW258818   0.798   0.319   7.049 -0.5033  0.2731 -1.5055
19414SOL     OW58819   7.251   9.236   0.586 -0.5295  0.2806 -0.0146
19414SOL    HW158820   7.326   9.178   0.590  0.2519  1.3112  0.8046
19414SOL    HW258821   7.249   9.266   0.495 -0.5324 -0.4790 -0.2698
19415SOL     OW58822   0.699   7.316   3.333 -0.1082 -0.4118  0.2310
19415SOL    HW158823   0.612   7.322   3.295  0.7456  0.2565 -1.7681
19415SOL    HW258824   0.756   7.295   3.259  1.6779  1.0178  1.1213
19416SOL     OW58825   2.377   6.246   2.610  0.6005 -0.2467  0.2624
19416SOL    HW158826   2.376   6.221   2.517  0.2331 -1.3465  0.5534
19416SOL    HW258827   2.343   6.170   2.656  1.0533  0.1852  1.3385
19417SOL     OW58828   0.420   0.913   5.346  0.6691  0.3328  0.0583
19417SOL    HW158829   0.456   0.964   5.419 -1.1129  0.7552  0.7007
19417SOL    HW258830   0.325   0.911   5.363  0.4309 -1.1900 -1.2360
19418SOL     OW58831   7.762   4.982   8.376  0.3079 -0.4071 -0.2850
19418SOL    HW158832   7.807   4.924   8.315 -0.3457 -0.8298 -0.3683
19418SOL    HW258833   7.773   4.939   8.461 -0.4397 -0.8146 -0.3914
19419SOL     OW58834   2.483   0.910   9.480  0.1816  0.1685 -0.0311
19419SOL    HW158835   2.492   0.846   9.550  0.5761 -1.9513 -1.8895
19419SOL    HW258836   2.389   0.923   9.472  0.1267  0.3288  0.7740
19420SOL     OW58837   2.218   8.860   6.107  0.2433 -0.4759 -0.6281
19420SOL    HW158838   2.123   8.852   6.122  0.4204 -0.0836  0.8272
19420SOL    HW258839   2.254   8.777   6.139  0.6038  0.2692  0.9913
19421SOL     OW58840   6.952   9.142   5.982 -0.1326 -0.1448 -0.1319
19421SOL    HW158841   6.929   9.235   5.989 -0.8285 -0.3804  1.1783
19421SOL    HW258842   6.996   9.122   6.065 -0.4394 -1.0947 -0.1876
19422SOL     OW58843   1.935   1.993   8.203 -0.0031  0.4062 -0.4174
19422SOL    HW158844   1.950   1.976   8.296  0.5959  0.4831 -0.4988
19422SOL    HW258845   2.005   1.947   8.158  1.4073  2.6480 -0.6665
19423SOL     OW58846   6.433   9.454   8.190  0.3100  0.2570  0.5519
19423SOL    HW158847   6.429   9.522   8.257  0.2547  0.7207  0.0940
19423SOL    HW258848   6.383   9.381   8.226  0.7865  0.2698  1.2621
19424SOL     OW58849   6.173   4.384   5.660  0.3959 -0.2349 -0.3018
19424SOL    HW158850   6.252   4.361   5.610  0.3145 -0.5123 -0.3028
19424SOL    HW258851   6.123   4.303   5.665 -0.8166  0.3528 -1.9516
19425SOL     OW58852   4.051   8.040   3.471 -0.6975  0.1870  0.1005
19425SOL    HW158853   4.049   7.944   3.468 -0.2963  0.1385  1.0558
19425SOL    HW258854   4.130   8.061   3.520 -0.6654  1.0235 -0.2817
19426SOL     OW58855   3.589   1.818   9.239  0.0776 -0.4252 -0.2500
19426SOL    HW158856   3.591   1.879   9.312  1.8452 -2.9113  1.9702
19426SOL    HW258857   3.505   1.773   9.247 -0.0230 -0.2262 -0.1850
19427SOL     OW58858   5.370   2.580   9.003  0.3069  0.5019 -0.8086
19427SOL    HW158859   5.396   2.651   8.945 -0.2512  0.9184 -0.5613
19427SOL    HW258860   5.276   2.593   9.016  0.4369  0.4808  0.2633
19428SOL     OW58861   0.760   4.527   8.184  0.4600 -0.0208 -0.4785
19428SOL    HW158862   0.666   4.507   8.187  0.5895 -0.5760  1.8733
19428SOL    HW258863   0.800   4.450   8.144  0.1769 -1.2029  1.4039
19429SOL     OW58864   4.398   0.014   8.332 -0.2077 -0.0492  0.1434
19429SOL    HW158865   4.447   0.071   8.273  1.6300  0.6366  2.2070
19429SOL    HW258866   4.343  -0.038   8.273  0.0624  1.9080 -2.0065
19430SOL     OW58867   3.219   7.887   7.364  0.5965  0.0833 -0.6485
19430SOL    HW158868   3.188   7.872   7.453  2.3371  0.6382  0.1035
19430SOL    HW258869   3.236   7.799   7.330  0.8584 -0.0993 -0.0641
19431SOL     OW58870   7.410   0.504   4.132  0.1593 -0.4418 -0.2982
19431SOL    HW158871   7.363   0.584   4.108  0.6284 -0.4547 -1.3121
19431SOL    HW258872   7.356   0.464   4.199  0.0082  0.8241  0.3794
19432SOL     OW58873   8.425   9.087   4.296  0.5911 -0.3730  0.2800
19432SOL    HW158874   8.360   9.019   4.280 -0.7142  1.2761 -2.2919
19432SOL    HW258875   8.491   9.073   4.227  0.6147  0.5670  0.0975
19433SOL     OW58876   1.398   6.221   6.692  0.1256  0.7357 -0.1925
19433SOL    HW158877   1.457   6.153   6.661 -1.0307 -0.4226  0.0576
19433SOL    HW258878   1.375   6.194   6.781 -0.4576  1.3837 -0.1395
19434SOL     OW58879   3.358   7.285   2.870  0.1084  0.3238  0.1632
19434SOL    HW158880   3.347   7.190   2.875  1.2362  0.2393  1.9866
19434SOL    HW258881   3.269   7.320   2.862 -0.3587 -0.8537  0.0972
19435SOL     OW58882   6.040   3.025   9.517  0.1573  0.6284 -0.1174
19435SOL    HW158883   6.080   3.032   9.430 -1.7698  0.1454 -1.0974
19435SOL    HW258884   6.058   2.936   9.545  0.0452  0.5097 -0.4154
19436SOL     OW58885   1.465   4.795   2.882  0.3530  0.8314 -0.0143
19436SOL    HW158886   1.414   4.868   2.919 -0.5588  0.2669 -0.1128
19436SOL    HW258887   1.470   4.732   2.953 -2.1511 -0.6396 -1.0329
19437SOL     OW58888   0.812   2.945   6.121  0.5749 -0.3057 -0.0119
19437SOL    HW158889   0.734   2.890   6.109  0.3910  0.0228 -0.3379
19437SOL    HW258890   0.785   3.032   6.094  0.7008  0.0787  1.0523
19438SOL     OW58891   3.017   6.630   5.829  0.3058  0.0256  0.2973
19438SOL    HW158892   3.018   6.640   5.925  0.1537  0.3381  0.2663
19438SOL    HW258893   3.103   6.594   5.808 -0.4428 -2.2501  0.7838
19439SOL     OW58894   7.372   8.129   6.587 -0.4064 -0.1630 -0.6549
19439SOL    HW158895   7.317   8.189   6.637  1.3343  2.1660 -1.4070
19439SOL    HW258896   7.321   8.110   6.508 -1.4116 -0.5590  0.0659
19440SOL     OW58897   1.319   8.129   8.182 -0.0610 -0.2140 -0.5580
19440SOL    HW158898   1.339   8.133   8.088  1.5758  2.2190 -0.2023
19440SOL    HW258899   1.389   8.076   8.219 -0.9535 -1.5483 -0.7260
19441SOL     OW58900   1.794   3.914   2.216 -0.3879  0.9651  0.1764
19441SOL    HW158901   1.845   3.862   2.279 -0.1511  0.9634 -0.0162
19441SOL    HW258902   1.703   3.904   2.245 -0.1504  2.4662  1.6434
19442SOL     OW58903   9.031   7.663   5.691 -0.0798 -0.6055 -0.3202
19442SOL    HW158904   9.079   7.584   5.667  0.2550 -0.7101  0.6313
19442SOL    HW258905   9.086   7.735   5.659  1.7439 -0.6576  2.3311
19443SOL     OW58906   4.946   7.398   3.072 -0.4843 -0.0233  0.3356
19443SOL    HW158907   4.889   7.451   3.016 -0.8211 -0.5791  0.1556
19443SOL    HW258908   4.946   7.311   3.033  0.2175 -0.1200  0.5279
19444SOL     OW58909   6.429   5.451   1.110 -0.3064  0.3210 -0.2654
19444SOL    HW158910   6.491   5.428   1.180  0.8759  1.0101 -1.0457
19444SOL    HW258911   6.456   5.397   1.036  0.5770  1.9266 -1.1760
19445SOL     OW58912   0.525   1.324   0.377 -0.7809 -0.7068  0.2231
19445SOL    HW158913   0.581   1.291   0.307  1.3166 -1.0763  1.9570
19445SOL    HW258914   0.461   1.254   0.391 -0.2353 -1.3215 -0.2636
19446SOL     OW58915   9.585   5.680   3.495 -0.1440  0.6247  0.1511
19446SOL    HW158916   9.655   5.746   3.490 -0.2745  0.8722  1.3071
19446SOL    HW258917   9.625   5.600   3.461  1.2711  0.3368  2.2962
19447SOL     OW58918   5.753   3.045   9.145 -0.2018 -0.3099  0.1830
19447SOL    HW158919   5.701   3.051   9.065 -0.8673  0.4654  0.6498
19447SOL    HW258920   5.798   2.961   9.138  0.0276 -0.1041 -1.1552
19448SOL     OW58921   6.537   9.285   2.402 -0.3636  0.3118  0.0430
19448SOL    HW158922   6.617   9.264   2.353 -0.5537 -1.1982  0.3259
19448SOL    HW258923   6.504   9.365   2.360  0.5657  0.2066 -0.9560
19449SOL     OW58924   0.701   9.757   6.099 -0.1425  0.3883  0.7992
19449SOL    HW158925   0.793   9.773   6.121  0.2992  0.7659 -1.1083
19449SOL    HW258926   0.679   9.676   6.145  1.8340 -0.9051 -0.3612
19450SOL     OW58927   4.072   7.292   3.928  1.1909 -0.3707  0.2177
19450SOL    HW158928   4.111   7.266   4.012  1.4257 -1.8152 -0.3024
19450SOL    HW258929   3.984   7.320   3.950  0.9607 -1.5462  0.8617
19451SOL     OW58930   1.096   2.498   3.306 -0.0952  0.2188 -0.0602
19451SOL    HW158931   1.171   2.548   3.274  0.4023 -1.1152 -1.0614
19451SOL    HW258932   1.134   2.424   3.353 -0.7786 -0.3728 -0.4164
19452SOL     OW58933   8.270   5.132   7.589 -0.5163  0.1237 -0.7069
19452SOL    HW158934   8.253   5.065   7.656  0.8204  0.7359  0.2763
19452SOL    HW258935   8.211   5.203   7.611  0.6092  0.7282  0.4541
19453SOL     OW58936   2.126   1.863   6.637  0.2693 -0.3569 -0.7794
19453SOL    HW158937   2.168   1.823   6.713  0.0099 -0.7841 -0.8565
19453SOL    HW258938   2.045   1.901   6.673 -1.0871 -2.6428 -1.2179
19454SOL     OW58939   7.899   9.292   8.836  0.3625  0.1485  0.2269
19454SOL    HW158940   7.981   9.303   8.789 -0.1778  1.2552 -0.5106
19454SOL    HW258941   7.874   9.380   8.862 -1.3794  0.0779 -0.9860
19455SOL     OW58942   6.830   2.963   6.729 -0.4061 -0.1264  0.6490
19455SOL    HW158943   6.778   2.904   6.783 -0.0608 -0.4269  0.6561
19455SOL    HW258944   6.901   2.992   6.786 -0.2054 -0.2156  0.4462
19456SOL     OW58945   4.241   1.846   7.147  1.0364  0.1499  0.0866
19456SOL    HW158946   4.330   1.831   7.116  0.5645  0.6908 -1.6475
19456SOL    HW258947   4.203   1.906   7.083  0.2063  1.9823  2.1760
19457SOL     OW58948   5.838   2.670   5.877 -0.2256 -0.0722  0.2967
19457SOL    HW158949   5.781   2.594   5.888 -1.7236  0.9154 -0.3887
19457SOL    HW258950   5.927   2.634   5.881 -0.8130 -1.4536  2.8739
19458SOL     OW58951   5.528   1.477   2.720  0.1456  0.4490  0.2527
19458SOL    HW158952   5.566   1.487   2.633  0.9939  1.2355  0.6925
19458SOL    HW258953   5.434   1.482   2.706  0.2478 -0.0882 -0.6927
19459SOL     OW58954   9.515   2.735   1.850  0.1175  0.1521  0.0210
19459SOL    HW158955   9.540   2.673   1.782  0.6196  0.1495  0.2018
19459SOL    HW258956   9.429   2.706   1.878  0.0207 -0.0009 -0.4331
19460SOL     OW58957   6.061   6.905   2.088 -0.0757 -0.8522 -0.6372
19460SOL    HW158958   5.997   6.843   2.053 -1.7782  1.2088 -1.3717
19460SOL    HW258959   6.029   6.990   2.061  2.3583  0.3715  0.0527
19461SOL     OW58960   8.847   3.857   9.399  0.0901  0.5603  0.2520
19461SOL    HW158961   8.841   3.885   9.490 -0.0894  0.6137  0.2232
19461SOL    HW258962   8.758   3.861   9.366 -0.0082 -0.4895  0.3760
19462SOL     OW58963   9.626   4.777   6.253 -0.3367 -0.1592  0.3121
19462SOL    HW158964   9.638   4.708   6.319 -3.0750 -1.8066 -0.7246
19462SOL    HW258965   9.534   4.771   6.229  0.1127  1.6590 -2.3088
19463SOL     OW58966   1.903   5.075   7.565  0.5740 -0.1068 -0.3796
19463SOL    HW158967   1.834   5.020   7.603 -0.6233  0.6760 -1.3197
19463SOL    HW258968   1.948   5.113   7.640 -1.5238  1.1614  0.3194
19464SOL     OW58969   2.746   9.086   2.290 -0.4112 -0.2224 -0.0992
19464SOL    HW158970   2.722   9.022   2.223  0.7679  0.2711 -1.0379
19464SOL    HW258971   2.663   9.112   2.330 -1.2401 -0.0464 -1.8333
19465SOL     OW58972   1.293   6.886   3.588 -0.1369 -0.1661  0.9536
19465SOL    HW158973   1.286   6.791   3.587  0.6514 -0.2196  0.2890
19465SOL    HW258974   1.299   6.911   3.496  0.0834  0.5000  1.1442
19466SOL     OW58975   8.122   6.932   9.736 -0.7547 -0.7471  0.9048
19466SOL    HW158976   8.050   6.945   9.675  0.2900 -0.0187 -0.2332
19466SOL    HW258977   8.187   6.882   9.685 -0.0403 -0.5126  1.5664
19467SOL     OW58978   1.079   9.044   8.405  0.2152 -0.1370  0.0099
19467SOL    HW158979   1.119   9.048   8.318  1.2129 -1.0027  0.4085
19467SOL    HW258980   1.022   9.121   8.409 -1.5237 -1.1955 -2.2103
19468SOL     OW58981   8.963   9.826   6.064  0.9810  0.2457  0.3468
19468SOL    HW158982   8.927   9.774   6.135  0.4967  0.0151 -0.0668
19468SOL    HW258983   8.969   9.915   6.100  1.9350 -0.1000  1.0972
19469SOL     OW58984   1.563   6.042   5.000 -0.0946 -0.0882  0.0482
19469SOL    HW158985   1.517   6.021   4.919 -0.2353  0.7708 -0.0987
19469SOL    HW258986   1.497   6.080   5.057 -0.0942 -1.1026  0.7418
19470SOL     OW58987   9.931   7.043   7.373  0.3087 -0.5970  0.3513
19470SOL    HW158988  10.001   6.992   7.415  2.0199  2.1104  1.0208
19470SOL    HW258989   9.941   7.024   7.279  2.7707  0.5534  0.2932
19471SOL     OW58990   6.841   8.997   8.805  0.0219  0.2393  0.5039
19471SOL    HW158991   6.874   8.979   8.893  0.5371 -0.0187  0.2636
19471SOL    HW258992   6.838   8.911   8.762  2.0507  0.6172 -0.5002
19472SOL     OW58993   2.437   4.756   8.088  0.1508 -0.9867  0.6434
19472SOL    HW158994   2.532   4.767   8.079  0.1464 -1.9265 -0.9317
19472SOL    HW258995   2.411   4.822   8.152  1.8525 -0.6575  1.0434
19473SOL     OW58996   0.999   4.687   8.099  0.1538  0.2419 -0.0458
19473SOL    HW158997   0.998   4.661   8.007  0.6823 -1.0486  0.3000
19473SOL    HW258998   0.924   4.643   8.138 -0.4117  1.2479  0.0392
19474SOL     OW58999   2.157   4.401   3.455 -0.0440  0.2635  0.3206
19474SOL    HW159000   2.061   4.395   3.451 -0.2513  2.4942  0.5853
19474SOL    HW259001   2.184   4.416   3.365  0.0814 -0.4767  0.2302
19475SOL     OW59002   3.544   8.767   9.591  0.4455 -0.0403 -0.2590
19475SOL    HW159003   3.527   8.708   9.665 -1.2047  1.9339  1.0497
19475SOL    HW259004   3.505   8.851   9.618 -3.0640  0.0617 -4.5679
19476SOL     OW59005   6.373   7.463   0.607  0.1061 -0.1950  0.2377
19476SOL    HW159006   6.420   7.388   0.642 -0.5581  0.0160  1.6448
19476SOL    HW259007   6.360   7.443   0.515  0.0766 -1.7340  0.5580
19477SOL     OW59008   0.524   4.796   8.390 -0.2040  0.5754 -0.3070
19477SOL    HW159009   0.617   4.781   8.405 -0.3678 -0.8456 -0.5153
19477SOL    HW259010   0.490   4.829   8.473  0.2516 -0.1971  0.2018
19478SOL     OW59011   4.626   5.991   8.841 -0.0430 -0.0203  0.4206
19478SOL    HW159012   4.697   6.004   8.778 -1.8722 -2.5492 -2.4747
19478SOL    HW259013   4.563   6.060   8.820 -0.8885 -1.1724 -1.0401
19479SOL     OW59014   8.598   2.408   5.495 -0.0412  0.4708 -0.3355
19479SOL    HW159015   8.618   2.455   5.576 -0.4329 -0.9823  0.6439
19479SOL    HW259016   8.629   2.319   5.511 -1.2148 -0.1425 -1.3242
19480SOL     OW59017   6.973   3.372   0.574  0.3020 -0.2682 -0.4511
19480SOL    HW159018   6.986   3.313   0.500  0.1330  1.1200 -1.6411
19480SOL    HW259019   6.883   3.357   0.602 -0.5554  1.0594 -2.3074
19481SOL     OW59020   4.672   9.678   0.752  0.4526  0.6802  0.3590
19481SOL    HW159021   4.591   9.641   0.786  0.7201  0.6454  0.9709
19481SOL    HW259022   4.651   9.705   0.662  0.6390 -2.3001 -0.7060
19482SOL     OW59023   4.182   0.557   1.338  0.5190  0.1891  0.4027
19482SOL    HW159024   4.152   0.629   1.282 -0.0007 -0.4686 -0.1871
19482SOL    HW259025   4.102   0.510   1.361  0.9064 -0.5025  0.3581
19483SOL     OW59026   1.262   9.866   6.331  0.4030 -0.0638 -0.2031
19483SOL    HW159027   1.240   9.868   6.238 -0.5085 -2.1462 -0.0907
19483SOL    HW259028   1.356   9.882   6.334  0.4455  0.0298 -1.4840
19484SOL     OW59029   1.160   9.714   0.665  0.5140 -0.3933 -0.3518
19484SOL    HW159030   1.178   9.683   0.576  0.7235 -2.1202  0.2565
19484SOL    HW259031   1.213   9.794   0.673 -1.2686  1.1336 -2.5137
19485SOL     OW59032   3.920   2.370   0.193  0.0901 -0.1289  0.1079
19485SOL    HW159033   3.986   2.378   0.124  0.3580  0.3061  0.4089
19485SOL    HW259034   3.839   2.403   0.153  0.1971 -0.0728 -0.0618
19486SOL     OW59035   0.338   2.303   1.550 -0.6124 -0.1966 -0.2520
19486SOL    HW159036   0.425   2.312   1.512 -0.6769 -2.1870 -0.9832
19486SOL    HW259037   0.354   2.274   1.640 -0.5226 -0.1409 -0.2497
19487SOL     OW59038   1.354   2.188   4.009  0.1762  0.1012  0.2117
19487SOL    HW159039   1.273   2.170   3.960 -1.4861  1.5619  2.2446
19487SOL    HW259040   1.340   2.274   4.048  2.0970 -0.2734  1.8963
19488SOL     OW59041   0.815   5.562   6.654 -0.4434  0.0704  0.0062
19488SOL    HW159042   0.781   5.499   6.590  2.0898 -1.0955 -0.3308
19488SOL    HW259043   0.768   5.542   6.735 -1.5122 -0.4804 -0.7219
19489SOL     OW59044   1.211   5.199   5.401  0.2518 -0.3092  0.3486
19489SOL    HW159045   1.224   5.104   5.405  1.3123 -0.1512  0.9308
19489SOL    HW259046   1.187   5.216   5.310  0.3730 -1.0976  0.1634
19490SOL     OW59047   6.936   8.883   4.603 -0.1833  0.4172  0.0419
19490SOL    HW159048   7.030   8.869   4.590 -0.1611 -0.4547  0.9258
19490SOL    HW259049   6.910   8.941   4.532  0.9501  0.3674 -0.4452
19491SOL     OW59050   1.743   7.565   2.897 -0.1086 -0.0399  0.1117
19491SOL    HW159051   1.722   7.655   2.920  0.7971  0.5725 -1.3351
19491SOL    HW259052   1.808   7.572   2.827 -0.1009 -1.8120 -0.1131
19492SOL     OW59053   9.190   9.126   6.556  0.1795  0.0646  0.6891
19492SOL    HW159054   9.261   9.180   6.521 -0.0176 -0.7593 -1.1219
19492SOL    HW259055   9.206   9.039   6.518 -1.0651 -0.4527  1.3023
19493SOL     OW59056   6.033   5.214   3.205  0.0631  0.1186 -0.7418
19493SOL    HW159057   6.116   5.243   3.243 -0.7540  1.8145 -0.1627
19493SOL    HW259058   5.975   5.204   3.281 -0.1572 -1.5512 -1.0854
19494SOL     OW59059   8.791   6.482   3.214 -0.2443  0.1683 -0.3545
19494SOL    HW159060   8.875   6.478   3.258  0.4405 -0.6393 -1.6706
19494SOL    HW259061   8.789   6.569   3.173 -0.3441  0.4388  0.2174
19495SOL     OW59062   9.683   2.031   5.471 -0.0246  0.2444  0.8003
19495SOL    HW159063   9.731   1.950   5.488  1.7592  0.6746 -1.6835
19495SOL    HW259064   9.591   2.004   5.469  0.3790 -1.3515  1.7987
19496SOL     OW59065   5.736   1.801   3.997 -0.3331 -0.0735  0.2961
19496SOL    HW159066   5.767   1.876   3.946  0.9754 -0.5331  0.3731
19496SOL    HW259067   5.644   1.792   3.973 -0.0937  0.5433 -0.9647
19497SOL     OW59068   3.824   7.223   7.792  0.2324  0.0508  0.3201
19497SOL    HW159069   3.896   7.281   7.816 -0.3960  2.1970 -2.4763
19497SOL    HW259070   3.747   7.265   7.831 -0.2583  1.3909 -1.9213
19498SOL     OW59071   3.234   0.879   5.898  0.7900 -0.6444 -0.0648
19498SOL    HW159072   3.297   0.923   5.954 -0.3166  1.2361 -0.2294
19498SOL    HW259073   3.203   0.947   5.838 -0.6359 -1.7541 -0.6564
19499SOL     OW59074   4.671   4.710   4.343  0.2338 -0.0679 -0.0908
19499SOL    HW159075   4.711   4.628   4.370  1.0166 -0.3696 -1.9902
19499SOL    HW259076   4.659   4.701   4.249  1.4460  2.4168 -0.5922
19500SOL     OW59077   2.505   8.266   5.985 -0.1331  0.0888  0.0575
19500SOL    HW159078   2.573   8.242   5.922  0.6134  1.5414  0.2732
19500SOL    HW259079   2.435   8.203   5.969  1.4084 -1.7412  0.1241
19501SOL     OW59080   4.121   1.031   6.897 -0.0973  0.2916 -0.4636
19501SOL    HW159081   4.174   1.102   6.932 -1.5444  1.8044 -1.1736
19501SOL    HW259082   4.071   1.072   6.826 -1.4919 -1.2600 -0.4273
19502SOL     OW59083   7.484   4.091   8.096  0.3815  0.5047  0.0122
19502SOL    HW159084   7.566   4.042   8.098 -0.2020 -0.5944 -1.4283
19502SOL    HW259085   7.510   4.180   8.072  1.0163 -0.3023 -2.6074
19503SOL     OW59086   7.945   2.287   8.484  0.3079 -0.6570  0.5975
19503SOL    HW159087   7.975   2.300   8.574  0.9685 -1.5280  0.5160
19503SOL    HW259088   8.023   2.257   8.437 -0.0790 -0.4165 -0.2256
19504SOL     OW59089   9.884   1.633   0.247  0.2072  0.0455  0.6787
19504SOL    HW159090   9.806   1.686   0.266  0.4546  1.2746 -1.4681
19504SOL    HW259091   9.854   1.567   0.185  0.5321 -0.5352  1.1325
19505SOL     OW59092   9.993   3.582   7.269  0.7660  0.1257  0.2323
19505SOL    HW159093   9.923   3.647   7.279  0.8533 -0.0012  1.9807
19505SOL    HW259094   9.951   3.509   7.223  0.0090  0.4427  0.3995
19506SOL     OW59095   3.482   1.931   4.043 -0.0809  0.2189  0.2509
19506SOL    HW159096   3.450   1.870   4.109  0.2279  1.8318  1.9743
19506SOL    HW259097   3.562   1.968   4.081  0.8498  0.2358 -1.6073
19507SOL     OW59098   0.118   0.015   1.958 -0.6437  0.3513  0.3011
19507SOL    HW159099   0.148  -0.012   1.872 -0.3710  0.7555  0.2641
19507SOL    HW259100   0.022   0.014   1.952 -0.6586 -0.9883  0.4344
19508SOL     OW59101   4.253   3.043   2.019  0.1787 -0.7925 -0.4843
19508SOL    HW159102   4.256   3.113   1.954  0.8435  0.1647  0.5349
19508SOL    HW259103   4.163   3.043   2.050  0.2772 -0.0838 -0.1790
19509SOL     OW59104   7.689   0.968   1.937  0.2842  0.6627  0.3027
19509SOL    HW159105   7.638   0.989   2.014 -2.5825 -1.6022 -0.8033
19509SOL    HW259106   7.705   0.874   1.943  0.7565  0.5931 -1.4436
19510SOL     OW59107   8.025   1.272   9.442  0.2966 -0.1706 -0.6957
19510SOL    HW159108   8.006   1.300   9.352 -2.6292  1.5908  0.3594
19510SOL    HW259109   7.977   1.190   9.451  0.9564 -0.5818 -0.8336
19511SOL     OW59110   4.758   8.171   0.613  0.5475 -0.1272 -0.7393
19511SOL    HW159111   4.791   8.142   0.698  0.6466 -0.4410 -0.8858
19511SOL    HW259112   4.832   8.160   0.554  0.0260 -1.3583 -1.1879
19512SOL     OW59113   7.333   1.163   6.802 -0.1534  0.3256  0.0661
19512SOL    HW159114   7.311   1.107   6.877 -0.9681 -0.4882 -0.7671
19512SOL    HW259115   7.403   1.220   6.835 -0.8095  0.2892  1.5788
19513SOL     OW59116   5.612   6.982   3.473 -0.0224  0.3981  0.3505
19513SOL    HW159117   5.704   6.996   3.497  0.8055 -1.1209 -1.5834
19513SOL    HW259118   5.611   6.991   3.378 -1.7364 -0.2993  0.2710
19514SOL     OW59119   1.890   4.892   8.149 -0.1052  0.0523 -0.4481
19514SOL    HW159120   1.897   4.901   8.054  0.6547  0.4570 -0.3619
19514SOL    HW259121   1.858   4.803   8.163  2.9461 -1.2666 -1.0055
19515SOL     OW59122   3.164   6.730   1.073 -0.0166 -0.1042 -0.3740
19515SOL    HW159123   3.202   6.650   1.108  0.4090 -0.2551 -1.1505
19515SOL    HW259124   3.220   6.752   0.998  1.1668  2.0672  1.0316
19516SOL     OW59125   4.730   8.731   4.958 -0.4001 -0.6640 -0.2943
19516SOL    HW159126   4.789   8.775   5.018 -1.3791 -2.4400  2.1511
19516SOL    HW259127   4.663   8.797   4.937 -0.5122 -0.2273  1.3042
19517SOL     OW59128   4.423   1.240   2.635  0.3506  0.4557  0.1062
19517SOL    HW159129   4.383   1.155   2.616  0.7159  0.1481  0.7064
19517SOL    HW259130   4.351   1.292   2.671  0.0531  0.5095 -0.5394
19518SOL     OW59131   4.783   2.852   2.089  0.0161  0.2208 -0.4717
19518SOL    HW159132   4.842   2.778   2.071  0.4538  0.5202 -0.3044
19518SOL    HW259133   4.726   2.821   2.159 -1.4891 -0.8374 -2.1106
19519SOL     OW59134   4.034   4.233   9.276 -0.1445 -0.5368 -0.2815
19519SOL    HW159135   4.031   4.325   9.304 -1.5615 -0.5566 -0.2965
19519SOL    HW259136   4.122   4.222   9.241  1.3818 -0.2180  3.1389
19520SOL     OW59137   8.405   4.377   8.360  0.6669  0.1075 -0.2636
19520SOL    HW159138   8.406   4.456   8.414 -1.2488 -0.7751  1.1790
19520SOL    HW259139   8.409   4.305   8.422 -0.6262 -0.9455 -1.3232
19521SOL     OW59140   0.115   0.924   5.369  0.0673  0.4243 -0.4570
19521SOL    HW159141   0.160   0.937   5.453 -1.1680 -1.6030  0.6118
19521SOL    HW259142   0.028   0.960   5.383 -0.4496 -0.7545 -0.5112
19522SOL     OW59143   9.454   9.504   7.054  0.0673  0.5109 -0.6216
19522SOL    HW159144   9.374   9.504   7.107  0.9355 -2.8107  0.9311
19522SOL    HW259145   9.428   9.462   6.972  0.2441 -0.8208 -0.0107
19523SOL     OW59146   5.864   8.723   3.413  0.0827 -0.2091 -0.3266
19523SOL    HW159147   5.916   8.803   3.425  0.4416 -0.1793 -1.9495
19523SOL    HW259148   5.903   8.679   3.338 -1.1407 -1.0918 -0.4783
19524SOL     OW59149   9.477   5.363   2.517  0.2444  0.5314  0.7919
19524SOL    HW159150   9.402   5.305   2.511  0.1709  0.5471  1.5326
19524SOL    HW259151   9.550   5.311   2.484  0.2667 -0.1512  1.8663
19525SOL     OW59152   2.846   4.055   6.898  0.2845  0.0408 -0.1440
19525SOL    HW159153   2.914   4.030   6.960 -2.5205 -3.7732  1.8044
19525SOL    HW259154   2.876   4.018   6.814  1.9838  1.2788 -0.1457
19526SOL     OW59155   7.275   7.598   5.984  0.1939 -0.1787 -0.1550
19526SOL    HW159156   7.355   7.608   5.932  0.6033  0.6194  0.5978
19526SOL    HW259157   7.212   7.560   5.923  1.0200 -0.4221 -0.8837
19527SOL     OW59158   8.573   4.786   8.048 -0.0931 -0.0357 -0.0597
19527SOL    HW159159   8.641   4.816   7.988 -0.6982 -3.2759 -2.6956
19527SOL    HW259160   8.617   4.722   8.104 -0.3478  0.1239  0.3251
19528SOL     OW59161   5.114   0.277   7.597 -0.7412 -0.2396 -0.1643
19528SOL    HW159162   5.173   0.352   7.605 -1.7217  0.5729 -0.3967
19528SOL    HW259163   5.141   0.218   7.668 -0.5432  0.7428  0.6014
19529SOL     OW59164   3.377   4.340   0.282 -0.1206  0.2370  0.4947
19529SOL    HW159165   3.354   4.261   0.233 -0.5072  0.3713  0.4523
19529SOL    HW259166   3.362   4.316   0.373  0.0188  0.1796  0.5037
19530SOL     OW59167   4.707   1.843   2.079  0.2356  0.4006  0.1808
19530SOL    HW159168   4.797   1.873   2.066  0.0326  1.0919  0.3236
19530SOL    HW259169   4.697   1.769   2.020  0.6808  0.7686 -0.3640
19531SOL     OW59170   3.394   6.813   9.629 -0.1525  0.0241  0.1964
19531SOL    HW159171   3.361   6.891   9.586  0.7565 -0.4701 -1.4948
19531SOL    HW259172   3.325   6.748   9.618  0.9325 -0.7924 -2.6930
19532SOL     OW59173   0.735   3.456   2.967  0.0128 -0.5904  0.1407
19532SOL    HW159174   0.679   3.379   2.978 -2.2149  1.0867  1.2196
19532SOL    HW259175   0.729   3.477   2.874 -1.7109 -0.0696  0.3502
19533SOL     OW59176   9.316   8.443   3.512  0.4753  0.1149  0.6378
19533SOL    HW159177   9.398   8.408   3.476 -0.5698  0.0434 -1.9176
19533SOL    HW259178   9.266   8.365   3.537  0.6804  0.1079  1.0403
19534SOL     OW59179   5.251   7.505   1.460  0.2779  0.3690  0.5882
19534SOL    HW159180   5.307   7.582   1.454  1.5696 -0.4532  1.5399
19534SOL    HW259181   5.172   7.535   1.504  0.5736  1.2325  0.5388
19535SOL     OW59182   5.375   4.126   5.661 -0.2177 -0.2119 -0.3699
19535SOL    HW159183   5.346   4.184   5.732 -0.3461 -0.6065 -0.0966
19535SOL    HW259184   5.353   4.173   5.581 -1.8620 -0.5857 -0.1915
19536SOL     OW59185   4.438   4.090   0.120 -0.6362 -0.2747 -0.6866
19536SOL    HW159186   4.398   4.138   0.047  0.0278 -1.2616 -1.7323
19536SOL    HW259187   4.508   4.039   0.080  0.1414 -0.3962  0.7474
19537SOL     OW59188   3.551   5.978   7.509 -0.2991  0.2859 -0.3154
19537SOL    HW159189   3.482   5.975   7.576 -0.1736  1.5495 -0.1195
19537SOL    HW259190   3.616   6.038   7.544  0.8451 -0.7575 -0.5833
19538SOL     OW59191   5.338   1.882   9.481  0.4002  0.1182  0.4273
19538SOL    HW159192   5.429   1.852   9.483  0.0106 -1.2170 -0.1273
19538SOL    HW259193   5.290   1.813   9.527 -0.6641 -0.6296 -1.6899
19539SOL     OW59194   1.942   7.549   5.306 -0.4531  0.1604  0.1911
19539SOL    HW159195   1.907   7.578   5.390 -0.2411  0.6894  0.1068
19539SOL    HW259196   2.000   7.621   5.279 -0.8459  0.1830 -0.6029
19540SOL     OW59197   2.941   6.611   0.855  0.3826 -0.3153  0.5058
19540SOL    HW159198   3.037   6.604   0.856  0.5920  1.8906  0.0269
19540SOL    HW259199   2.924   6.699   0.823 -1.7775  0.0549  2.4640
19541SOL     OW59200   1.200   8.529   3.480 -0.1706 -0.0464  0.2385
19541SOL    HW159201   1.147   8.451   3.496  0.4705 -0.5867 -0.1969
19541SOL    HW259202   1.262   8.530   3.553 -0.2344  0.1033  0.2897
19542SOL     OW59203   6.227   3.577   0.199  0.3839  0.2304 -0.6553
19542SOL    HW159204   6.178   3.564   0.279  1.2200  1.0488  0.0194
19542SOL    HW259205   6.161   3.579   0.130 -0.2180 -1.8957 -0.1828
19543SOL     OW59206   5.757   0.633   4.965  0.1209  0.3212  0.2100
19543SOL    HW159207   5.817   0.653   5.037  3.3369 -1.8273 -1.6127
19543SOL    HW259208   5.798   0.674   4.888 -1.7124  0.2061 -0.8847
19544SOL     OW59209   3.741   3.857   3.103 -0.2157  0.0267  0.2192
19544SOL    HW159210   3.820   3.909   3.086  0.3978 -0.7334  0.6972
19544SOL    HW259211   3.700   3.902   3.177 -0.2408  0.4323 -0.0361
19545SOL     OW59212   4.396   6.967   2.128 -0.0341  0.6436 -0.4759
19545SOL    HW159213   4.400   6.981   2.033 -0.4079  1.6907 -0.3540
19545SOL    HW259214   4.372   7.053   2.163 -0.2483  0.1764  0.5427
19546SOL     OW59215   7.003   2.470   6.850 -0.8595 -0.1002 -0.6577
19546SOL    HW159216   7.010   2.530   6.776  0.9190 -0.4458 -0.8142
19546SOL    HW259217   6.941   2.512   6.909  1.0863  2.4445 -0.2614
19547SOL     OW59218   7.562   2.220   5.886 -0.7343  0.3280  0.4538
19547SOL    HW159219   7.522   2.272   5.955  0.0150  1.0994  0.3189
19547SOL    HW259220   7.653   2.248   5.884 -1.0106  1.2629 -1.7157
19548SOL     OW59221   9.934   0.035   3.153 -0.3016  0.2071 -0.7686
19548SOL    HW159222   9.881   0.046   3.074  1.2585 -0.5685 -1.9711
19548SOL    HW259223   9.976  -0.050   3.142  2.3628  1.4049 -0.6188
19549SOL     OW59224   2.811   8.312   1.401  0.0988  0.1909  0.3261
19549SOL    HW159225   2.834   8.335   1.311  2.0613 -0.2854  0.6594
19549SOL    HW259226   2.717   8.326   1.406  0.0316  0.7310 -1.6469
19550SOL     OW59227   7.674   9.170   4.032  0.4816 -0.1239 -0.5664
19550SOL    HW159228   7.745   9.139   4.087  0.5393  1.0657  0.0707
19550SOL    HW259229   7.646   9.252   4.073 -0.7827 -0.2037 -1.2043
19551SOL     OW59230   6.963   8.394   1.566  0.7307  0.3849  0.1502
19551SOL    HW159231   7.022   8.321   1.585  1.8700  1.8022  2.5544
19551SOL    HW259232   7.021   8.470   1.555 -0.5220  1.3289 -0.2275
19552SOL     OW59233   9.823   2.183   7.898  0.3100 -0.0749  0.3766
19552SOL    HW159234   9.746   2.201   7.845  0.0695 -0.3571  0.6227
19552SOL    HW259235   9.847   2.267   7.936  1.5027  0.4919 -1.5023
19553SOL     OW59236   4.663   5.815   1.798  0.2779 -0.3874 -0.3224
19553SOL    HW159237   4.617   5.822   1.715  0.1898 -1.2618 -0.3638
19553SOL    HW259238   4.750   5.782   1.775  0.7183  0.6605 -0.1862
19554SOL     OW59239   3.454   6.382   1.795  0.4780 -0.2287  0.1685
19554SOL    HW159240   3.495   6.380   1.882 -2.0028 -0.0771  1.4383
19554SOL    HW259241   3.423   6.293   1.780 -3.7233  0.6560  1.9859
19555SOL     OW59242   1.052   0.656   9.087  0.0166 -0.2500 -0.0650
19555SOL    HW159243   1.098   0.614   9.159  1.8592  0.2403 -0.8882
19555SOL    HW259244   1.080   0.748   9.090  1.9210 -0.6390 -2.6438
19556SOL     OW59245   1.164   2.858   1.931  0.0781 -0.4590  0.2653
19556SOL    HW159246   1.180   2.792   1.864 -0.2910  0.0533 -0.3528
19556SOL    HW259247   1.227   2.839   2.000  1.2376 -0.3362 -0.7197
19557SOL     OW59248   4.634   3.456   8.708 -0.5019  0.2397 -0.2202
19557SOL    HW159249   4.584   3.453   8.627  1.4220  0.2463 -1.4754
19557SOL    HW259250   4.725   3.443   8.681  0.2655  0.7712  1.8835
19558SOL     OW59251   7.403   0.966   2.310 -0.0422 -0.3732 -0.2301
19558SOL    HW159252   7.390   0.915   2.389 -0.4606  0.0087 -0.0484
19558SOL    HW259253   7.462   0.913   2.256  2.1907  0.3597  1.3059
19559SOL     OW59254   6.732   1.125   5.821 -0.3821 -0.1640 -0.2009
19559SOL    HW159255   6.741   1.179   5.742 -1.2088 -0.6405 -0.6355
19559SOL    HW259256   6.686   1.047   5.791 -0.8479 -0.2841  0.7885
19560SOL     OW59257   0.362   6.867   7.471 -0.1744 -0.4286 -0.3985
19560SOL    HW159258   0.420   6.795   7.446 -0.7209 -0.8239 -0.5595
19560SOL    HW259259   0.410   6.946   7.450 -0.3442 -0.7346 -2.1086
19561SOL     OW59260   2.758   2.443   2.234  0.2083 -0.6749  0.0925
19561SOL    HW159261   2.724   2.355   2.248 -1.3033 -0.7257 -3.0071
19561SOL    HW259262   2.776   2.447   2.140 -0.0859  2.3931  0.0653
19562SOL     OW59263   4.490   5.927   4.426  0.3211 -0.3124 -0.0310
19562SOL    HW159264   4.420   5.977   4.467  0.2295  0.1107 -0.6833
19562SOL    HW259265   4.457   5.838   4.423  0.1856 -0.2816  0.4939
19563SOL     OW59266   4.438   0.297   4.270 -0.2622  0.5405 -0.3128
19563SOL    HW159267   4.386   0.349   4.330 -0.2583  0.6275 -0.3849
19563SOL    HW259268   4.386   0.294   4.190  0.5101  1.8723 -0.8925
19564SOL     OW59269   4.423   3.623   9.680  0.2579  0.3572  0.2799
19564SOL    HW159270   4.507   3.594   9.716 -0.2729 -1.3420  0.2226
19564SOL    HW259271   4.383   3.543   9.647 -1.1066  1.2539 -0.2831
19565SOL     OW59272   2.194   4.141   2.639 -0.5087 -0.2055 -0.3202
19565SOL    HW159273   2.270   4.169   2.689 -0.8346  1.5779 -0.7469
19565SOL    HW259274   2.120   4.150   2.699 -0.7410  0.8008 -0.7361
19566SOL     OW59275   3.227   4.819   2.055 -0.0646 -0.2807 -0.2980
19566SOL    HW159276   3.308   4.816   2.003 -1.1079  3.7685 -2.5233
19566SOL    HW259277   3.248   4.874   2.129 -0.2925 -0.8844  0.2257
19567SOL     OW59278   8.485   2.100   9.426  0.5208  0.3996 -0.0709
19567SOL    HW159279   8.396   2.064   9.427 -0.5455  2.7544  1.9401
19567SOL    HW259280   8.492   2.143   9.340  0.5254 -1.4992 -1.0591
19568SOL     OW59281   1.367   3.149   4.758  0.4125 -0.4732 -0.5041
19568SOL    HW159282   1.344   3.057   4.764  1.9481 -0.7864  2.0080
19568SOL    HW259283   1.461   3.152   4.777  0.2033  1.6508  0.5687
19569SOL     OW59284   6.291   5.738   8.511  0.1809  0.4891 -0.5226
19569SOL    HW159285   6.347   5.715   8.437  0.3944 -1.0247  0.0867
19569SOL    HW259286   6.248   5.819   8.484  1.9868  1.2178 -1.3648
19570SOL     OW59287   1.103   4.808   2.744 -0.1300 -0.2690  0.0623
19570SOL    HW159288   1.008   4.811   2.754  0.1431  1.9244  3.3045
19570SOL    HW259289   1.131   4.900   2.745  2.0557 -0.8410 -0.9357
19571SOL     OW59290   4.486   6.751   9.217  0.2847  0.0210 -0.0828
19571SOL    HW159291   4.460   6.671   9.173  0.5841  0.2366 -0.6551
19571SOL    HW259292   4.511   6.812   9.147  1.9021 -0.0253  0.3901
19572SOL     OW59293   4.926   4.683   3.918  0.0616 -0.0463  0.1235
19572SOL    HW159294   5.001   4.724   3.961  1.3225 -1.6725 -0.4072
19572SOL    HW259295   4.961   4.602   3.881 -2.0994 -1.1951  0.4130
19573SOL     OW59296   8.421   0.671   6.143 -0.2519 -0.1022 -0.1367
19573SOL    HW159297   8.364   0.627   6.080 -0.5797  0.5552 -0.3034
19573SOL    HW259298   8.449   0.601   6.203 -0.6752 -0.5557 -0.4605
19574SOL     OW59299   8.104   9.280   6.307  0.1803 -0.6780  0.0393
19574SOL    HW159300   8.110   9.357   6.364  0.2501  0.2070 -1.1176
19574SOL    HW259301   8.018   9.243   6.327 -0.6331  0.7498 -0.6238
19575SOL     OW59302   9.850   4.229   3.079  0.1877 -0.2542 -0.1341
19575SOL    HW159303   9.937   4.245   3.045 -0.0050  0.1165 -0.4505
19575SOL    HW259304   9.799   4.307   3.056 -0.3371 -0.6416 -0.3177
19576SOL     OW59305   7.966   6.059   3.368 -0.0148  0.3827  0.6539
19576SOL    HW159306   7.921   6.005   3.433  0.2985 -1.1413 -0.3695
19576SOL    HW259307   7.980   6.143   3.413  0.0648 -0.5738  2.4875
19577SOL     OW59308   5.546   4.134   3.871  0.3269 -0.2041  0.2780
19577SOL    HW159309   5.535   4.228   3.882  0.0603 -0.2715  0.6046
19577SOL    HW259310   5.639   4.122   3.849 -0.0438  0.3292 -1.8746
19578SOL     OW59311   5.033   6.701   9.950 -0.5377 -1.2433 -0.2646
19578SOL    HW159312   4.969   6.724   9.882  0.1860  2.0239 -0.0114
19578SOL    HW259313   5.117   6.703   9.904 -0.2357 -1.1394  0.2908
19579SOL     OW59314   7.094   3.065   6.120 -0.6659  0.0240 -0.1266
19579SOL    HW159315   7.061   3.133   6.178  0.1861  0.1551  0.2260
19579SOL    HW259316   7.179   3.041   6.158 -0.5266 -0.5553 -0.7894
19580SOL     OW59317   2.244   8.570   6.204 -0.0091  0.1902  0.4675
19580SOL    HW159318   2.193   8.546   6.282  0.4473 -0.2216  0.6433
19580SOL    HW259319   2.267   8.486   6.164  0.6243  0.3658  0.4535
19581SOL     OW59320   1.210   5.376   2.293  0.0370  0.0060 -0.0482
19581SOL    HW159321   1.263   5.313   2.244  0.8726 -0.3541  1.2766
19581SOL    HW259322   1.208   5.454   2.238  2.0042  0.0509 -0.1432
19582SOL     OW59323   1.067   0.207   9.454  0.2557 -0.4974  0.5753
19582SOL    HW159324   1.159   0.231   9.447  0.2828 -0.4660  1.0400
19582SOL    HW259325   1.068   0.113   9.475  0.1571 -0.8202 -0.7268
19583SOL     OW59326   0.972   1.958   6.630  0.3630 -0.5406 -0.4723
19583SOL    HW159327   0.899   2.009   6.666  0.3921  0.5101 -1.8597
19583SOL    HW259328   0.930   1.884   6.586  0.1467 -0.0341 -1.1163
19584SOL     OW59329   2.146   7.303   4.157 -0.7012 -1.2896 -0.5998
19584SOL    HW159330   2.241   7.310   4.149 -0.6374 -1.1072  0.2260
19584SOL    HW259331   2.111   7.366   4.094 -0.2754 -1.1881 -0.7339
19585SOL     OW59332   6.923   2.053   1.276 -0.3942  0.3660  0.5219
19585SOL    HW159333   6.966   2.034   1.193 -0.3887 -1.8801  0.9594
19585SOL    HW259334   6.850   1.991   1.280  1.0862 -1.4407  3.2375
19586SOL     OW59335   0.740   6.091   6.630  0.3963 -1.0251 -0.4212
19586SOL    HW159336   0.756   6.030   6.701 -1.9293 -1.1528  0.0975
19586SOL    HW259337   0.798   6.063   6.560  4.0190  0.0905  1.8339
19587SOL     OW59338   6.105   8.110   5.811 -0.3404 -0.9511  0.4448
19587SOL    HW159339   6.015   8.121   5.842 -0.0477  0.1775  0.9568
19587SOL    HW259340   6.132   8.198   5.783 -0.4449 -1.8108 -2.6932
19588SOL     OW59341   0.498   6.863   6.945  0.3860  1.0015 -0.0328
19588SOL    HW159342   0.541   6.857   6.859  1.8858  0.5760  0.7042
19588SOL    HW259343   0.562   6.909   7.000  0.1841 -0.2404  1.2909
19589SOL     OW59344   8.737   7.451   3.363 -0.1015  0.3009 -0.2754
19589SOL    HW159345   8.704   7.363   3.346 -1.7567  0.5775  1.2021
19589SOL    HW259346   8.737   7.494   3.278  1.6149 -1.3569 -1.1908
19590SOL     OW59347   9.520   8.987   1.596 -0.1257  0.8634 -0.1185
19590SOL    HW159348   9.541   9.079   1.611  1.1989  0.6535 -0.5802
19590SOL    HW259349   9.522   8.977   1.501  0.0119  0.2895 -0.0580
19591SOL     OW59350   3.234   5.437   7.285  0.3211 -0.1486  0.7782
19591SOL    HW159351   3.219   5.458   7.378 -1.0823  0.6206  0.4024
19591SOL    HW259352   3.169   5.489   7.238 -0.3180 -2.0095 -0.5075
19592SOL     OW59353   9.192   3.917   7.375  0.5469 -0.4422 -0.5384
19592SOL    HW159354   9.177   3.823   7.386  0.0189 -0.5597 -2.0703
19592SOL    HW259355   9.263   3.922   7.311  0.3825  0.2116 -0.6729
19593SOL     OW59356   2.811   2.800   5.817  0.1389  0.0683 -0.0597
19593SOL    HW159357   2.764   2.730   5.771 -1.9230  1.1558  0.3225
19593SOL    HW259358   2.828   2.764   5.904 -2.0308  0.4470  0.5596
19594SOL     OW59359   0.772   3.996   1.203 -0.0514  0.2518  0.1584
19594SOL    HW159360   0.824   3.962   1.276  0.5875  0.2259 -0.2993
19594SOL    HW259361   0.770   3.924   1.140 -0.9096  0.1426  0.3028
19595SOL     OW59362   3.795   0.884   3.588  0.0969 -0.6137 -0.5895
19595SOL    HW159363   3.877   0.928   3.565 -0.7598  0.5925 -1.4631
19595SOL    HW259364   3.775   0.915   3.676 -0.1274  0.2034 -0.9210
19596SOL     OW59365   3.352   6.119   3.094  0.2231  0.0649 -0.3072
19596SOL    HW159366   3.281   6.158   3.145  0.2722  0.3190 -0.4291
19596SOL    HW259367   3.403   6.069   3.158 -0.1880 -0.2951 -0.2595
19597SOL     OW59368   1.946   6.619   9.948  0.0541 -0.8393  0.0583
19597SOL    HW159369   2.031   6.584   9.923  0.1196 -1.1780  0.7223
19597SOL    HW259370   1.899   6.544   9.984 -1.1328 -1.0103 -1.7591
19598SOL     OW59371   1.646   7.304   2.555  0.2598  0.3314  0.5876
19598SOL    HW159372   1.616   7.227   2.507  0.5214 -0.1160  1.1383
19598SOL    HW259373   1.664   7.368   2.486 -0.0134 -0.0732  0.1263
19599SOL     OW59374   8.817   4.113   8.548  0.3455 -0.2624 -0.7903
19599SOL    HW159375   8.771   4.197   8.553  1.3506  0.2469  1.2087
19599SOL    HW259376   8.839   4.103   8.455  0.0594  1.6236 -1.1030
19600SOL     OW59377   0.331   7.520   7.074 -0.2097 -0.4409 -0.0325
19600SOL    HW159378   0.365   7.453   7.014  0.4981  1.0985 -1.4356
19600SOL    HW259379   0.236   7.509   7.071 -0.0593 -2.3100  0.9247
19601SOL     OW59380   5.243   6.871   1.317  0.2602 -0.6002  0.0389
19601SOL    HW159381   5.195   6.810   1.373 -0.3994 -0.0526  0.0840
19601SOL    HW259382   5.246   6.952   1.367 -0.1586 -0.1612 -0.6253
19602SOL     OW59383   2.184   8.616   5.388  0.0272 -0.2652 -0.6606
19602SOL    HW159384   2.275   8.592   5.372 -0.0593 -0.4766 -0.8473
19602SOL    HW259385   2.160   8.672   5.314  0.3079  0.6280 -0.0881
19603SOL     OW59386   2.218   3.411   4.975  0.3480 -0.1804  0.3127
19603SOL    HW159387   2.169   3.408   5.057 -2.1283  1.6666 -0.9586
19603SOL    HW259388   2.159   3.372   4.911  0.4704  2.0440 -1.2693
19604SOL     OW59389   5.564   1.971   6.961 -0.0787 -0.2750 -0.2415
19604SOL    HW159390   5.499   1.902   6.946 -0.6199 -0.0714  1.0150
19604SOL    HW259391   5.558   2.027   6.884 -0.7734 -0.7484 -0.5448
19605SOL     OW59392   6.009   0.684   0.237 -0.4160 -0.1595  0.0471
19605SOL    HW159393   6.029   0.610   0.294 -1.3365  0.0151  0.6111
19605SOL    HW259394   5.915   0.677   0.219 -0.5652  0.9687  0.2757
19606SOL     OW59395   1.026   2.905   5.086  0.0575  0.2903 -0.0361
19606SOL    HW159396   1.018   2.917   4.991  0.3038 -1.6890 -0.3343
19606SOL    HW259397   0.936   2.911   5.119  0.0609  1.9657 -0.2183
19607SOL     OW59398   8.362   1.104   7.382  0.2651 -0.2907  0.0930
19607SOL    HW159399   8.401   1.182   7.343  0.1164 -0.7673 -1.0618
19607SOL    HW259400   8.269   1.123   7.389  0.0392 -0.7514 -1.2610
19608SOL     OW59401   2.755   7.125   5.830 -0.0285 -0.2121  0.1671
19608SOL    HW159402   2.804   7.104   5.751  2.6416 -0.8495  1.8429
19608SOL    HW259403   2.700   7.199   5.805  1.4374  0.2386 -2.0227
19609SOL     OW59404   5.880   9.097   8.076  0.1166 -0.2413 -0.0276
19609SOL    HW159405   5.953   9.090   8.138 -0.8691 -0.8423  1.1024
19609SOL    HW259406   5.912   9.158   8.009  1.5759 -0.3350  0.5360
19610SOL     OW59407   9.723   3.814   6.665 -0.1025 -0.1057 -0.2948
19610SOL    HW159408   9.704   3.739   6.721 -0.6588  0.2046 -0.0620
19610SOL    HW259409   9.658   3.880   6.689 -0.1503  0.1503 -1.0782
19611SOL     OW59410   5.048   7.557   0.459 -0.4029  0.1422  0.2263
19611SOL    HW159411   5.077   7.476   0.502 -0.7026 -0.2047 -0.2128
19611SOL    HW259412   4.959   7.539   0.430 -0.8381  0.9915  1.0098
19612SOL     OW59413   5.431   3.050   6.881  0.0719  0.1969  0.3813
19612SOL    HW159414   5.418   3.129   6.935  1.2727  0.1237  0.8151
19612SOL    HW259415   5.438   2.979   6.945 -1.6095 -0.3759 -0.0346
19613SOL     OW59416   4.068   7.830   4.785  0.8867  0.0989 -0.3703
19613SOL    HW159417   4.092   7.911   4.741 -1.9317  0.0918 -2.2016
19613SOL    HW259418   4.057   7.855   4.877  1.9391  1.3369 -0.5550
19614SOL     OW59419   2.311   3.630   2.646 -0.0990 -0.2896  0.2558
19614SOL    HW159420   2.339   3.600   2.559  0.8461 -0.7355  0.7017
19614SOL    HW259421   2.257   3.558   2.679  1.1734 -1.0240  0.8283
19615SOL     OW59422   6.144   5.943   4.178 -0.3183  0.5402  0.0243
19615SOL    HW159423   6.226   5.905   4.148  0.9370  3.8929 -1.2131
19615SOL    HW259424   6.120   5.891   4.255  2.0730 -1.5475 -0.5119
19616SOL     OW59425   0.158   5.257   7.929 -0.0065  0.4423 -0.4071
19616SOL    HW159426   0.170   5.192   7.998 -2.3212 -0.1319 -0.4896
19616SOL    HW259427   0.238   5.250   7.876  0.0030 -2.0672 -0.1830
19617SOL     OW59428   2.891   9.044   7.024 -0.3410  0.1555  0.5817
19617SOL    HW159429   2.976   9.088   7.019 -0.2405  0.1198  1.6918
19617SOL    HW259430   2.834   9.107   7.069 -0.9973  0.2953 -0.3946
19618SOL     OW59431   5.684   8.994   5.321  0.0363  0.7669 -0.1105
19618SOL    HW159432   5.589   9.010   5.316  0.0150  1.1474  1.0709
19618SOL    HW259433   5.715   9.057   5.386  1.6738  2.9535 -2.7879
19619SOL     OW59434   9.202   6.870   0.446  0.2170  0.3127  0.6591
19619SOL    HW159435   9.216   6.885   0.353  2.2045  1.5898  1.1007
19619SOL    HW259436   9.195   6.957   0.485 -2.1973 -0.1924  1.5567
19620SOL     OW59437   2.165   4.783   3.567  0.0023 -0.1400  0.0139
19620SOL    HW159438   2.140   4.713   3.628  2.6040 -1.7673 -0.6108
19620SOL    HW259439   2.108   4.771   3.491 -0.5341 -0.6839  0.4945
19621SOL     OW59440   1.154   2.055   2.311  0.3653 -0.2494 -0.0223
19621SOL    HW159441   1.206   2.091   2.239 -0.2217  0.3197 -0.1797
19621SOL    HW259442   1.157   1.960   2.299  0.8367 -0.1880 -0.3952
19622SOL     OW59443   1.020   8.507   4.608  0.7076 -0.6497 -0.5859
19622SOL    HW159444   1.001   8.473   4.695  0.5375 -0.4724 -0.5539
19622SOL    HW259445   0.996   8.435   4.549  0.4600 -0.6287 -0.5117
19623SOL     OW59446   7.054   9.335   9.701 -0.5609  0.3976 -0.2471
19623SOL    HW159447   6.995   9.400   9.739 -2.0954 -0.4544 -1.0725
19623SOL    HW259448   6.997   9.260   9.681  1.3638 -1.8953  2.1113
19624SOL     OW59449   3.943   9.292   4.075  0.1587  0.3429  0.0507
19624SOL    HW159450   4.005   9.361   4.097 -0.7234  1.1458  0.0701
19624SOL    HW259451   3.860   9.321   4.112 -0.3544 -0.4551 -0.4382
19625SOL     OW59452   2.827   6.606   9.224 -0.0438 -0.8283  0.3397
19625SOL    HW159453   2.922   6.601   9.223  0.1361  1.4813 -0.0004
19625SOL    HW259454   2.800   6.577   9.137  0.4292 -0.5031  0.0839
19626SOL     OW59455   2.506   0.433   5.637 -0.2609  0.3358  0.1190
19626SOL    HW159456   2.596   0.431   5.606 -0.4202 -0.1264 -0.3262
19626SOL    HW259457   2.495   0.521   5.674 -0.1568  1.0128 -1.3990
19627SOL     OW59458   8.077   7.126   2.188  0.0131 -0.3012  0.2239
19627SOL    HW159459   8.096   7.039   2.153 -1.4607 -0.7660  0.4725
19627SOL    HW259460   8.010   7.161   2.129  1.6600  1.3114 -0.7595
19628SOL     OW59461   1.866   4.707   8.720 -0.0472 -0.8757  0.0192
19628SOL    HW159462   1.781   4.665   8.733  0.7372 -1.8689  2.4068
19628SOL    HW259463   1.872   4.771   8.791  1.6104 -1.5770  0.5572
19629SOL     OW59464   5.303   2.539   5.043  0.1609  0.0734 -0.0600
19629SOL    HW159465   5.353   2.489   4.979  0.0104  1.2883 -1.1559
19629SOL    HW259466   5.341   2.627   5.041 -1.1811  0.6852 -0.0011
19630SOL     OW59467   9.623   4.779   7.139  0.2454 -0.0325  0.0621
19630SOL    HW159468   9.713   4.772   7.172  0.0051  0.2378  0.7912
19630SOL    HW259469   9.623   4.858   7.087  0.3891  0.0592  0.1998
19631SOL     OW59470   2.848   3.827   6.640  0.4749 -0.1517 -0.1641
19631SOL    HW159471   2.760   3.862   6.650  0.9457  0.7159  1.2852
19631SOL    HW259472   2.857   3.763   6.711  1.0041 -0.2288 -0.2959
19632SOL     OW59473   1.730   9.434   3.631 -0.3492  0.7064 -0.0832
19632SOL    HW159474   1.745   9.420   3.724  1.5486  0.9366 -0.3120
19632SOL    HW259475   1.654   9.493   3.627  0.5381  2.0089  1.3763
19633SOL     OW59476   3.550   4.195   1.770 -0.4587 -0.0729 -0.1733
19633SOL    HW159477   3.542   4.184   1.675 -0.5099  0.5690 -0.2487
19633SOL    HW259478   3.490   4.267   1.791 -0.1616  0.0431  0.2886
19634SOL     OW59479   2.210   1.146   5.897  0.5460 -0.1973 -0.1366
19634SOL    HW159480   2.159   1.151   5.816 -0.0818 -0.3077  0.2411
19634SOL    HW259481   2.259   1.228   5.900  2.1544 -1.0627 -1.6397
19635SOL     OW59482   9.620   4.879   4.093  0.4212 -0.5049 -0.7502
19635SOL    HW159483   9.643   4.844   4.179  2.9331 -0.2382 -1.2443
19635SOL    HW259484   9.654   4.814   4.031  3.5459  1.7411 -1.6234
19636SOL     OW59485   3.591   0.733   8.448  0.1145 -0.0979 -0.4994
19636SOL    HW159486   3.556   0.822   8.443 -0.1373 -0.1366  0.3537
19636SOL    HW259487   3.678   0.739   8.407  1.3844  1.2632  2.1244
19637SOL     OW59488   1.991   0.591   0.059  0.4152 -0.7036  0.1323
19637SOL    HW159489   1.903   0.606   0.024  1.6312  2.1082 -2.1098
19637SOL    HW259490   2.010   0.670   0.110  2.5157 -0.0282 -1.5684
19638SOL     OW59491   0.144   9.122   0.769  0.5097  0.4435  0.2857
19638SOL    HW159492   0.117   9.207   0.735 -1.8678 -0.4290 -0.2421
19638SOL    HW259493   0.143   9.064   0.693 -1.9626 -0.8893  1.2030
19639SOL     OW59494   5.582   6.118   2.199 -0.1681  0.0254 -0.1267
19639SOL    HW159495   5.593   6.175   2.123 -2.1847 -0.5149 -0.8861
19639SOL    HW259496   5.536   6.172   2.263 -2.5233 -0.7695 -1.0270
19640SOL     OW59497   6.112   6.037   7.845  0.1466  0.0679  0.0750
19640SOL    HW159498   6.021   6.007   7.833  0.9369 -2.5169  0.0307
19640SOL    HW259499   6.104   6.114   7.901 -1.9873 -0.9801  1.3431
19641SOL     OW59500   8.020   9.524   6.705 -0.0699 -0.7820  0.3278
19641SOL    HW159501   7.955   9.464   6.742 -1.6497  0.9965  0.5964
19641SOL    HW259502   7.969   9.584   6.652  1.3867  0.6338  0.4612
19642SOL     OW59503   8.795   7.355   2.477 -0.6460  0.3830  0.0545
19642SOL    HW159504   8.711   7.372   2.436 -1.0658  0.6092  0.9779
19642SOL    HW259505   8.776   7.292   2.546  0.1514 -0.4763 -0.4800
19643SOL     OW59506   0.679   8.873   4.827  0.3183 -0.2920  0.2195
19643SOL    HW159507   0.658   8.966   4.828  0.2786 -0.2859  2.3821
19643SOL    HW259508   0.642   8.841   4.744  1.5728  1.8368 -1.2532
19644SOL     OW59509   1.969   7.792   2.759 -0.0609  0.7588  0.2436
19644SOL    HW159510   1.952   7.793   2.854 -0.2380  0.9083  0.2098
19644SOL    HW259511   1.934   7.708   2.729 -0.0911  0.7533  0.2942
19645SOL     OW59512   6.365   5.337   5.458  0.2880  0.6740 -0.6206
19645SOL    HW159513   6.325   5.274   5.518  1.0720  0.4786 -0.2946
19645SOL    HW259514   6.349   5.300   5.371 -0.5576  0.7889 -0.5277
19646SOL     OW59515   9.379   1.938   0.264  0.0697  0.1478  0.0849
19646SOL    HW159516   9.332   1.855   0.267  1.0099 -0.3793  1.0230
19646SOL    HW259517   9.353   1.977   0.180 -0.9387 -0.7544 -0.0486
19647SOL     OW59518   1.175   0.913   9.134 -0.4477  0.0664  0.5405
19647SOL    HW159519   1.266   0.922   9.162 -0.3158  2.7590 -0.4669
19647SOL    HW259520   1.169   0.962   9.052 -2.6394 -0.7127  0.1452
19648SOL     OW59521   5.434   9.699   5.755  0.6515 -0.1706  0.0044
19648SOL    HW159522   5.366   9.720   5.692  0.8019  0.2077 -0.0290
19648SOL    HW259523   5.495   9.772   5.751  0.5410 -0.0272  0.7576
19649SOL     OW59524   8.008   5.193   3.835 -0.2044  0.3226  0.3017
19649SOL    HW159525   7.940   5.144   3.789  1.9538 -1.6679 -0.9865
19649SOL    HW259526   8.006   5.158   3.924 -0.8774  0.3327  0.3007
19650SOL     OW59527   3.850   5.114   9.189  0.1213  0.5044 -0.1479
19650SOL    HW159528   3.825   5.032   9.230 -0.4029  0.7264 -0.0194
19650SOL    HW259529   3.813   5.109   9.101 -1.8752  1.5365  0.5771
19651SOL     OW59530   0.701   0.630   1.773 -0.7642 -0.4521 -0.1023
19651SOL    HW159531   0.636   0.588   1.828 -0.9198 -2.3810 -1.6176
19651SOL    HW259532   0.785   0.593   1.803 -0.8649 -1.6394 -1.1810
19652SOL     OW59533   5.643   1.296   1.850 -0.1138  0.0645  0.0904
19652SOL    HW159534   5.643   1.262   1.760  0.1047 -1.2254  0.5540
19652SOL    HW259535   5.693   1.377   1.844  0.3848 -0.2859 -0.8627
19653SOL     OW59536   7.659   4.785   2.468  0.5032  0.4146 -0.2699
19653SOL    HW159537   7.649   4.719   2.399 -2.0056  1.0844 -0.6402
19653SOL    HW259538   7.634   4.740   2.548  1.1000  0.2924 -0.1470
19654SOL     OW59539   8.663   7.216   3.259 -0.4160  0.0048  0.6014
19654SOL    HW159540   8.715   7.145   3.220 -1.3797 -0.3506 -0.0832
19654SOL    HW259541   8.572   7.192   3.240 -0.7394  1.7611 -0.2486
19655SOL     OW59542   1.184   1.180   9.806 -0.4384 -0.2121  0.5018
19655SOL    HW159543   1.181   1.261   9.857 -0.6904  0.1692 -0.1122
19655SOL    HW259544   1.097   1.141   9.818  0.2307 -1.2821  2.2026
19656SOL     OW59545   6.981   9.334   7.573  0.1636 -0.4236 -0.0151
19656SOL    HW159546   7.069   9.353   7.539  0.9505 -1.5714  1.3008
19656SOL    HW259547   6.989   9.247   7.612 -1.9396 -1.1750 -1.1293
19657SOL     OW59548   8.903   0.326   4.994  0.8504 -0.7316 -0.1447
19657SOL    HW159549   8.819   0.346   4.953  1.0833 -0.4870 -0.4987
19657SOL    HW259550   8.903   0.378   5.075  0.8630 -0.3688 -0.3780
19658SOL     OW59551   9.739   4.383   8.795  0.1850 -0.1123 -0.3122
19658SOL    HW159552   9.816   4.356   8.845 -0.4751 -0.5573  0.4907
19658SOL    HW259553   9.719   4.308   8.739  1.3414  0.6449 -1.8035
19659SOL     OW59554   5.510   1.866   7.924  0.5124  0.3233  0.3836
19659SOL    HW159555   5.455   1.828   7.856  1.4640  2.0129 -1.4420
19659SOL    HW259556   5.448   1.904   7.987 -0.3982 -2.0799  1.0616
19660SOL     OW59557   4.040   4.686   5.534 -0.3792  0.0670 -0.1378
19660SOL    HW159558   3.954   4.667   5.571 -1.0168  0.2092 -1.4797
19660SOL    HW259559   4.057   4.777   5.559 -1.0738  0.3581 -0.6905
19661SOL     OW59560   1.156   9.361   0.115 -0.0213  0.1449  0.5405
19661SOL    HW159561   1.210   9.289   0.085  0.6999 -0.3391  2.7684
19661SOL    HW259562   1.195   9.387   0.199 -1.9676  1.2001  1.1876
19662SOL     OW59563   9.453   3.264   8.653  0.2329  0.3270  0.6167
19662SOL    HW159564   9.394   3.291   8.582  1.4155  0.4967 -0.3237
19662SOL    HW259565   9.534   3.313   8.637  0.7356 -0.1182  1.7225
19663SOL     OW59566   2.947   7.583   7.043 -0.7257  0.1951  0.2290
19663SOL    HW159567   3.005   7.579   6.967  0.1368  0.9392  0.8271
19663SOL    HW259568   2.897   7.501   7.039  2.0083 -1.6454  0.9969
19664SOL     OW59569   0.203   6.344   8.975 -0.0993 -0.0882 -0.0740
19664SOL    HW159570   0.289   6.334   9.015  0.8065 -0.6422 -2.0729
19664SOL    HW259571   0.168   6.255   8.971 -0.0151 -0.0939 -0.8212
19665SOL     OW59572   8.035   1.662   5.610  0.0053 -0.6243  0.1343
19665SOL    HW159573   8.042   1.568   5.594  0.9100 -0.0397 -4.0715
19665SOL    HW259574   8.066   1.673   5.699 -0.9065 -4.3375  1.1000
19666SOL     OW59575   4.160   5.189   4.401  0.0236  0.2647 -0.0629
19666SOL    HW159576   4.193   5.246   4.332  0.3052  2.6883  1.9198
19666SOL    HW259577   4.235   5.174   4.458 -0.8411  0.9197  1.3233
19667SOL     OW59578   1.007   2.384   1.861  0.0554 -0.4268  0.4709
19667SOL    HW159579   0.979   2.407   1.772  0.1731 -0.0464  0.5281
19667SOL    HW259580   1.027   2.291   1.856  0.3026 -0.3553  0.0301
19668SOL     OW59581   7.061   7.316   7.848 -0.1344 -0.5807  0.2178
19668SOL    HW159582   7.155   7.331   7.842  0.1790 -2.3937  0.0709
19668SOL    HW259583   7.030   7.318   7.758 -0.1717 -0.3482  0.2362
19669SOL     OW59584   5.588   2.688   2.649 -0.0989 -0.2330 -0.1311
19669SOL    HW159585   5.617   2.770   2.691 -2.2842  0.4548  0.1364
19669SOL    HW259586   5.658   2.668   2.587 -0.3785  2.9543 -1.6535
19670SOL     OW59587   0.646   4.213   5.938  0.2359  0.1468 -0.4502
19670SOL    HW159588   0.572   4.207   5.999  0.3599  0.4147 -0.2651
19670SOL    HW259589   0.614   4.174   5.857  0.7376 -2.1737  0.3867
19671SOL     OW59590   1.831   8.153   1.608 -0.0190  0.2581 -0.1588
19671SOL    HW159591   1.899   8.218   1.587  0.2409  0.0439  0.0214
19671SOL    HW259592   1.847   8.081   1.547  0.5285 -0.2191  0.5346
19672SOL     OW59593   9.570   1.230   4.015  0.6724  0.2481 -0.1019
19672SOL    HW159594   9.524   1.161   4.062  1.1774  0.1408  0.2377
19672SOL    HW259595   9.578   1.301   4.079 -0.3484  0.8505 -0.6177
19673SOL     OW59596   3.952   3.686   1.601 -0.0753  0.5822  0.5356
19673SOL    HW159597   3.897   3.619   1.641  0.7504  0.1763  1.0213
19673SOL    HW259598   3.956   3.661   1.508  2.2012 -1.5471  1.0707
19674SOL     OW59599   0.450   8.894   3.308 -0.4493  0.3589 -0.4191
19674SOL    HW159600   0.496   8.907   3.391  0.7083  1.8943 -1.2610
19674SOL    HW259601   0.519   8.876   3.244 -1.2892 -0.3797 -1.1503
19675SOL     OW59602   9.923   0.334   9.746 -0.4913  0.5158 -0.0735
19675SOL    HW159603   9.946   0.293   9.663 -0.0455  3.5938 -1.6194
19675SOL    HW259604  10.007   0.362   9.783 -0.8376  1.1336  0.2682
19676SOL     OW59605   3.079   5.649   0.424 -0.5198  0.0283  0.6518
19676SOL    HW159606   3.064   5.554   0.424 -1.2397  0.1019  2.0793
19676SOL    HW259607   3.174   5.658   0.415 -0.6362 -0.6822 -2.5745
19677SOL     OW59608   7.199   1.849   3.528 -0.2055 -0.5823  0.2711
19677SOL    HW159609   7.131   1.805   3.477 -0.9047 -0.4272  1.0510
19677SOL    HW259610   7.151   1.897   3.596  0.6980 -0.7772  1.0696
19678SOL     OW59611   6.527   5.539   0.780 -0.5505 -0.2695 -0.1101
19678SOL    HW159612   6.532   5.443   0.777 -0.1299 -0.3255  1.5093
19678SOL    HW259613   6.596   5.565   0.841  1.0858  1.2704 -2.4228
19679SOL     OW59614   3.126   6.709   3.165 -0.4729 -0.2200  0.0145
19679SOL    HW159615   3.032   6.709   3.184 -1.1090  2.8889 -2.1858
19679SOL    HW259616   3.163   6.772   3.227 -0.4361  0.8491 -1.0564
19680SOL     OW59617   0.284   6.391   8.052  0.0679 -0.3087 -0.2706
19680SOL    HW159618   0.249   6.416   8.138 -0.2165 -0.2819 -0.3929
19680SOL    HW259619   0.375   6.422   8.054 -0.3928  1.1623 -0.5831
19681SOL     OW59620   6.106   5.716   4.441 -0.3048 -0.0008  0.1480
19681SOL    HW159621   6.078   5.766   4.518 -0.0169 -0.6639  0.6976
19681SOL    HW259622   6.199   5.737   4.431 -0.1658 -0.4598  0.4210
19682SOL     OW59623   0.849   9.236   7.837  0.2544  0.7508 -0.3143
19682SOL    HW159624   0.925   9.240   7.895 -0.4694  1.1143  0.6454
19682SOL    HW259625   0.865   9.302   7.770  1.4021 -0.1137 -0.9177
19683SOL     OW59626   1.672   7.020   5.919 -0.0151 -0.3333 -0.1142
19683SOL    HW159627   1.601   7.038   5.858  1.5708 -0.1070 -2.0039
19683SOL    HW259628   1.694   7.106   5.956  0.6645 -0.0335 -1.1729
19684SOL     OW59629   6.769   6.959   1.635  0.0669  0.0872 -0.0350
19684SOL    HW159630   6.771   6.914   1.551 -0.8768 -0.1494  0.0550
19684SOL    HW259631   6.779   6.890   1.700 -2.3585 -0.1952  0.1403
19685SOL     OW59632   2.914   8.070   7.896  0.1143 -0.3037 -0.2053
19685SOL    HW159633   2.868   7.989   7.873 -2.7765  0.6573  1.6285
19685SOL    HW259634   2.988   8.042   7.949 -0.7853 -1.7619  0.3235
19686SOL     OW59635   7.692   9.526   7.888 -0.1718 -0.1285 -0.0883
19686SOL    HW159636   7.761   9.513   7.823 -0.1899 -1.8481  0.1911
19686SOL    HW259637   7.610   9.514   7.840 -0.2212 -0.2528  0.0268
19687SOL     OW59638   8.357   1.768   1.798 -0.3183 -0.2410  0.1570
19687SOL    HW159639   8.375   1.836   1.733 -1.1473 -0.8500 -0.7421
19687SOL    HW259640   8.442   1.724   1.811 -0.1478 -0.1171 -0.5183
19688SOL     OW59641   2.736   0.276   6.464 -0.6719  0.3147 -0.7263
19688SOL    HW159642   2.659   0.333   6.473  1.0097  2.4449  1.2502
19688SOL    HW259643   2.705   0.203   6.410 -3.9798  1.2125 -0.2560
19689SOL     OW59644   9.209   8.196   8.262  0.2930 -0.0715  0.1788
19689SOL    HW159645   9.121   8.232   8.251  0.1324 -0.8363 -1.2926
19689SOL    HW259646   9.206   8.151   8.346 -0.9860 -0.7655 -0.2046
19690SOL     OW59647   7.988   7.401   6.186  0.5439 -0.0923  0.3291
19690SOL    HW159648   7.955   7.323   6.231  1.5043 -0.9183 -0.3498
19690SOL    HW259649   7.962   7.389   6.095  1.1379  0.1238  0.1248
19691SOL     OW59650   9.939   2.355   3.870  0.4946  0.5099 -0.3074
19691SOL    HW159651   9.896   2.338   3.787 -0.0016  1.0259 -0.1620
19691SOL    HW259652  10.030   2.328   3.856  0.0324 -1.1115 -0.4438
19692SOL     OW59653   6.825   8.070   1.383  0.3026  0.4446  0.5179
19692SOL    HW159654   6.899   8.083   1.324 -0.6826 -2.0483 -1.5001
19692SOL    HW259655   6.781   8.155   1.386  0.9671  0.9375 -1.6232
19693SOL     OW59656   4.562   8.113   2.400  0.3762 -0.3059 -0.6834
19693SOL    HW159657   4.528   8.202   2.393  1.6786  0.0972 -2.9834
19693SOL    HW259658   4.566   8.081   2.310  1.2912 -2.1583 -0.0492
19694SOL     OW59659   6.187   9.050   1.747  0.2749 -0.0056  0.7933
19694SOL    HW159660   6.189   9.078   1.838 -1.5553  2.7397  0.1043
19694SOL    HW259661   6.186   9.132   1.697 -1.4478 -1.3580 -1.5921
19695SOL     OW59662   7.577   9.320   5.907  0.0949 -0.4111  0.3879
19695SOL    HW159663   7.490   9.352   5.931 -0.0693 -0.4640 -0.1295
19695SOL    HW259664   7.594   9.248   5.969  0.3502  0.4701  1.3729
19696SOL     OW59665   0.661   7.309   7.039 -0.0877 -0.3126 -0.4065
19696SOL    HW159666   0.650   7.322   7.134  0.2608 -1.5412 -0.1797
19696SOL    HW259667   0.743   7.354   7.018 -0.1915  0.0075 -0.1382
19697SOL     OW59668   2.894   6.117   1.912 -0.3704 -0.1705 -0.2455
19697SOL    HW159669   2.951   6.194   1.902  0.2133 -0.6999 -1.1188
19697SOL    HW259670   2.899   6.095   2.005  0.1294  0.3444 -0.1437
19698SOL     OW59671   5.751   7.221   2.198  0.1069  0.0507 -0.4936
19698SOL    HW159672   5.681   7.205   2.261 -0.8240  0.7503 -1.3176
19698SOL    HW259673   5.736   7.311   2.168  1.2267  0.1341 -0.8627
19699SOL     OW59674   4.523   0.223   3.670  0.0428  0.2935 -0.6844
19699SOL    HW159675   4.516   0.312   3.705 -0.3370 -0.3946  1.1105
19699SOL    HW259676   4.432   0.191   3.668  0.3677 -0.9819  1.3958
19700SOL     OW59677   4.505   4.038   3.121 -0.4805  0.0696 -0.1708
19700SOL    HW159678   4.501   4.038   3.026  1.2741 -1.8052 -0.2962
19700SOL    HW259679   4.572   4.104   3.142  1.0559 -1.3565 -0.4151
19701SOL     OW59680   0.677   7.780   1.184  0.2351 -0.1553  0.0613
19701SOL    HW159681   0.662   7.839   1.110  0.5759  1.0698  0.9373
19701SOL    HW259682   0.768   7.753   1.175  0.4382  0.4244  0.3184
19702SOL     OW59683   2.209   9.474   0.069 -0.1101  0.2967  0.0564
19702SOL    HW159684   2.186   9.566   0.053 -2.7553 -0.4498 -0.9511
19702SOL    HW259685   2.128   9.435   0.102  0.5439 -1.9733 -0.8540
19703SOL     OW59686   8.684   8.291   8.144 -0.6099 -0.6803  0.4138
19703SOL    HW159687   8.754   8.303   8.208  0.6076 -0.5607 -0.8851
19703SOL    HW259688   8.615   8.353   8.172  0.8556  1.0815  0.3090
19704SOL     OW59689   6.907   7.557   7.606  0.0771  0.6816 -0.1084
19704SOL    HW159690   6.919   7.469   7.571  1.2330  0.5329  0.6255
19704SOL    HW259691   6.814   7.561   7.630 -0.2591  0.0865 -1.2272
19705SOL     OW59692   4.678   0.837   1.192 -0.5797 -0.0962 -0.2474
19705SOL    HW159693   4.713   0.886   1.267 -0.0242 -1.4387  0.4050
19705SOL    HW259694   4.584   0.834   1.207 -0.7644  1.6094 -0.8361
19706SOL     OW59695   6.175   1.673   0.576 -0.3100  0.4579 -0.1646
19706SOL    HW159696   6.201   1.760   0.547  0.8531  0.7765  1.7031
19706SOL    HW259697   6.105   1.688   0.639  0.2800  0.0963  0.5932
19707SOL     OW59698   6.251   6.025   4.830  0.1242  0.0148 -0.3644
19707SOL    HW159699   6.320   6.007   4.893  1.6989 -2.5573 -2.5984
19707SOL    HW259700   6.292   6.083   4.765 -0.5602  0.3259 -0.5339
19708SOL     OW59701   9.148   8.669   6.722  0.3003  0.4730  0.0497
19708SOL    HW159702   9.109   8.705   6.643  1.1251 -0.6092 -0.8706
19708SOL    HW259703   9.159   8.576   6.704  0.1932  0.1299  1.5746
19709SOL     OW59704   7.749   0.279   7.365 -0.4424  0.7566 -0.1618
19709SOL    HW159705   7.721   0.215   7.430  0.0709 -0.3830 -1.0268
19709SOL    HW259706   7.695   0.260   7.288 -0.9773  2.0243 -0.1225
19710SOL     OW59707   6.635   4.561   4.766  0.4892  0.1271 -0.3414
19710SOL    HW159708   6.699   4.581   4.698  0.6734 -0.5319 -0.3662
19710SOL    HW259709   6.621   4.467   4.759  1.3569 -0.1547  1.2609
19711SOL     OW59710   6.088   3.293   9.454 -0.0797 -0.3093 -0.0125
19711SOL    HW159711   6.150   3.224   9.477  0.0544 -0.4894 -0.8478
19711SOL    HW259712   6.091   3.296   9.358 -1.0134 -0.0027 -0.0462
19712SOL     OW59713   7.606   8.769   6.278 -0.2791  0.0723  0.2800
19712SOL    HW159714   7.658   8.719   6.340 -0.0900  0.0433  0.1006
19712SOL    HW259715   7.538   8.709   6.249 -0.2816  0.0407  0.3497
19713SOL     OW59716   2.283   4.435   5.099 -0.7224 -0.2713  0.0093
19713SOL    HW159717   2.236   4.352   5.087 -0.2243 -0.3569 -1.6917
19713SOL    HW259718   2.375   4.411   5.099 -0.6049  0.1068  1.4031
19714SOL     OW59719   3.055   7.863   8.428  0.2179 -0.3564  0.2076
19714SOL    HW159720   3.012   7.783   8.399 -0.4804 -0.4238  1.3623
19714SOL    HW259721   3.118   7.834   8.494  1.2318 -0.1266 -0.6256
19715SOL     OW59722   3.728   0.161   6.964 -0.3014 -0.2305  0.2668
19715SOL    HW159723   3.712   0.158   6.870 -1.4226  0.3952  0.4122
19715SOL    HW259724   3.657   0.109   7.002 -1.8335  2.1814  0.9289
19716SOL     OW59725   1.917   0.699   1.369 -0.3016  0.2334 -0.6242
19716SOL    HW159726   1.877   0.613   1.380  0.1906 -0.0520 -1.0132
19716SOL    HW259727   1.931   0.730   1.459  1.4903 -1.0358 -0.4047
19717SOL     OW59728   0.356   0.450   2.151  0.2539  0.3052  0.4147
19717SOL    HW159729   0.392   0.430   2.237  2.6430  0.2068 -0.5298
19717SOL    HW259730   0.323   0.539   2.159 -2.2263 -0.6502  2.1525
19718SOL     OW59731   4.244   7.455   7.857 -0.4317 -0.5056 -0.5170
19718SOL    HW159732   4.262   7.549   7.860  0.4753 -0.6808  0.8861
19718SOL    HW259733   4.245   7.433   7.764  2.2075  0.4057 -0.7980
19719SOL     OW59734   5.485   4.419   3.931 -0.0065  0.6548  0.1535
19719SOL    HW159735   5.411   4.420   3.869  0.6365  0.1329 -0.6446
19719SOL    HW259736   5.459   4.481   3.999 -1.3302  0.2288  0.0707
19720SOL     OW59737   7.208   1.526   2.939  0.1913  0.3649  0.0739
19720SOL    HW159738   7.153   1.572   3.003 -1.0106  0.2028 -0.8154
19720SOL    HW259739   7.298   1.543   2.968 -0.3091  0.8153  1.4387
19721SOL     OW59740   2.332   0.740   7.884 -0.4456  0.4364 -0.0547
19721SOL    HW159741   2.352   0.807   7.950 -1.6762  0.0737  0.7444
19721SOL    HW259742   2.394   0.670   7.902  0.0240  0.8449 -0.0665
19722SOL     OW59743   8.628   5.904   5.674 -0.0732 -0.1304  0.1368
19722SOL    HW159744   8.653   5.986   5.718 -0.8043 -0.4398  1.1578
19722SOL    HW259745   8.695   5.893   5.606 -0.3109  1.6403 -0.4491
19723SOL     OW59746   2.111   4.265   4.645 -0.4455 -0.1720  0.3742
19723SOL    HW159747   2.173   4.327   4.606  0.2479  0.5686  2.4820
19723SOL    HW259748   2.029   4.281   4.599 -0.0271  1.6053  0.1737
19724SOL     OW59749   1.442   2.830   5.533 -0.6968 -0.4779  0.2913
19724SOL    HW159750   1.456   2.925   5.536  1.5497 -0.7383 -0.2152
19724SOL    HW259751   1.428   2.811   5.440  1.2627 -0.8723  0.0264
19725SOL     OW59752   1.507  -0.004   8.373 -0.2287 -0.5245  0.4321
19725SOL    HW159753   1.474   0.032   8.455  0.9862 -0.3705  0.8734
19725SOL    HW259754   1.428  -0.022   8.321 -0.9622  0.4007  1.1897
19726SOL     OW59755   8.067   5.878   8.911 -0.4332  0.2693 -0.0777
19726SOL    HW159756   8.068   5.930   8.991  1.0312 -1.7448  1.3126
19726SOL    HW259757   8.070   5.943   8.840 -0.3736  2.0833  1.5118
19727SOL     OW59758   2.013   3.261   9.572 -0.0875 -0.0327 -0.1983
19727SOL    HW159759   2.102   3.230   9.586 -0.2975  0.3819  2.7973
19727SOL    HW259760   2.019   3.356   9.584 -0.7916  0.1098 -0.9132
19728SOL     OW59761   1.756   7.622   8.118  0.3704 -0.4625  0.0679
19728SOL    HW159762   1.691   7.679   8.078  1.9430  0.8321 -0.7732
19728SOL    HW259763   1.796   7.675   8.187  1.7005 -0.5795 -0.5688
19729SOL     OW59764   2.326   9.225   1.601  0.7350  0.2438 -0.6706
19729SOL    HW159765   2.315   9.288   1.672 -1.1230  0.8957 -1.4723
19729SOL    HW259766   2.399   9.170   1.629  0.6784  1.0743  1.2803
19730SOL     OW59767   6.462   9.748   3.551 -0.2509 -0.3846  0.0461
19730SOL    HW159768   6.527   9.785   3.610 -1.6136  1.0472  0.7377
19730SOL    HW259769   6.450   9.658   3.580  0.6382 -0.3485  0.5616
19731SOL     OW59770   4.116   4.644   7.508  0.2348 -0.0756  0.3782
19731SOL    HW159771   4.144   4.703   7.578  0.9235 -1.6160  1.4548
19731SOL    HW259772   4.183   4.577   7.505 -1.2376 -1.5973  0.1697
19732SOL     OW59773   5.899   2.625   7.531 -0.8019 -0.0845  0.4891
19732SOL    HW159774   5.855   2.540   7.528  1.7579 -1.4559 -0.8383
19732SOL    HW259775   5.982   2.607   7.576 -0.4801  1.8874  0.7619
19733SOL     OW59776   3.063   0.942   7.244  0.6284  0.2582  0.2910
19733SOL    HW159777   3.035   1.030   7.269  1.1661  0.3806  0.4782
19733SOL    HW259778   3.012   0.884   7.301  1.2885  0.5056  1.1550
19734SOL     OW59779   9.505   1.610   2.025  0.0914  0.0962 -0.5023
19734SOL    HW159780   9.479   1.685   2.078 -2.6680 -0.8897 -0.3241
19734SOL    HW259781   9.554   1.554   2.085 -2.5604 -0.7708  1.0002
19735SOL     OW59782   9.351   1.579   6.808  0.1232 -0.2584 -0.4622
19735SOL    HW159783   9.268   1.626   6.796  0.2792 -0.5952 -3.9839
19735SOL    HW259784   9.326   1.487   6.815  0.1278 -0.3379 -1.3105
19736SOL     OW59785   0.699   1.388   6.710  0.6381 -0.2227 -0.0061
19736SOL    HW159786   0.781   1.418   6.749  0.6826 -2.3569  1.7231
19736SOL    HW259787   0.632   1.414   6.773  0.1932 -0.1209 -0.5134
19737SOL     OW59788   7.298   9.717   3.056  0.1205 -0.3380  0.0041
19737SOL    HW159789   7.258   9.631   3.067  1.0348 -0.7505  0.2230
19737SOL    HW259790   7.238   9.778   3.101 -0.1064 -0.9733  0.5769
19738SOL     OW59791   1.142   5.305   8.009 -0.8327  0.4249  0.1097
19738SOL    HW159792   1.093   5.280   7.930 -1.2993  0.1333  0.4795
19738SOL    HW259793   1.074   5.333   8.071 -0.6810 -1.2513  1.1065
19739SOL     OW59794   5.257   8.675   8.435 -0.6114 -0.1999  0.4986
19739SOL    HW159795   5.192   8.629   8.382 -0.3977 -1.5616  1.3783
19739SOL    HW259796   5.221   8.674   8.523 -0.0416  0.2968  0.7454
19740SOL     OW59797   5.468   6.400  -0.012  0.2235  0.1032 -0.1014
19740SOL    HW159798   5.377   6.418   0.011 -0.4991 -3.2280  0.0815
19740SOL    HW259799   5.515   6.406   0.071 -0.1231  0.1628  0.0949
19741SOL     OW59800   6.412   4.555   9.087  0.5326 -0.6081  0.0833
19741SOL    HW159801   6.384   4.617   9.154  0.3374 -0.0053 -0.5449
19741SOL    HW259802   6.412   4.605   9.006  3.3623 -0.5980 -0.0098
19742SOL     OW59803   0.158   9.461   9.743  0.2761 -0.9350 -0.3885
19742SOL    HW159804   0.234   9.434   9.691 -0.1394 -0.8800 -1.0346
19742SOL    HW259805   0.094   9.491   9.679  0.0814 -0.0134  0.2087
19743SOL     OW59806   7.851   7.817   9.031 -0.0700  0.3330 -0.2764
19743SOL    HW159807   7.759   7.844   9.030 -0.2346 -0.0731  1.3864
19743SOL    HW259808   7.871   7.802   9.123  0.9810 -1.8776 -0.7812
19744SOL     OW59809   8.780   6.254   3.802  0.0021 -0.0704  0.7668
19744SOL    HW159810   8.700   6.305   3.809  1.5187  2.5628  0.2821
19744SOL    HW259811   8.775   6.192   3.875 -3.6809 -2.0350 -0.8660
19745SOL     OW59812   7.320   7.396   9.494 -0.1953 -0.1770  0.0684
19745SOL    HW159813   7.289   7.485   9.477  0.9292  0.4289  1.0341
19745SOL    HW259814   7.370   7.374   9.415 -0.9367 -0.1784 -0.4107
19746SOL     OW59815   6.761   3.020   8.978 -0.1174  0.0714  0.1661
19746SOL    HW159816   6.756   2.967   8.898 -0.7477 -0.9515  0.8600
19746SOL    HW259817   6.670   3.037   9.001  0.0471  0.0167  0.8858
19747SOL     OW59818   7.953   4.971   2.988  0.2621  0.2310 -0.1939
19747SOL    HW159819   7.933   5.010   3.073  2.3543  2.6218 -0.6655
19747SOL    HW259820   7.922   5.035   2.924  1.9120  0.1958 -1.0919
19748SOL     OW59821   6.610   8.251   9.162 -0.4303  0.0002 -0.0248
19748SOL    HW159822   6.561   8.327   9.192 -0.3700  0.0142  0.0380
19748SOL    HW259823   6.591   8.183   9.226  0.5602  0.3405  0.6681
19749SOL     OW59824   4.838   2.332   4.234 -0.1636  0.5029 -0.3485
19749SOL    HW159825   4.802   2.370   4.154  0.4411  1.9833  0.0403
19749SOL    HW259826   4.930   2.360   4.235  0.2811 -0.8707  0.0584
19750SOL     OW59827   0.027   4.316   4.514 -0.0276 -0.7790  0.2178
19750SOL    HW159828   0.095   4.337   4.450 -2.1057  1.0513 -1.5782
19750SOL    HW259829   0.060   4.240   4.560  2.9230 -0.3634 -0.9879
19751SOL     OW59830   1.125   9.582   2.292 -0.2358  0.3393 -0.3894
19751SOL    HW159831   1.087   9.504   2.333  0.0090 -0.1388 -1.0539
19751SOL    HW259832   1.212   9.554   2.264 -0.8291  0.2919 -2.2999
19752SOL     OW59833   2.222   7.763   9.088  0.4541  0.1108 -0.5320
19752SOL    HW159834   2.286   7.812   9.037  0.4329  0.0623 -0.6040
19752SOL    HW259835   2.201   7.687   9.034  0.4451  0.0504 -0.4444
19753SOL     OW59836   3.773   5.608   4.110  0.0940  0.3181  0.0644
19753SOL    HW159837   3.707   5.568   4.053  0.2147 -2.1115  1.4585
19753SOL    HW259838   3.726   5.673   4.161 -0.7592  0.0538 -0.3724
19754SOL     OW59839   6.284   2.063   6.207 -0.1871 -0.2436  0.9615
19754SOL    HW159840   6.354   2.033   6.148  0.8242  1.0769  1.4501
19754SOL    HW259841   6.328   2.076   6.291 -1.0107  0.6805  1.2581
19755SOL     OW59842   6.263   9.193   5.892  0.0756 -0.9271  0.2024
19755SOL    HW159843   6.265   9.248   5.813  0.0704 -1.8452 -0.4476
19755SOL    HW259844   6.344   9.214   5.938  0.1830 -0.5513 -0.1582
19756SOL     OW59845   8.667   2.424   9.535  0.0900 -0.1960  0.1494
19756SOL    HW159846   8.691   2.500   9.588  0.4581  0.3912 -0.8442
19756SOL    HW259847   8.677   2.453   9.445  1.3652 -1.7710 -0.2599
19757SOL     OW59848   4.346   0.839   4.599  0.3942  0.1390  0.6336
19757SOL    HW159849   4.376   0.758   4.640  2.8131  0.4646 -0.3248
19757SOL    HW259850   4.415   0.902   4.617 -0.2575  1.3006 -0.7489
19758SOL     OW59851   7.095   4.444   3.297  0.5106  0.4569 -0.0353
19758SOL    HW159852   7.082   4.535   3.269 -1.9035  0.2261  0.1375
19758SOL    HW259853   7.138   4.402   3.223 -1.3898  0.9960 -1.5147
19759SOL     OW59854   0.095  -0.005   1.308 -0.2692  0.2380 -0.5125
19759SOL    HW159855   0.119   0.087   1.315  0.1360  0.0105  1.6808
19759SOL    HW259856   0.161  -0.052   1.358 -2.6417 -0.8187  1.9130
19760SOL     OW59857   6.547   6.810   7.619 -0.0698 -0.7316 -0.0003
19760SOL    HW159858   6.518   6.862   7.694  0.4454 -0.2864 -0.1076
19760SOL    HW259859   6.529   6.719   7.644 -1.9184 -0.4702 -0.2167
19761SOL     OW59860   6.704   2.667   6.006  0.2183 -0.4442 -0.0380
19761SOL    HW159861   6.648   2.742   6.025  0.1244 -0.2612 -0.9923
19761SOL    HW259862   6.649   2.590   6.025 -0.7008 -0.2803 -1.7905
19762SOL     OW59863   3.780   1.614   6.989  0.1444  0.2723 -0.7473
19762SOL    HW159864   3.825   1.585   7.069 -0.3557  0.2210 -0.4827
19762SOL    HW259865   3.815   1.701   6.972  2.2608 -0.7314 -1.9937
19763SOL     OW59866   1.458   4.471   7.214  0.1900  0.4726  0.4196
19763SOL    HW159867   1.418   4.547   7.257  1.2041 -0.3573  3.0844
19763SOL    HW259868   1.499   4.423   7.286  0.1245 -2.2825 -1.2509
19764SOL     OW59869   1.557   3.884   9.716  0.1460  0.1957  0.2354
19764SOL    HW159870   1.636   3.835   9.696  0.5246  1.0170 -0.3442
19764SOL    HW259871   1.584   3.976   9.718 -0.9103  0.5620 -0.7246
19765SOL     OW59872   5.893   9.634   4.173 -0.3498  0.1333  0.4696
19765SOL    HW159873   5.923   9.687   4.099  0.2105  0.8640  1.1880
19765SOL    HW259874   5.820   9.583   4.139 -0.3093  0.7013 -0.4947
19766SOL     OW59875   7.867   5.671   7.542 -0.0426  0.3047  0.0860
19766SOL    HW159876   7.873   5.765   7.561  2.4028 -0.0097  1.1996
19766SOL    HW259877   7.788   5.643   7.588 -0.4901  1.7067  0.2319
19767SOL     OW59878   4.497   3.654   5.334  0.1862 -0.2184  0.1283
19767SOL    HW159879   4.404   3.663   5.354 -0.1262 -0.3105 -1.2343
19767SOL    HW259880   4.500   3.608   5.251  1.4516 -0.0935  0.0827
19768SOL     OW59881   2.594   1.032   7.542  0.3615  0.3892 -0.7029
19768SOL    HW159882   2.587   1.009   7.449  0.9044  3.0204 -1.4830
19768SOL    HW259883   2.643   0.960   7.581 -3.2585 -2.8182 -1.5238
19769SOL     OW59884   4.413   1.201   7.828  0.1740 -0.0792 -0.3871
19769SOL    HW159885   4.508   1.207   7.823  0.1097  0.9732 -0.4711
19769SOL    HW259886   4.396   1.175   7.919  0.5512 -0.8896 -0.5333
19770SOL     OW59887   2.905   7.934   4.473  0.1172 -0.1572 -0.1345
19770SOL    HW159888   2.946   8.017   4.496 -0.4195 -0.0139  0.3298
19770SOL    HW259889   2.931   7.919   4.382 -1.7267  1.7178 -1.0538
19771SOL     OW59890   8.022   7.730   4.772  0.3617  0.1063  0.1183
19771SOL    HW159891   8.017   7.766   4.684  0.9757  1.3247  0.5711
19771SOL    HW259892   8.098   7.672   4.770 -0.4417 -0.9666 -0.5195
19772SOL     OW59893   8.132   6.373   7.915  0.0611  0.5987 -0.0914
19772SOL    HW159894   8.110   6.383   7.823  0.7208  1.1240 -0.1999
19772SOL    HW259895   8.228   6.365   7.917  0.2563  2.4872  0.6708
19773SOL     OW59896   5.378   3.270   1.762  1.0520 -0.3191  0.4284
19773SOL    HW159897   5.302   3.294   1.710  0.8197 -1.3703  0.2470
19773SOL    HW259898   5.448   3.327   1.732  0.0451  1.5504  1.4817
19774SOL     OW59899   5.374   5.727   9.401 -0.2038 -0.2474 -0.2242
19774SOL    HW159900   5.401   5.672   9.327 -1.2830  0.1809 -0.9603
19774SOL    HW259901   5.426   5.807   9.391  0.1217 -0.4458 -0.1394
19775SOL     OW59902   5.917   1.150   6.888 -0.2546 -0.2770  0.0202
19775SOL    HW159903   5.839   1.201   6.865 -1.7172 -2.6878 -0.6925
19775SOL    HW259904   5.916   1.076   6.828  1.8694 -1.1074  0.9105
19776SOL     OW59905   7.489   0.413   1.413 -0.0946  0.2863  0.3536
19776SOL    HW159906   7.449   0.347   1.356 -1.0165  0.7874  0.4144
19776SOL    HW259907   7.418   0.443   1.470 -0.0826  2.3899 -0.6435
19777SOL     OW59908   3.720   3.259   5.637 -0.2757  0.2114  0.0784
19777SOL    HW159909   3.721   3.235   5.729  0.8963 -0.4166 -0.0727
19777SOL    HW259910   3.768   3.189   5.593  1.1297  1.5984 -0.7106
19778SOL     OW59911   6.708   7.021   5.666 -0.3287  0.0839  0.0147
19778SOL    HW159912   6.779   6.969   5.628 -0.1465  1.0117 -0.9715
19778SOL    HW259913   6.741   7.049   5.751 -0.7538 -2.0705  0.9435
19779SOL     OW59914   2.971   9.258   8.168 -0.6261  0.0609  0.1218
19779SOL    HW159915   2.904   9.283   8.231 -2.1962 -2.5848 -0.3345
19779SOL    HW259916   2.948   9.168   8.144  1.1858  0.2203 -2.5757
19780SOL     OW59917   6.890   8.637   3.888  0.1997  0.0216 -0.4195
19780SOL    HW159918   6.936   8.573   3.944  2.5485  0.9859 -1.1175
19780SOL    HW259919   6.882   8.715   3.943 -2.0557 -0.5559  0.1956
19781SOL     OW59920   9.303   0.936   1.189 -0.2606 -0.4122 -0.5995
19781SOL    HW159921   9.368   0.874   1.223 -0.2561  0.1178  0.4246
19781SOL    HW259922   9.245   0.953   1.264 -1.0641 -0.2108 -1.2491
19782SOL     OW59923   1.367   7.327   8.496  0.6324  0.4884  0.0645
19782SOL    HW159924   1.308   7.373   8.437  2.1749  0.5057 -1.5316
19782SOL    HW259925   1.427   7.395   8.528  1.2277  0.0698 -0.1565
19783SOL     OW59926   7.796   9.070   2.010 -0.7349  0.4336  0.3241
19783SOL    HW159927   7.725   9.016   2.046 -0.4161 -0.3802 -0.2582
19783SOL    HW259928   7.792   9.151   2.061 -0.7292 -0.4249  1.7388
19784SOL     OW59929   0.611   5.433   9.034  0.4753 -0.7528  0.0077
19784SOL    HW159930   0.528   5.404   9.073  0.2795 -0.5476 -0.2606
19784SOL    HW259931   0.620   5.380   8.954  0.7833 -1.0352  0.2221
19785SOL     OW59932   7.201   8.951   7.454  0.1038 -0.0415  0.0404
19785SOL    HW159933   7.245   8.913   7.378  2.3798  1.1233  0.6898
19785SOL    HW259934   7.190   9.043   7.430  1.1676  0.4171  1.2065
19786SOL     OW59935   3.510   2.649   5.729  0.2567  0.2533 -0.1506
19786SOL    HW159936   3.448   2.691   5.789  0.3288  1.8582 -1.1534
19786SOL    HW259937   3.485   2.557   5.731 -1.6593  0.7302  0.0879
19787SOL     OW59938   5.051   0.087   4.993 -0.2406  0.3058  0.8225
19787SOL    HW159939   4.961   0.073   5.024 -0.6553 -0.4367 -0.6511
19787SOL    HW259940   5.045   0.082   4.898  1.4526 -0.2505  0.7162
19788SOL     OW59941   2.630   2.239   6.446 -0.2333  0.0637  0.3694
19788SOL    HW159942   2.662   2.207   6.531  0.8925 -0.3784 -0.1942
19788SOL    HW259943   2.620   2.160   6.393 -1.3674  0.2944  0.2145
19789SOL     OW59944   6.579   9.242   3.405  0.0196 -0.1981  0.2672
19789SOL    HW159945   6.578   9.200   3.320 -1.2263 -1.7817  1.0095
19789SOL    HW259946   6.503   9.301   3.404 -0.6549 -1.0407  0.6424
19790SOL     OW59947   6.643   3.067   8.554 -0.1361  0.1225  0.0855
19790SOL    HW159948   6.633   2.973   8.570  1.0739 -0.3580 -1.7035
19790SOL    HW259949   6.732   3.087   8.583  1.0343 -0.1607 -3.0269
19791SOL     OW59950   1.882   1.110   2.254  0.0504  0.3328 -0.6103
19791SOL    HW159951   1.923   1.031   2.218  0.5261  0.0647  0.4658
19791SOL    HW259952   1.791   1.085   2.267  0.6021 -0.7712  1.6177
19792SOL     OW59953   0.682   7.905   5.467 -0.1674  0.2723  0.0743
19792SOL    HW159954   0.595   7.868   5.453 -0.2214  0.2025  0.5765
19792SOL    HW259955   0.737   7.830   5.490 -0.2888  0.4906  1.1431
19793SOL     OW59956   2.046   2.985   1.668 -0.0168  0.3707  0.0606
19793SOL    HW159957   1.968   3.029   1.701 -1.0829 -1.3239 -0.1039
19793SOL    HW259958   2.068   2.922   1.736  0.2216 -0.3026 -0.6334
19794SOL     OW59959   5.638   5.468   5.217 -0.3177  0.0503 -0.0843
19794SOL    HW159960   5.674   5.388   5.256  1.2906  0.5390 -0.4960
19794SOL    HW259961   5.560   5.486   5.269 -2.0604 -2.9711 -1.3364
19795SOL     OW59962   5.268   3.091   1.321 -0.3932 -0.5296  0.1869
19795SOL    HW159963   5.351   3.133   1.341 -0.6804  0.6652 -0.9805
19795SOL    HW259964   5.201   3.151   1.353 -0.8131 -1.0691  0.3434
19796SOL     OW59965   6.434   3.178   1.725  0.1881 -0.8649  0.1574
19796SOL    HW159966   6.399   3.139   1.645 -2.3121 -0.2495  0.8939
19796SOL    HW259967   6.484   3.107   1.766  1.1875 -1.3021 -1.7071
19797SOL     OW59968   8.678   3.919   3.562 -0.1092  0.1501  0.4289
19797SOL    HW159969   8.681   3.824   3.568 -1.2612 -0.0960 -1.9650
19797SOL    HW259970   8.752   3.948   3.615  2.0229 -2.2003 -1.0113
19798SOL     OW59971   6.116   1.055   1.041  0.1555  0.9781 -0.3101
19798SOL    HW159972   6.023   1.079   1.048 -0.0730  0.6431 -1.9650
19798SOL    HW259973   6.160   1.137   1.021  0.1688  1.0594  0.0404
19799SOL     OW59974   7.423   6.178   7.013 -0.8947  0.2111  0.4134
19799SOL    HW159975   7.508   6.206   6.979 -0.3805 -0.8703  0.7548
19799SOL    HW259976   7.438   6.164   7.106 -1.1825 -0.9042  0.3110
19800SOL     OW59977   3.242   9.937   9.848  0.0060 -0.6889 -0.4850
19800SOL    HW159978   3.217   9.927   9.939  2.0104  0.2880  0.2424
19800SOL    HW259979   3.335   9.961   9.851  0.1147 -0.5575 -2.7786
19801SOL     OW59980   2.341   5.543   4.362  0.4423 -0.0849 -0.0806
19801SOL    HW159981   2.279   5.603   4.320  1.3097 -0.1403 -1.5185
19801SOL    HW259982   2.376   5.490   4.290  0.1468 -1.9410  1.0634
19802SOL     OW59983   9.107   3.928   9.636  0.3482 -0.5850 -0.5698
19802SOL    HW159984   9.114   3.883   9.552 -2.3975 -0.5285 -0.9080
19802SOL    HW259985   9.014   3.947   9.646  1.1244  3.6658  0.2964
19803SOL     OW59986   9.661   4.742   0.801 -0.0795 -0.2777  0.2098
19803SOL    HW159987   9.651   4.715   0.893  0.4722 -0.3798  0.2445
19803SOL    HW259988   9.649   4.662   0.751 -0.9100 -0.1252  0.1562
19804SOL     OW59989   4.418   9.883   6.679 -0.2639  0.1051  0.5645
19804SOL    HW159990   4.430   9.819   6.609  1.3071  0.0990  0.8055
19804SOL    HW259991   4.418   9.968   6.634  0.1142  0.0668  0.4904
19805SOL     OW59992   0.428   4.924   7.283  0.2153  0.6404  0.1916
19805SOL    HW159993   0.396   4.910   7.372  1.0568  2.4522  0.8324
19805SOL    HW259994   0.466   5.012   7.285  1.6195  0.1297 -1.5644
19806SOL     OW59995   2.557   3.574   3.911 -0.0920  0.0234 -0.5267
19806SOL    HW159996   2.516   3.499   3.868 -0.2731  1.0093 -2.1555
19806SOL    HW259997   2.651   3.555   3.906 -0.1805 -0.7756  0.4335
19807SOL     OW59998   6.486   6.172   5.962  0.0663 -0.3294  0.9513
19807SOL    HW159999   6.573   6.133   5.972  1.1429  0.8328 -2.4828
19807SOL    HW260000   6.447   6.124   5.889 -0.9115  1.2133  0.4256
19808SOL     OW60001   6.046   4.511   8.866  0.0529  0.2474  0.2541
19808SOL    HW160002   6.069   4.420   8.842 -0.1502  0.3871 -0.5077
19808SOL    HW260003   5.965   4.528   8.819  0.0017  0.7763  0.5294
19809SOL     OW60004   9.541   9.355   5.522  0.1036  0.3608  0.6099
19809SOL    HW160005   9.557   9.298   5.447  1.2119  0.3894  0.8019
19809SOL    HW260006   9.553   9.444   5.488 -4.7213  0.8433 -0.4953
19810SOL     OW60007   8.252   8.393   1.636 -0.2697  0.6687 -0.2159
19810SOL    HW160008   8.278   8.341   1.711 -0.9801  1.5204  0.6395
19810SOL    HW260009   8.272   8.338   1.560 -1.4992 -1.0741  0.6633
19811SOL     OW60010   7.270   9.664   1.188 -0.4187  0.1940 -0.1335
19811SOL    HW160011   7.273   9.628   1.099 -1.2827  0.8279 -0.4282
19811SOL    HW260012   7.180   9.695   1.198  0.0009  1.2392  0.5191
19812SOL     OW60013   2.156   5.857   3.596  0.2710  0.0172  0.1203
19812SOL    HW160014   2.246   5.854   3.563 -0.0671  0.3068 -0.8649
19812SOL    HW260015   2.105   5.891   3.523 -0.9289 -1.8621  0.0055
19813SOL     OW60016   4.989   9.345   6.125  0.0543 -0.2123 -0.1697
19813SOL    HW160017   5.079   9.372   6.142  0.0030  0.8511 -1.3658
19813SOL    HW260018   4.979   9.263   6.172  0.4375  1.4779  3.1856
19814SOL     OW60019   3.530   8.871   2.429 -0.1629  0.4909 -0.6846
19814SOL    HW160020   3.562   8.951   2.470  0.4562  0.3158 -0.8229
19814SOL    HW260021   3.459   8.900   2.372 -0.8066  0.7764  0.2452
19815SOL     OW60022   5.546   1.800   2.462 -0.1565  0.4152 -0.2640
19815SOL    HW160023   5.549   1.808   2.367 -0.8624 -0.3506 -0.3578
19815SOL    HW260024   5.592   1.718   2.480  0.7635  0.9962  0.1384
19816SOL     OW60025   2.222   4.214   7.328  0.0923  0.9287  0.1473
19816SOL    HW160026   2.263   4.200   7.413 -0.6104  0.7025  0.4576
19816SOL    HW260027   2.137   4.172   7.335 -0.3075  1.6193 -0.3924
19817SOL     OW60028   3.127   7.171   7.487 -0.2439 -0.1976 -0.1306
19817SOL    HW160029   3.183   7.129   7.422  0.1670 -0.6396  0.4918
19817SOL    HW260030   3.171   7.254   7.506  0.0286 -0.3855  0.0930
19818SOL     OW60031   8.041   0.646   5.117  0.3648  0.2741 -0.7063
19818SOL    HW160032   8.097   0.672   5.044  0.6951  1.3224 -0.1091
19818SOL    HW260033   8.096   0.655   5.195 -0.4986  0.9722 -0.1492
19819SOL     OW60034   5.526   9.351   6.207  0.1086 -0.3232  0.2068
19819SOL    HW160035   5.542   9.333   6.114  1.4850  1.6859  0.0090
19819SOL    HW260036   5.589   9.296   6.253  1.0654  0.4304 -0.1752
19820SOL     OW60037   1.324   3.216   8.636 -0.1547 -0.4935 -0.2328
19820SOL    HW160038   1.398   3.167   8.672 -0.2652 -0.2435  0.3420
19820SOL    HW260039   1.280   3.153   8.579 -1.4603 -1.7447  1.9974
19821SOL     OW60040   1.581   3.094   8.687  0.5753  0.2558 -0.0314
19821SOL    HW160041   1.670   3.111   8.656  1.4591 -1.9652  1.1135
19821SOL    HW260042   1.585   3.107   8.781  0.0294 -1.0537  0.1972
19822SOL     OW60043   0.064   7.658   0.244 -0.4617  0.1333  0.2883
19822SOL    HW160044  -0.027   7.638   0.219  0.0086  1.3157 -2.8455
19822SOL    HW260045   0.117   7.605   0.184  0.9964 -0.7522  2.2569
19823SOL     OW60046   2.571   9.145   4.824  0.1844  0.6072 -0.5061
19823SOL    HW160047   2.551   9.095   4.745 -1.0298 -2.4045  1.5362
19823SOL    HW260048   2.666   9.137   4.834  0.7034  2.8261 -2.6442
19824SOL     OW60049   0.702   1.309   8.911 -0.4320  0.2798 -0.0356
19824SOL    HW160050   0.636   1.292   8.843  1.1107  2.3928 -2.2293
19824SOL    HW260051   0.782   1.270   8.877  0.2698  0.9609  0.8062
19825SOL     OW60052   9.737   1.195   2.121 -0.1094  0.3771 -0.0446
19825SOL    HW160053   9.727   1.288   2.144 -1.5220  0.2652 -0.1248
19825SOL    HW260054   9.745   1.194   2.026  0.5475  0.4498  0.0028
19826SOL     OW60055   0.741   5.664   1.488 -0.1701  0.2378  0.7217
19826SOL    HW160056   0.762   5.693   1.399 -0.0673 -0.3958  0.5352
19826SOL    HW260057   0.660   5.614   1.477  1.5119 -2.6533  0.4314
19827SOL     OW60058   9.033   8.087   6.659 -0.0751 -0.3302 -0.4482
19827SOL    HW160059   9.057   8.010   6.711 -0.3693 -1.1609 -1.5171
19827SOL    HW260060   9.039   8.058   6.568 -1.7689  0.4392 -0.8376
19828SOL     OW60061   5.063   3.263   9.837 -0.4698 -0.0511 -0.5331
19828SOL    HW160062   5.043   3.174   9.868  0.3102  0.0305  0.2417
19828SOL    HW260063   5.115   3.250   9.758 -0.4265 -0.2882 -0.4661
19829SOL     OW60064   0.763   8.202   8.754  0.3413  0.1413 -0.1568
19829SOL    HW160065   0.690   8.219   8.814 -0.1621 -0.2874 -0.6334
19829SOL    HW260066   0.747   8.260   8.680  1.2258  1.0190  0.3324
19830SOL     OW60067   9.592   3.837   5.714 -0.0676  0.1834  0.1645
19830SOL    HW160068   9.637   3.921   5.706 -0.0012  0.1907  0.6172
19830SOL    HW260069   9.624   3.800   5.796 -0.0149 -0.3373 -0.0886
19831SOL     OW60070   2.382   1.523   2.784  0.6304 -0.0516 -0.2638
19831SOL    HW160071   2.347   1.513   2.695 -0.5069  2.1040 -0.1238
19831SOL    HW260072   2.472   1.552   2.770  0.2211  1.0271 -0.7396
19832SOL     OW60073   3.652   3.751   1.214 -0.1337 -0.4149  0.6181
19832SOL    HW160074   3.700   3.825   1.252  0.8181 -0.6906 -0.0014
19832SOL    HW260075   3.677   3.752   1.121 -1.9674 -0.0891  0.0933
19833SOL     OW60076   6.446   8.252   7.571  0.1692  0.1218 -0.1166
19833SOL    HW160077   6.457   8.303   7.651  1.6164  1.1852 -0.9235
19833SOL    HW260078   6.402   8.172   7.599  0.2545  0.6462  1.6593
19834SOL     OW60079   2.222   9.160   3.075  0.8146 -0.7452  0.0440
19834SOL    HW160080   2.219   9.181   2.982  2.7688  1.0299  0.3055
19834SOL    HW260081   2.145   9.105   3.090  0.0601 -0.4799 -2.4490
19835SOL     OW60082   3.273   7.722   2.077 -0.2392 -0.1600  0.3200
19835SOL    HW160083   3.307   7.643   2.119  1.0559  0.1736 -0.0268
19835SOL    HW260084   3.295   7.710   1.984 -3.4363 -1.0966 -0.4401
19836SOL     OW60085   4.878   9.747   6.556  0.8095  0.2106  0.3330
19836SOL    HW160086   4.843   9.669   6.513 -0.5889  1.2557 -0.4825
19836SOL    HW260087   4.852   9.739   6.648 -0.5784  0.4029 -0.0355
19837SOL     OW60088   4.421   7.352   5.658  0.0330 -0.4645  0.3411
19837SOL    HW160089   4.473   7.279   5.623 -0.6084 -0.6665 -0.2253
19837SOL    HW260090   4.485   7.410   5.698  0.7040 -0.6694 -0.3985
19838SOL     OW60091   2.276   8.598   0.327 -0.0454 -0.3553  0.0333
19838SOL    HW160092   2.357   8.625   0.370  0.0227  0.3464 -0.5145
19838SOL    HW260093   2.225   8.679   0.321  0.2410 -0.2871 -1.8388
19839SOL     OW60094   3.305   9.790   0.442 -0.0339 -0.4546 -0.1017
19839SOL    HW160095   3.394   9.764   0.419  0.8927  0.3427  2.2045
19839SOL    HW260096   3.285   9.863   0.384  0.5584 -1.0306 -1.0549
19840SOL     OW60097   2.910   1.480   1.414  0.3492 -0.4980 -0.3413
19840SOL    HW160098   2.894   1.478   1.320  0.5991 -0.2872 -0.3905
19840SOL    HW260099   3.005   1.469   1.422  0.0982 -2.9682 -0.0104
19841SOL     OW60100   6.285   4.284   4.384 -0.2995  0.1776 -0.5037
19841SOL    HW160101   6.354   4.303   4.320  0.2489 -0.4325 -0.1003
19841SOL    HW260102   6.260   4.370   4.418 -1.1594  0.5966 -2.0871
19842SOL     OW60103   7.504   7.740   7.845 -0.1164 -0.3606 -0.0430
19842SOL    HW160104   7.528   7.675   7.911  0.9505  0.6183  0.5764
19842SOL    HW260105   7.486   7.820   7.896 -0.9191 -0.0344 -0.8160
19843SOL     OW60106   2.512   1.252   1.116 -0.0810 -0.7269 -0.3115
19843SOL    HW160107   2.583   1.223   1.172  0.5825 -0.0025 -0.7650
19843SOL    HW260108   2.522   1.347   1.111 -0.6707 -0.6892 -0.9287
19844SOL     OW60109   2.919   5.741   6.741  0.1722  0.7249 -0.1739
19844SOL    HW160110   2.919   5.796   6.819 -2.2590  1.0422 -0.3036
19844SOL    HW260111   2.910   5.803   6.668  2.3464  0.4304 -0.7564
19845SOL     OW60112   7.037   0.860   9.887 -0.7071  0.2010 -0.2163
19845SOL    HW160113   6.952   0.895   9.916 -0.4433 -1.1986  2.5235
19845SOL    HW260114   7.046   0.777   9.933  2.7889  0.9652  0.7332
19846SOL     OW60115   7.852   4.059   4.757  0.4111 -0.0341  0.8653
19846SOL    HW160116   7.880   4.021   4.840 -0.1470 -0.0918  1.0292
19846SOL    HW260117   7.893   4.145   4.756  3.4651 -1.3761 -0.4805
19847SOL     OW60118   5.681   3.623   4.645  0.1313 -0.7140  0.0458
19847SOL    HW160119   5.638   3.620   4.560 -0.3980 -1.2287  0.3306
19847SOL    HW260120   5.716   3.712   4.650 -0.5687 -0.4068 -0.3477
19848SOL     OW60121   1.982   6.844   5.403  0.2369  0.3044 -0.5390
19848SOL    HW160122   2.040   6.919   5.388  0.5919 -0.3448 -2.9892
19848SOL    HW260123   1.904   6.863   5.350 -0.1114 -0.5724 -0.3507
19849SOL     OW60124   7.118   5.210   0.673  0.5838  0.4265  0.4940
19849SOL    HW160125   7.030   5.188   0.641  0.6112 -1.4886  1.5558
19849SOL    HW260126   7.108   5.218   0.767  1.7073 -0.9169  0.7611
19850SOL     OW60127   6.539   2.919   7.989 -0.1174  0.3393  0.4744
19850SOL    HW160128   6.494   2.837   7.965  1.0557 -0.3408  0.4971
19850SOL    HW260129   6.584   2.945   7.909 -1.0640  1.3718  0.2641
19851SOL     OW60130   6.021   2.706   8.839  0.4437  0.5105 -0.2672
19851SOL    HW160131   5.972   2.713   8.757  1.0901  0.8320 -0.6263
19851SOL    HW260132   6.051   2.615   8.842 -1.5522 -0.1781  0.7570
19852SOL     OW60133   0.853   7.175   5.412 -0.3388  0.5597 -0.7773
19852SOL    HW160134   0.802   7.175   5.331 -1.0066 -1.9156 -0.4157
19852SOL    HW260135   0.827   7.096   5.458  1.6183  0.7769  0.8732
19853SOL     OW60136   8.685   8.149   6.307  0.2174  0.6124  0.2120
19853SOL    HW160137   8.697   8.215   6.239 -1.6235  1.5072  0.6997
19853SOL    HW260138   8.734   8.182   6.382  0.5093  0.6836 -0.0100
19854SOL     OW60139   9.020   8.576   7.200 -0.0442 -0.9164 -0.5151
19854SOL    HW160140   8.989   8.664   7.221  1.7503 -0.1322 -1.0149
19854SOL    HW260141   8.952   8.541   7.141  0.3463  1.0657 -2.2689
19855SOL     OW60142   4.435   6.536   4.278 -0.6869  0.7389  0.1660
19855SOL    HW160143   4.521   6.531   4.235 -1.2716 -1.0736 -0.8975
19855SOL    HW260144   4.372   6.528   4.206 -1.7557  1.5675  0.9810
19856SOL     OW60145   8.430   7.402   8.200  0.1524 -0.5251  0.3032
19856SOL    HW160146   8.463   7.485   8.166  1.1140 -0.9435  0.1877
19856SOL    HW260147   8.394   7.423   8.286  0.5411 -0.0139  0.3423
19857SOL     OW60148   6.007   6.633   5.597 -0.2081 -0.0184 -0.0610
19857SOL    HW160149   6.013   6.543   5.629 -1.6469 -1.5336 -3.5308
19857SOL    HW260150   5.929   6.668   5.640  0.2044 -0.4744  1.1113
19858SOL     OW60151   4.797   1.105   9.766 -0.0876 -0.2337 -0.2753
19858SOL    HW160152   4.725   1.097   9.704 -1.1984 -0.7339  1.0414
19858SOL    HW260153   4.849   1.026   9.753  0.6081  0.4117 -1.6475
19859SOL     OW60154   7.010   8.171   3.465  0.2265 -0.2702 -0.3215
19859SOL    HW160155   6.979   8.161   3.375 -1.4101 -1.1324  0.2914
19859SOL    HW260156   7.092   8.221   3.457  1.2346 -2.1086 -2.4329
19860SOL     OW60157   1.388   1.993   1.658  0.6160 -0.7815  0.1175
19860SOL    HW160158   1.366   2.030   1.744  0.4658 -1.0698  0.2054
19860SOL    HW260159   1.356   2.058   1.595 -2.0713 -1.9276  0.1775
19861SOL     OW60160   0.267   5.768   7.292  0.2303 -0.3173  0.7949
19861SOL    HW160161   0.220   5.766   7.375 -1.8810 -0.9434 -0.3321
19861SOL    HW260162   0.212   5.716   7.232  2.0778 -0.5732 -0.7919
19862SOL     OW60163   3.798   8.652   9.647 -0.3271  0.2169 -0.2381
19862SOL    HW160164   3.856   8.726   9.663 -1.2274  1.2811 -1.6299
19862SOL    HW260165   3.713   8.692   9.628 -1.6523 -1.2745  1.9996
19863SOL     OW60166   4.898   6.772   5.383 -0.2071 -0.1352  0.1693
19863SOL    HW160167   4.884   6.729   5.299  0.2133 -0.8758  0.4719
19863SOL    HW260168   4.944   6.853   5.361  1.4857 -1.1519 -0.1710
19864SOL     OW60169   0.466   4.808   2.992 -0.1193  0.3172 -0.6954
19864SOL    HW160170   0.441   4.756   2.915 -1.6079  0.5656 -0.4081
19864SOL    HW260171   0.514   4.882   2.955  1.5752 -0.9263 -1.1483
19865SOL     OW60172   1.893   1.991   2.004 -0.1487 -0.0509 -0.1883
19865SOL    HW160173   1.924   2.079   1.982  1.6156 -0.5227  0.2701
19865SOL    HW260174   1.878   1.949   1.920  2.7291 -0.5453 -0.5205
19866SOL     OW60175   9.286   1.110   3.006 -0.2302 -0.4964 -0.5378
19866SOL    HW160176   9.271   1.193   3.051 -0.7919 -0.9503  0.1395
19866SOL    HW260177   9.247   1.122   2.920  0.3194  0.1784 -0.7063
19867SOL     OW60178   0.336   2.513   3.948 -0.1123 -0.2964  0.1208
19867SOL    HW160179   0.378   2.439   3.904  0.2528  0.0555 -0.1235
19867SOL    HW260180   0.257   2.530   3.897  1.1550  1.1963 -1.4404
19868SOL     OW60181   9.671   7.625   1.177  0.0808 -0.1092  0.2341
19868SOL    HW160182   9.747   7.649   1.228 -0.9613 -0.2606  1.9223
19868SOL    HW260183   9.612   7.701   1.184 -0.4241 -0.4638 -0.0466
19869SOL     OW60184   5.287   1.878   3.441  0.7436 -0.4048 -0.2334
19869SOL    HW160185   5.293   1.970   3.416 -0.9377 -0.3059 -0.3973
19869SOL    HW260186   5.212   1.844   3.391  2.8507 -2.5712 -2.1706
19870SOL     OW60187   5.585   7.824   5.197 -0.0528 -0.2909 -0.0739
19870SOL    HW160188   5.555   7.914   5.189  2.0360  0.3136 -2.4435
19870SOL    HW260189   5.586   7.807   5.291 -0.4055  2.2112  0.4399
19871SOL     OW60190   5.777   4.214   5.706 -0.0130 -0.6937  0.2328
19871SOL    HW160191   5.720   4.145   5.740 -2.8714  0.8143 -1.1501
19871SOL    HW260192   5.785   4.277   5.778  2.1942 -2.0767  1.3228
19872SOL     OW60193   8.846   6.792   4.580 -0.6385 -0.8357 -0.1444
19872SOL    HW160194   8.847   6.701   4.608 -0.0919 -0.0592  2.6335
19872SOL    HW260195   8.936   6.810   4.553 -1.0257 -1.4067 -1.9714
19873SOL     OW60196   8.979   1.011   9.150 -0.1682  0.2687 -0.1581
19873SOL    HW160197   9.052   1.064   9.181 -0.6613  0.7464  0.2075
19873SOL    HW260198   8.989   0.928   9.196 -0.3883  0.6626  0.6289
19874SOL     OW60199   9.945   2.850   6.140  0.3798 -0.4574 -0.5075
19874SOL    HW160200   9.962   2.760   6.113  0.4687 -0.1729 -1.4553
19874SOL    HW260201   9.903   2.890   6.064  1.7732  0.7317 -0.6967
19875SOL     OW60202   5.799   3.311   1.494 -0.5888  0.0625 -0.3266
19875SOL    HW160203   5.826   3.353   1.575 -2.2953  1.1691 -0.2809
19875SOL    HW260204   5.812   3.377   1.426  0.3853 -0.6943 -0.8954
19876SOL     OW60205   3.703   4.250   9.217 -0.4159 -0.6991  0.2970
19876SOL    HW160206   3.734   4.334   9.250 -2.0734  0.1479 -0.1800
19876SOL    HW260207   3.754   4.234   9.137 -0.8800  0.4350 -0.2404
19877SOL     OW60208   1.633   6.800   0.366 -0.7471 -0.3283 -0.4759
19877SOL    HW160209   1.706   6.848   0.327  0.7934  0.1823  2.7671
19877SOL    HW260210   1.559   6.861   0.362 -0.0288  0.5501 -0.5267
19878SOL     OW60211   1.088   8.271   3.501 -0.1158 -0.6073  0.3480
19878SOL    HW160212   1.052   8.292   3.414  0.3308 -1.1409  0.0297
19878SOL    HW260213   1.078   8.176   3.509  1.8019 -0.8698 -0.0260
19879SOL     OW60214   9.312   2.041   3.106 -0.0081 -0.0407 -0.4060
19879SOL    HW160215   9.281   2.117   3.155  0.4369  0.5888 -1.0857
19879SOL    HW260216   9.232   1.998   3.075 -0.3245 -0.7010  1.2107
19880SOL     OW60217   4.212   0.113   8.530 -0.0319 -0.1325  1.0593
19880SOL    HW160218   4.220   0.084   8.439  1.2131 -0.9471  1.4088
19880SOL    HW260219   4.225   0.034   8.582  2.0783  0.7646  2.0019
19881SOL     OW60220   4.495   2.390   8.303  0.2247  0.0050  0.3322
19881SOL    HW160221   4.498   2.304   8.261  0.6907  0.5185 -0.7237
19881SOL    HW260222   4.484   2.371   8.396 -0.1170 -1.1847  0.0627
19882SOL     OW60223   3.832   9.016   2.208 -0.8527 -0.2412 -0.0585
19882SOL    HW160224   3.755   9.072   2.217  0.2434  1.3872 -0.4609
19882SOL    HW260225   3.803   8.931   2.241 -2.8429  0.2912 -0.2918
19883SOL     OW60226   3.688   1.193   0.317 -0.2086 -0.0306  0.1616
19883SOL    HW160227   3.698   1.243   0.398  0.5752  2.0441 -1.1245
19883SOL    HW260228   3.663   1.259   0.252 -0.1484 -1.5112 -1.4184
19884SOL     OW60229   9.949   0.508   2.086  0.4074 -0.2165 -1.4278
19884SOL    HW160230   9.858   0.493   2.060 -0.1656 -0.8073  0.7100
19884SOL    HW260231   9.982   0.421   2.109  0.8849  0.2153 -0.3970
19885SOL     OW60232   3.891   7.097   6.196 -0.3312  0.2939 -0.1204
19885SOL    HW160233   3.976   7.065   6.226 -1.6236 -1.2427  2.2387
19885SOL    HW260234   3.903   7.115   6.103  2.5082  0.0331  0.1150
19886SOL     OW60235   6.271   9.548   8.958 -0.1641 -0.1326 -0.1285
19886SOL    HW160236   6.264   9.484   9.028  0.1049 -0.5118 -0.4487
19886SOL    HW260237   6.180   9.565   8.931 -0.2466 -0.2199  0.0943
19887SOL     OW60238   0.213   7.023   7.035 -0.2718  0.2287  0.0841
19887SOL    HW160239   0.286   6.993   6.981 -0.6839 -2.3044  0.8114
19887SOL    HW260240   0.253   7.079   7.101  0.5967  1.1053 -1.1427
19888SOL     OW60241   1.355   1.810   0.144  0.5946 -0.7138  0.0625
19888SOL    HW160242   1.353   1.716   0.163  1.2997 -0.8711 -0.5834
19888SOL    HW260243   1.396   1.849   0.222 -0.8590 -0.7633  0.8970
19889SOL     OW60244   9.434   1.715   3.870  0.1807 -0.0892 -0.3405
19889SOL    HW160245   9.468   1.626   3.863 -0.1004 -0.2310  0.0081
19889SOL    HW260246   9.454   1.756   3.786 -1.6612 -1.1872 -1.3980
19890SOL     OW60247   3.955   3.691   5.347 -0.1770 -0.3435 -0.0476
19890SOL    HW160248   3.983   3.606   5.381 -0.4143 -0.7380 -0.8206
19890SOL    HW260249   3.901   3.671   5.271 -0.4999  0.4931 -0.0565
19891SOL     OW60250   4.275   6.912   5.419 -0.0890  0.2613  0.1537
19891SOL    HW160251   4.287   6.818   5.407 -0.6827  0.3558 -1.3806
19891SOL    HW260252   4.302   6.950   5.336 -0.7996  1.3768  0.4166
19892SOL     OW60253   1.661   7.609   6.305 -0.5487  0.4385 -0.2132
19892SOL    HW160254   1.697   7.532   6.348  1.1627  1.2965 -0.0266
19892SOL    HW260255   1.666   7.678   6.372 -1.4975  0.8663 -0.5628
19893SOL     OW60256   9.348   1.854   5.216 -0.0433 -0.0278  0.0956
19893SOL    HW160257   9.402   1.882   5.289  0.1684  0.4294 -0.2302
19893SOL    HW260258   9.345   1.759   5.223  0.3666 -0.0170  0.4248
19894SOL     OW60259   3.850   0.169   3.412 -0.1572  0.8154  0.0234
19894SOL    HW160260   3.820   0.234   3.348  0.1264  0.1112 -0.8640
19894SOL    HW260261   3.898   0.219   3.477  0.0123  1.5101 -0.6166
19895SOL     OW60262   5.335   7.321   9.103  0.1449  0.7995  0.0913
19895SOL    HW160263   5.419   7.308   9.148  0.2834  1.0303 -0.1042
19895SOL    HW260264   5.354   7.307   9.011  0.3134  2.4231 -0.1497
19896SOL     OW60265   9.482   7.133   1.829  0.0421 -0.0993  0.1282
19896SOL    HW160266   9.500   7.089   1.747  0.3858  0.2708 -0.0008
19896SOL    HW260267   9.566   7.133   1.875 -0.5366 -1.9206  1.2888
19897SOL     OW60268   6.821   7.224   1.716 -0.4419  0.2015 -0.2847
19897SOL    HW160269   6.758   7.265   1.657 -0.5387 -0.2361 -0.4946
19897SOL    HW260270   6.828   7.134   1.683  0.1317  0.1900 -0.1355
19898SOL     OW60271   5.356   5.421   9.312 -0.6663 -0.7586 -0.6374
19898SOL    HW160272   5.351   5.478   9.235 -0.0131  1.3551  0.7908
19898SOL    HW260273   5.449   5.401   9.321 -0.6090 -0.2284  0.0843
19899SOL     OW60274   0.252   1.536   5.987  0.1238  0.0421 -0.1614
19899SOL    HW160275   0.329   1.582   5.953 -0.5330  1.2837 -0.0157
19899SOL    HW260276   0.285   1.450   6.011  1.5938  0.7159  0.3980
19900SOL     OW60277   7.057   7.620   2.527  0.1400 -0.7753 -0.3845
19900SOL    HW160278   6.965   7.608   2.500 -0.1414  0.6332 -0.1254
19900SOL    HW260279   7.090   7.689   2.470  1.8794 -3.0118 -2.2735
19901SOL     OW60280   1.931   1.654   9.014 -0.0474  0.4778 -0.0696
19901SOL    HW160281   1.865   1.652   8.944  1.4266  1.3552 -1.5534
19901SOL    HW260282   1.881   1.647   9.095 -1.7331 -2.3489 -1.2201
19902SOL     OW60283   5.299   9.329   3.241  0.5362 -0.5390 -0.4654
19902SOL    HW160284   5.318   9.417   3.275 -1.1406  0.1721 -1.2740
19902SOL    HW260285   5.299   9.273   3.319  0.5781  0.3686  0.2042
19903SOL     OW60286   6.052   2.141   3.002  0.1401 -0.1434  0.3911
19903SOL    HW160287   6.010   2.221   3.032 -1.0440 -0.4988 -0.2584
19903SOL    HW260288   6.104   2.168   2.927 -1.1346 -0.1392 -0.5225
19904SOL     OW60289   1.310   7.776   6.637 -0.7905  0.0506 -0.1065
19904SOL    HW160290   1.314   7.689   6.676 -0.5352 -0.3561 -1.0034
19904SOL    HW260291   1.274   7.832   6.706  0.7695 -0.3867  1.1370
19905SOL     OW60292   3.712   2.767   1.190  0.0496 -0.2944  0.4320
19905SOL    HW160293   3.685   2.676   1.195  0.2933 -0.3917  0.0390
19905SOL    HW260294   3.786   2.767   1.129  0.1652  0.1391  0.5642
19906SOL     OW60295   3.055   0.076   0.852 -0.3840 -0.0856 -0.0268
19906SOL    HW160296   3.094   0.000   0.808 -1.0919 -0.6069  0.2301
19906SOL    HW260297   3.088   0.151   0.803  1.4706 -0.4549  0.5816
19907SOL     OW60298   1.279   5.412   0.699 -0.4011  0.2782  0.0682
19907SOL    HW160299   1.236   5.384   0.780  1.4451 -1.8339  0.4234
19907SOL    HW260300   1.310   5.331   0.659  0.3281  1.4323 -1.8366
19908SOL     OW60301   6.087   0.503   4.737  0.1098  0.7182  0.3712
19908SOL    HW160302   6.106   0.415   4.769 -1.2639  1.0418  2.2462
19908SOL    HW260303   6.072   0.491   4.643 -2.0342 -1.4501  0.8897
19909SOL     OW60304   2.313   0.053   6.624  0.7525 -0.4612  0.2852
19909SOL    HW160305   2.355   0.127   6.580  1.3633 -0.7152  0.4377
19909SOL    HW260306   2.304   0.082   6.715 -1.5883  0.5408 -0.1845
19910SOL     OW60307   7.432   9.624   7.775  0.2299 -0.3891  0.4112
19910SOL    HW160308   7.365   9.587   7.832  0.5081 -1.6654 -0.0692
19910SOL    HW260309   7.400   9.712   7.754 -0.6647 -0.5186  1.2076
19911SOL     OW60310   2.839   8.656   1.151 -0.5087  0.3291 -0.2894
19911SOL    HW160311   2.883   8.712   1.215 -2.1187 -0.9391  2.0699
19911SOL    HW260312   2.751   8.693   1.143 -0.7541 -0.3267 -0.7199
19912SOL     OW60313   4.694   8.636   1.339  0.0301 -0.4000 -0.4720
19912SOL    HW160314   4.636   8.596   1.274 -2.3650  0.6011  0.9182
19912SOL    HW260315   4.771   8.663   1.289 -0.5026 -2.0963 -2.3584
19913SOL     OW60316   6.493   4.909   6.163  0.1712 -0.2112 -0.4158
19913SOL    HW160317   6.544   4.923   6.083 -0.4415  0.8053 -0.6432
19913SOL    HW260318   6.548   4.852   6.217  1.0923  0.0175 -1.0907
19914SOL     OW60319   6.025   6.287   8.982  0.3679 -0.6789 -0.6669
19914SOL    HW160320   5.989   6.373   8.963  0.6903 -0.5343 -0.6238
19914SOL    HW260321   6.052   6.291   9.073  1.9007 -0.2817 -1.1155
19915SOL     OW60322   5.991   3.820   5.780  0.1127  0.0839 -0.0654
19915SOL    HW160323   5.945   3.850   5.859  1.6106 -2.6090  2.0060
19915SOL    HW260324   5.927   3.768   5.732 -0.6113  1.1700 -0.3152
19916SOL     OW60325   0.316   7.631   2.245  0.9295  0.5367 -0.3637
19916SOL    HW160326   0.265   7.677   2.178  0.9111 -1.3157 -1.7099
19916SOL    HW260327   0.250   7.595   2.305  0.8230  0.6103 -0.4359
19917SOL     OW60328   5.906   6.895   8.239  0.1500 -0.1727 -0.0263
19917SOL    HW160329   5.885   6.804   8.261  0.9424 -0.1183  1.0011
19917SOL    HW260330   5.824   6.942   8.251 -0.2430 -0.7284 -0.4636
19918SOL     OW60331   6.905   2.303   1.121  0.6808 -0.4924 -0.2910
19918SOL    HW160332   6.923   2.231   1.181 -3.8745 -1.2617  0.5716
19918SOL    HW260333   6.862   2.261   1.046 -3.5231  1.0933  0.8983
19919SOL     OW60334   4.100   3.678   8.005 -0.1742  0.2351 -0.0219
19919SOL    HW160335   4.097   3.749   7.941  0.4110  1.1867  0.9775
19919SOL    HW260336   4.008   3.663   8.028 -0.5060 -0.8931 -1.8634
19920SOL     OW60337   9.299   6.770   5.973  0.3094  0.5977  0.5478
19920SOL    HW160338   9.390   6.798   5.961  0.5046 -0.9343 -2.2077
19920SOL    HW260339   9.253   6.805   5.897 -0.9376 -0.5406  0.7555
19921SOL     OW60340   2.768   1.442   7.284 -0.0669 -0.0106 -0.2533
19921SOL    HW160341   2.753   1.410   7.195 -1.0988  2.7634 -1.2171
19921SOL    HW260342   2.686   1.426   7.330 -0.6235  1.2453 -0.7681
19922SOL     OW60343   9.107   8.498   1.569 -0.7639 -0.4547 -0.7955
19922SOL    HW160344   9.029   8.533   1.526  0.4210  0.4363 -2.3418
19922SOL    HW260345   9.088   8.505   1.663 -1.7074  1.7354 -1.0959
19923SOL     OW60346   7.899   3.830   1.381 -0.7780 -0.2854  0.1809
19923SOL    HW160347   7.830   3.848   1.318 -0.6365 -1.9575 -0.5125
19923SOL    HW260348   7.899   3.734   1.391  2.0879 -0.4871 -0.6542
19924SOL     OW60349   9.209   6.996   8.562 -0.1459  0.0973 -0.0585
19924SOL    HW160350   9.217   7.090   8.581  0.7382  0.1167 -0.4825
19924SOL    HW260351   9.288   6.975   8.513 -1.1256 -0.5210 -1.4098
19925SOL     OW60352   1.271   9.428   6.118 -0.1616  0.3085  0.0854
19925SOL    HW160353   1.330   9.487   6.070 -0.8800  0.2703 -0.8642
19925SOL    HW260354   1.196   9.482   6.140 -0.1270  0.1500  0.6035
19926SOL     OW60355   5.389   0.936   6.731 -0.5469  0.2682  0.3323
19926SOL    HW160356   5.470   0.963   6.772 -0.0183 -1.4640  0.5074
19926SOL    HW260357   5.414   0.862   6.675 -1.8215  0.3965 -0.4468
19927SOL     OW60358   8.021   3.550   9.791  0.3882 -0.0441 -0.1063
19927SOL    HW160359   8.021   3.472   9.847 -0.1606  0.4391  0.5891
19927SOL    HW260360   7.939   3.545   9.743  0.2302  0.2342  0.1308
19928SOL     OW60361   4.677   9.507   7.257 -0.1689 -1.0476 -0.2529
19928SOL    HW160362   4.627   9.586   7.238 -0.8333 -1.4521 -0.2507
19928SOL    HW260363   4.689   9.464   7.172  1.1186 -0.4291 -0.4084
19929SOL     OW60364   0.823   6.336   1.221 -0.3308  0.0946  0.0424
19929SOL    HW160365   0.852   6.261   1.169 -1.3627 -0.7933  0.7289
19929SOL    HW260366   0.787   6.397   1.156  1.6837  0.6276 -0.6766
19930SOL     OW60367   4.332   5.104   9.502  0.5799  0.1042 -0.2220
19930SOL    HW160368   4.384   5.050   9.561  0.4665 -2.0452 -1.9635
19930SOL    HW260369   4.242   5.095   9.534  0.4336 -1.5461 -1.0195
19931SOL     OW60370   2.472   9.397   7.558 -0.2396 -0.1619  0.1306
19931SOL    HW160371   2.540   9.462   7.569 -1.5665  1.3068 -0.0438
19931SOL    HW260372   2.516   9.313   7.572  0.8480  0.8706  3.7567
19932SOL     OW60373   0.696   2.747   9.897 -0.1174 -0.1050 -0.0649
19932SOL    HW160374   0.783   2.784   9.883 -0.7672  0.4837 -3.5141
19932SOL    HW260375   0.673   2.706   9.813 -2.6784 -1.3243  1.1041
19933SOL     OW60376   4.115   2.353   7.618 -0.1786  0.5513  0.2945
19933SOL    HW160377   4.063   2.296   7.562  1.8452 -1.2028  0.0391
19933SOL    HW260378   4.141   2.426   7.562  0.3714 -0.2901 -0.5905
19934SOL     OW60379   7.455   5.269   1.118  0.3993  0.4368  0.3835
19934SOL    HW160380   7.517   5.196   1.122 -0.6985 -0.6981 -1.5374
19934SOL    HW260381   7.381   5.240   1.171  0.5349  0.7810  0.7669
19935SOL     OW60382   4.784   9.658   4.512  0.2600 -0.0256  0.1744
19935SOL    HW160383   4.872   9.631   4.488  0.3433 -0.0914  0.5445
19935SOL    HW260384   4.773   9.627   4.602 -0.2663 -0.3340  0.0149
19936SOL     OW60385   2.779   7.275   8.926 -0.5776  0.0957 -0.1846
19936SOL    HW160386   2.867   7.274   8.889 -0.5711 -0.5049 -0.1545
19936SOL    HW260387   2.734   7.346   8.879 -0.0760  0.4201 -0.1844
19937SOL     OW60388   8.436   0.613   4.866  0.6875  0.7261 -0.3004
19937SOL    HW160389   8.347   0.630   4.896  0.9057  0.3864  0.5640
19937SOL    HW260390   8.451   0.676   4.795  0.7819  2.7885  1.4509
19938SOL     OW60391   5.725   3.445   0.966  0.0450 -0.2432 -0.0412
19938SOL    HW160392   5.634   3.438   0.996  0.0573 -1.3851 -0.2365
19938SOL    HW260393   5.759   3.523   1.011 -1.7668  1.8128 -1.9992
19939SOL     OW60394   1.051   2.144   5.378 -0.3650 -0.1591  0.0519
19939SOL    HW160395   0.999   2.218   5.345  1.9882  1.1649 -0.9117
19939SOL    HW260396   1.073   2.169   5.468 -1.5972 -0.8894  0.5891
19940SOL     OW60397   2.391   9.371   9.053  0.1631 -0.0756 -0.1360
19940SOL    HW160398   2.371   9.416   9.136 -0.8324  0.7293 -0.7780
19940SOL    HW260399   2.472   9.412   9.022 -0.7954  1.4356 -0.7737
19941SOL     OW60400   7.172   1.450   0.398 -0.8078 -0.4015  0.7227
19941SOL    HW160401   7.230   1.516   0.360 -3.5879  2.4721  1.0197
19941SOL    HW260402   7.230   1.387   0.439  2.1354  0.1926 -2.1471
19942SOL     OW60403   3.612   4.871   5.906 -0.0766  0.0670 -0.0181
19942SOL    HW160404   3.689   4.877   5.850 -0.0152 -2.6817 -0.4060
19942SOL    HW260405   3.644   4.827   5.985 -0.9937 -0.0357  0.3127
19943SOL     OW60406   3.085   8.001   1.181 -0.1642 -0.5295  0.3473
19943SOL    HW160407   3.130   7.978   1.100  0.2692 -0.8951  0.6857
19943SOL    HW260408   3.144   7.972   1.251 -0.7905 -0.7582  0.7996
19944SOL     OW60409   0.680   0.661   0.109  0.7802  0.8375 -0.3070
19944SOL    HW160410   0.679   0.670   0.014 -1.9772 -1.4824 -0.6515
19944SOL    HW260411   0.641   0.741   0.142  1.0952  1.3591 -1.1779
19945SOL     OW60412   0.645   9.408   6.463 -0.0862  0.6861  0.7250
19945SOL    HW160413   0.686   9.337   6.513  1.4272  1.6225  0.8937
19945SOL    HW260414   0.602   9.462   6.530  1.1302  1.4153  0.9593
19946SOL     OW60415   2.180   2.971   3.907 -0.0548 -0.1864  0.0693
19946SOL    HW160416   2.241   3.010   3.968  1.6981  0.5660 -2.0487
19946SOL    HW260417   2.097   3.017   3.923  0.2010 -0.3528  2.1335
19947SOL     OW60418   9.424   7.704   8.435  0.4640 -0.3404 -0.4449
19947SOL    HW160419   9.396   7.670   8.521  0.8694 -0.9400 -0.5448
19947SOL    HW260420   9.342   7.729   8.392 -0.3714 -4.6684 -1.8582
19948SOL     OW60421   0.526   2.933   6.815  0.1239 -0.7589 -0.2924
19948SOL    HW160422   0.564   3.018   6.795 -1.5622 -0.2222 -1.4269
19948SOL    HW260423   0.599   2.882   6.852  1.2424  1.0358  0.1025
19949SOL     OW60424   9.079   0.662   4.883 -0.3092 -0.3170  0.5351
19949SOL    HW160425   9.106   0.657   4.791 -0.2297  2.3155  0.3328
19949SOL    HW260426   8.984   0.669   4.879 -0.3969 -1.3087  0.7414
19950SOL     OW60427   3.347   1.460   3.805 -0.6182 -0.0492  0.0026
19950SOL    HW160428   3.354   1.453   3.710 -0.8019  0.1625 -0.0284
19950SOL    HW260429   3.253   1.456   3.823 -0.5686 -0.3256  0.1951
19951SOL     OW60430   6.701   7.716   4.369 -0.1555  0.1398 -0.3032
19951SOL    HW160431   6.754   7.795   4.381  0.2740 -0.3056  0.9125
19951SOL    HW260432   6.612   7.748   4.354 -0.0246  0.8518  0.3973
19952SOL     OW60433   3.223   6.431   6.366  0.1755 -0.1750  0.1330
19952SOL    HW160434   3.145   6.379   6.349  1.9926 -3.0609 -0.1152
19952SOL    HW260435   3.247   6.467   6.281 -0.8616  0.7396  0.2174
19953SOL     OW60436   1.877   9.059   9.674 -0.8085 -0.0768  0.4127
19953SOL    HW160437   1.923   9.050   9.591  0.2163 -0.4689  1.0071
19953SOL    HW260438   1.786   9.035   9.653 -0.1854 -2.1348 -0.2081
19954SOL     OW60439   9.759   7.449   3.448  0.0562 -0.1665 -0.0043
19954SOL    HW160440   9.849   7.461   3.417 -0.5155 -0.6262 -2.0003
19954SOL    HW260441   9.754   7.356   3.471  0.5095  0.1953  1.7062
19955SOL     OW60442   7.979   7.736   0.647 -0.9909  0.1279 -0.2408
19955SOL    HW160443   8.009   7.660   0.597  0.2296  0.5680 -0.1978
19955SOL    HW260444   8.053   7.797   0.645 -1.9389  1.3044 -0.2344
19956SOL     OW60445   4.819   6.663   5.151  1.0750  0.7044 -0.1645
19956SOL    HW160446   4.820   6.570   5.173 -3.3540  0.7701  1.2395
19956SOL    HW260447   4.855   6.667   5.062  1.6304 -2.2807 -0.1794
19957SOL     OW60448   9.248   2.478   0.607  0.3869 -0.3607 -0.2705
19957SOL    HW160449   9.249   2.464   0.702 -1.8491  1.7208  0.1683
19957SOL    HW260450   9.250   2.573   0.597  3.1639 -0.5449 -2.4720
19958SOL     OW60451   1.453   1.853   3.021 -0.6242  0.7986  0.1030
19958SOL    HW160452   1.458   1.764   2.986  2.7665  0.7307  0.3731
19958SOL    HW260453   1.435   1.908   2.945 -3.8102 -0.1026  0.0939
19959SOL     OW60454   0.348   2.928   1.232 -0.2245 -0.4717 -0.2215
19959SOL    HW160455   0.281   2.967   1.176 -0.1180 -2.5029 -1.8996
19959SOL    HW260456   0.301   2.865   1.286  0.2990 -2.3325 -1.8151
19960SOL     OW60457   4.750   6.668   3.852  0.3760  0.1674 -0.1858
19960SOL    HW160458   4.795   6.681   3.936  1.3882  0.0412 -0.6832
19960SOL    HW260459   4.677   6.729   3.854 -0.1231 -0.4346  1.1347
19961SOL     OW60460   1.897   3.033   3.461 -0.0874  0.8093 -0.0988
19961SOL    HW160461   1.982   3.071   3.483  0.6797  0.5708 -2.3820
19961SOL    HW260462   1.869   2.990   3.542  0.8026  2.8847  1.4332
19962SOL     OW60463   6.017   6.147   1.585 -0.2380 -0.2694 -0.2026
19962SOL    HW160464   6.108   6.145   1.612 -0.0496  2.3177 -0.3684
19962SOL    HW260465   6.003   6.065   1.538  2.1687 -0.4291 -0.7250
19963SOL     OW60466   3.191   9.014   8.188  0.3720 -0.0302 -0.0711
19963SOL    HW160467   3.137   8.976   8.257  0.0332 -0.1447 -0.3966
19963SOL    HW260468   3.211   9.103   8.218 -0.9379  0.4146 -0.4594
19964SOL     OW60469   5.550   0.292   3.722  0.2207  0.2094  0.3364
19964SOL    HW160470   5.465   0.293   3.765  0.7828 -2.2755  1.7259
19964SOL    HW260471   5.531   0.261   3.633 -0.4334  0.8510  0.2428
19965SOL     OW60472   8.405   6.750   5.657 -0.2109 -0.6618 -0.2063
19965SOL    HW160473   8.434   6.816   5.593  0.4794 -0.5113  0.2433
19965SOL    HW260474   8.433   6.667   5.620  1.6378 -0.4602  0.6105
19966SOL     OW60475   2.707   8.889   6.249  0.5856  0.0055  0.0285
19966SOL    HW160476   2.678   8.945   6.322 -0.5629  0.7516 -0.9620
19966SOL    HW260477   2.647   8.815   6.251 -0.6353  0.8993 -1.2042
19967SOL     OW60478   8.875   6.403   0.588  0.2555  0.0978 -0.1562
19967SOL    HW160479   8.863   6.482   0.536 -0.1662 -0.4092 -0.8423
19967SOL    HW260480   8.966   6.408   0.618  0.0695  1.1124  0.2807
19968SOL     OW60481   2.030   5.968   3.394 -0.3998  0.4746 -0.1764
19968SOL    HW160482   2.038   5.944   3.302 -2.5073  0.6293 -0.4358
19968SOL    HW260483   2.073   6.053   3.400  0.1698  0.2518 -0.9108
19969SOL     OW60484   8.178   0.714   7.064  0.2655 -0.2066  0.4084
19969SOL    HW160485   8.110   0.718   7.132 -1.4362  0.7212 -1.2593
19969SOL    HW260486   8.136   0.671   6.990  1.7653 -0.3144 -0.4163
19970SOL     OW60487   2.257   2.105   0.539  0.4114  0.3000 -0.2080
19970SOL    HW160488   2.284   2.017   0.514  1.2877  0.8592 -1.2909
19970SOL    HW260489   2.337   2.157   0.536 -0.1274  1.1864  0.2228
19971SOL     OW60490   4.871   0.013   8.614 -0.0633  0.2176  0.4382
19971SOL    HW160491   4.782   0.044   8.628 -1.0625 -2.2268 -0.0395
19971SOL    HW260492   4.889  -0.044   8.689  1.5581  1.5461  1.1088
19972SOL     OW60493   5.545   5.950   5.154 -0.1947 -0.4158  0.2844
19972SOL    HW160494   5.617   5.901   5.193 -0.9846 -1.2914  0.6674
19972SOL    HW260495   5.475   5.886   5.142 -0.7259  0.2962 -0.6049
19973SOL     OW60496   4.704   8.793   5.411 -0.0155 -0.5126 -0.1609
19973SOL    HW160497   4.638   8.738   5.369  0.0277 -0.7468  0.0752
19973SOL    HW260498   4.748   8.735   5.473 -1.1049  0.2025  1.3175
19974SOL     OW60499   0.447   0.967   8.893  0.2896 -0.1163  1.2652
19974SOL    HW160500   0.405   1.002   8.971 -0.7763 -1.4593  1.3301
19974SOL    HW260501   0.375   0.949   8.833  1.0905  0.9466 -0.0764
19975SOL     OW60502   1.283   9.170   4.541  0.5552  0.0950  0.3955
19975SOL    HW160503   1.375   9.165   4.565  0.7095  1.4474  0.1426
19975SOL    HW260504   1.238   9.203   4.619  0.2096 -0.9304  0.6489
19976SOL     OW60505   5.644   7.122   8.576  0.3948  0.2110 -0.2615
19976SOL    HW160506   5.582   7.176   8.624  0.2613 -0.6929  0.6226
19976SOL    HW260507   5.590   7.055   8.534  0.6064  0.4314 -0.8896
19977SOL     OW60508   4.215   6.528   6.276  0.2346  0.5476  0.8533
19977SOL    HW160509   4.308   6.508   6.285  0.1547 -0.1365  0.2491
19977SOL    HW260510   4.195   6.511   6.184 -0.8593 -0.9627  1.3228
19978SOL     OW60511   0.538   5.802   2.741  0.1164 -0.5030  0.1692
19978SOL    HW160512   0.556   5.715   2.705  0.7983 -0.9732  1.6024
19978SOL    HW260513   0.611   5.820   2.800 -1.3006 -0.0942  1.9056
19979SOL     OW60514   9.572   6.988   2.716 -0.2221  0.1426  0.3109
19979SOL    HW160515   9.512   7.032   2.656 -0.9297 -1.1590  0.0121
19979SOL    HW260516   9.654   6.981   2.667  0.0252  1.4175  0.5030
19980SOL     OW60517   5.973   3.143   9.762  0.2899  0.0059  0.1859
19980SOL    HW160518   5.884   3.121   9.788  0.2583  0.3179  0.3422
19980SOL    HW260519   5.990   3.088   9.685 -0.8143  1.5046 -1.1970
19981SOL     OW60520   2.070   5.662   3.273  0.4092  0.3833  0.0587
19981SOL    HW160521   2.008   5.687   3.342 -1.3557  0.2715 -1.4001
19981SOL    HW260522   2.083   5.568   3.285 -2.3810 -0.3366 -1.5029
19982SOL     OW60523   0.661   8.494   9.172  0.5181  0.0149  0.5078
19982SOL    HW160524   0.692   8.403   9.176  1.7329  0.4536  2.7966
19982SOL    HW260525   0.610   8.498   9.091  1.6046 -2.3244 -0.4032
19983SOL     OW60526   4.737   6.647   7.648 -0.0335 -0.1985 -0.0524
19983SOL    HW160527   4.685   6.635   7.727 -1.1669  1.7944 -0.4583
19983SOL    HW260528   4.805   6.579   7.655  0.0025 -0.0037  2.6767
19984SOL     OW60529   9.275   0.297   3.230  0.3866 -0.2187  0.2554
19984SOL    HW160530   9.296   0.204   3.241  1.4963  0.1939  1.9563
19984SOL    HW260531   9.341   0.343   3.282 -1.5561  1.4111  1.4005
19985SOL     OW60532   8.513   6.631   4.671 -0.0294 -0.4940  0.3465
19985SOL    HW160533   8.445   6.566   4.657  0.9339 -1.4102 -0.2105
19985SOL    HW260534   8.577   6.614   4.602 -0.5256  2.1345 -0.8827
19986SOL     OW60535   3.468   3.383   4.474 -0.1432 -0.2161  0.4744
19986SOL    HW160536   3.424   3.349   4.396  0.0141 -0.0029  0.2933
19986SOL    HW260537   3.455   3.315   4.540 -1.0317 -0.0090  0.5219
19987SOL     OW60538   6.889   0.037   0.954  0.2053  0.1387  0.3009
19987SOL    HW160539   6.876   0.125   0.919  0.4235 -0.6148 -1.8071
19987SOL    HW260540   6.801   0.000   0.961  0.0998  0.5533  1.3486
19988SOL     OW60541   7.405   7.834   8.243  0.2090 -0.4678 -0.2431
19988SOL    HW160542   7.363   7.848   8.328  1.0882  0.3620  0.0792
19988SOL    HW260543   7.499   7.826   8.264  0.5638  0.8646 -1.2289
19989SOL     OW60544   5.767   6.495   1.727  0.0886 -0.3591 -0.1865
19989SOL    HW160545   5.841   6.553   1.744  0.7712 -1.3729  0.3919
19989SOL    HW260546   5.799   6.408   1.750 -0.6451 -1.1004 -1.8177
19990SOL     OW60547   7.076   7.438   8.545  0.3015  0.3286  0.2552
19990SOL    HW160548   6.997   7.441   8.490 -0.5951 -2.3981  1.2266
19990SOL    HW260549   7.053   7.489   8.622 -0.1789  0.2943  0.1407
19991SOL     OW60550   7.732   3.797   3.668 -0.5892 -0.1633 -0.2279
19991SOL    HW160551   7.710   3.774   3.577 -0.1295  0.6167 -0.5461
19991SOL    HW260552   7.799   3.734   3.694 -2.4045 -1.9432  0.4169
19992SOL     OW60553   0.226   3.885   2.380 -0.3397  0.1938  0.8935
19992SOL    HW160554   0.291   3.915   2.444  0.8393  1.7035 -0.8952
19992SOL    HW260555   0.159   3.953   2.380 -0.2223  0.3155  0.4008
19993SOL     OW60556   3.240   1.469   1.137  0.1722 -0.2535 -0.0762
19993SOL    HW160557   3.309   1.466   1.070 -0.6157 -1.3009 -0.8712
19993SOL    HW260558   3.183   1.395   1.117 -0.9125  0.2804  0.8785
19994SOL     OW60559   0.677   5.413   1.648 -0.0120  0.1353 -0.2347
19994SOL    HW160560   0.694   5.412   1.742  0.2305  0.1600 -0.2761
19994SOL    HW260561   0.721   5.492   1.617 -1.1636  0.8201 -0.1806
19995SOL     OW60562   6.522   3.978   6.284  0.2263 -0.0466 -0.3347
19995SOL    HW160563   6.462   3.996   6.212 -0.9883 -1.9697  0.1079
19995SOL    HW260564   6.468   3.935   6.350  1.6111  0.3450  1.1199
19996SOL     OW60565   2.332   5.686   1.633 -0.2685 -0.4712  0.0238
19996SOL    HW160566   2.361   5.763   1.585  0.6395 -0.7183  0.1563
19996SOL    HW260567   2.317   5.718   1.722 -2.1516  0.0317 -0.4193
19997SOL     OW60568   5.999   3.940   2.226 -0.1373  0.3243 -0.7246
19997SOL    HW160569   5.993   4.029   2.191 -1.4385  0.7721  0.5697
19997SOL    HW260570   6.005   3.951   2.320 -1.1424 -0.9834 -0.4885
19998SOL     OW60571   7.975   6.342   4.072 -0.1628  0.4268 -0.1628
19998SOL    HW160572   7.943   6.257   4.044  2.0823 -0.0674 -1.4603
19998SOL    HW260573   7.982   6.335   4.167  1.7166 -1.5176 -0.3849
19999SOL     OW60574   9.059   0.059   4.535 -0.5887  0.0624 -0.7333
19999SOL    HW160575   9.082   0.067   4.443 -1.1847 -0.6899 -0.9658
19999SOL    HW260576   9.126   0.108   4.582 -0.7440  1.1589 -1.6137
20000SOL     OW60577   9.042   3.867   5.431  0.7386 -0.1410  0.3780
20000SOL    HW160578   8.977   3.808   5.471 -1.5386  1.3887 -0.8964
20000SOL    HW260579   9.013   3.878   5.341  1.9234  1.8225  0.1840
20001SOL     OW60580   6.253   0.376   8.952  0.4713 -1.0679  0.1089
20001SOL    HW160581   6.298   0.451   8.913 -2.9195  0.8822 -0.4256
20001SOL    HW260582   6.304   0.356   9.031  1.8400  1.4232 -0.0308
20002SOL     OW60583   4.612   0.355   7.790  0.1212  0.5650 -0.2797
20002SOL    HW160584   4.697   0.319   7.814 -0.2085  1.0442  1.7291
20002SOL    HW260585   4.620   0.449   7.804 -0.6507  0.6508 -0.3641
20003SOL     OW60586   4.940   5.806   6.657  0.0266 -0.2763  0.4140
20003SOL    HW160587   4.866   5.829   6.601 -0.3331 -2.9881 -0.3861
20003SOL    HW260588   4.905   5.740   6.718  1.4935 -0.7770  0.7643
20004SOL     OW60589   5.326   6.726   9.941 -0.3159  0.0548 -0.3991
20004SOL    HW160590   5.349   6.679  10.021  0.8691 -1.5370 -1.6135
20004SOL    HW260591   5.371   6.811   9.949  0.6334 -0.4895  0.1810
20005SOL     OW60592   0.394   2.213   8.117 -0.4163  0.2705 -0.0933
20005SOL    HW160593   0.417   2.224   8.024 -0.9315 -1.4083 -0.4672
20005SOL    HW260594   0.411   2.120   8.134 -0.3054  0.5635  1.5178
20006SOL     OW60595   4.282   5.788   2.383  0.2421 -0.8869 -0.5636
20006SOL    HW160596   4.189   5.772   2.373  0.2700 -0.4143 -1.6882
20006SOL    HW260597   4.288   5.847   2.459 -0.3621 -0.9957 -0.4317
20007SOL     OW60598   0.871   0.794   6.042 -0.8763  1.0699 -0.1431
20007SOL    HW160599   0.881   0.708   6.001 -3.1090  1.4000 -1.5124
20007SOL    HW260600   0.832   0.776   6.127 -0.0015  0.6521  0.1801
20008SOL     OW60601   3.039   1.007   7.571  0.0599  0.4023 -0.3495
20008SOL    HW160602   3.054   1.100   7.553  0.9935  0.0524 -1.4439
20008SOL    HW260603   3.121   0.977   7.612  0.0665 -0.1237 -0.7413
20009SOL     OW60604   4.517   6.485   1.706 -0.6637 -0.2388  0.2735
20009SOL    HW160605   4.474   6.496   1.791 -0.0417  0.0172  0.5575
20009SOL    HW260606   4.586   6.552   1.705 -0.9644  0.0743 -0.6238
20010SOL     OW60607   3.992   4.748   6.355  0.0757  0.0013  0.3392
20010SOL    HW160608   3.950   4.833   6.340  1.2675  0.5676  0.0359
20010SOL    HW260609   3.933   4.684   6.315  0.2552  0.9123 -1.4715
20011SOL     OW60610   6.760   8.262   6.874  0.0633  0.5742 -0.0344
20011SOL    HW160611   6.692   8.248   6.939  1.4255 -0.8264  1.1847
20011SOL    HW260612   6.741   8.198   6.805 -0.4040  0.8929 -0.2111
20012SOL     OW60613   0.673   5.445   0.134 -0.4431 -0.0615  0.1478
20012SOL    HW160614   0.652   5.539   0.128 -2.8308 -0.6166 -1.3616
20012SOL    HW260615   0.733   5.439   0.209 -0.4504  2.6096  0.4835
20013SOL     OW60616   5.160   1.009   6.860  0.3526  0.1137  0.1311
20013SOL    HW160617   5.201   1.040   6.941  1.8960  1.6383 -1.1339
20013SOL    HW260618   5.234   0.991   6.802 -0.6746  1.8767 -1.8794
20014SOL     OW60619   1.742   6.473   7.356 -0.0042 -0.2964 -0.0387
20014SOL    HW160620   1.796   6.397   7.336 -1.0802 -1.2153  0.4315
20014SOL    HW260621   1.683   6.480   7.282 -0.6362 -0.6052  0.4283
20015SOL     OW60622   8.799   2.415   7.616 -0.3247  0.2313 -0.1453
20015SOL    HW160623   8.818   2.322   7.622 -0.3812  0.2670  0.7619
20015SOL    HW260624   8.728   2.430   7.679 -0.8937  0.7444 -0.8791
20016SOL     OW60625   9.910   1.489   1.321 -0.2939 -0.2143  0.5301
20016SOL    HW160626   9.983   1.516   1.377  1.6869 -0.8701 -1.5808
20016SOL    HW260627   9.909   1.554   1.250 -2.0656  0.0059  0.6981
20017SOL     OW60628   0.863   3.982   8.729 -0.0083  0.3611  0.2757
20017SOL    HW160629   0.885   4.029   8.810 -3.0047  1.0643  0.8052
20017SOL    HW260630   0.818   4.048   8.675 -2.6463 -1.3127  0.2565
20018SOL     OW60631   7.268   9.809   6.891 -0.6357 -0.1896 -0.5330
20018SOL    HW160632   7.209   9.734   6.884  0.4421 -1.0182 -0.8884
20018SOL    HW260633   7.237   9.870   6.824 -1.9750  0.0372  0.2468
20019SOL     OW60634   9.760   8.122   7.821 -0.3662 -0.2052  0.6532
20019SOL    HW160635   9.766   8.050   7.758 -0.2660 -0.3537  0.8345
20019SOL    HW260636   9.710   8.086   7.894  0.5556 -0.4065  1.1939
20020SOL     OW60637   8.633   1.643   9.585  0.0246  0.4657  0.2455
20020SOL    HW160638   8.675   1.729   9.587  0.4865  0.2639 -0.5721
20020SOL    HW260639   8.602   1.634   9.495 -0.2387 -0.1259  0.3919
20021SOL     OW60640   3.925   3.491   1.339 -0.2858  0.3396 -0.4740
20021SOL    HW160641   3.835   3.459   1.346 -0.5906  1.2354 -0.0973
20021SOL    HW260642   3.927   3.541   1.258 -0.3749  1.0340 -0.0625
20022SOL     OW60643   2.376   7.859   4.190  0.1601  0.2141  0.2905
20022SOL    HW160644   2.403   7.803   4.117  1.8387 -0.0951  1.0946
20022SOL    HW260645   2.334   7.934   4.149  3.4155  1.3691 -1.2140
20023SOL     OW60646   9.129   1.680   1.366  0.2326  0.3653  0.0033
20023SOL    HW160647   9.196   1.645   1.307  1.9169  0.7736  1.5902
20023SOL    HW260648   9.046   1.650   1.328  1.3591 -1.4961 -1.1649
20024SOL     OW60649   6.864   1.382   0.458 -0.1266 -0.1326 -0.4236
20024SOL    HW160650   6.835   1.401   0.547 -0.1715 -0.5541 -0.3463
20024SOL    HW260651   6.956   1.359   0.467 -0.5991 -2.1223 -0.2019
20025SOL     OW60652   2.139   0.753   4.604 -0.3469  0.3170  0.4582
20025SOL    HW160653   2.175   0.665   4.611 -1.5584 -0.1642  0.9116
20025SOL    HW260654   2.062   0.752   4.660 -1.2790  1.1956 -0.7581
20026SOL     OW60655   1.661   5.456   9.909 -0.4778 -0.3162 -0.2889
20026SOL    HW160656   1.696   5.392   9.971 -0.3953  1.4047  1.5392
20026SOL    HW260657   1.711   5.441   9.829  1.0171 -1.1332  0.7457
20027SOL     OW60658   1.275   6.767   4.834  0.2956 -0.3845 -0.0985
20027SOL    HW160659   1.304   6.775   4.742 -1.6007  0.5580 -0.6593
20027SOL    HW260660   1.345   6.809   4.884  2.2561 -2.4932 -0.8831
20028SOL     OW60661   4.949   8.635   4.245  0.3387  0.0212 -0.1433
20028SOL    HW160662   4.976   8.725   4.226 -1.8685  0.7545 -0.0668
20028SOL    HW260663   4.940   8.594   4.159 -1.1271  0.6795 -0.3281
20029SOL     OW60664   7.432   6.602   8.422 -0.4723 -0.0601 -0.5179
20029SOL    HW160665   7.424   6.655   8.501 -1.2562 -1.1265  0.1441
20029SOL    HW260666   7.512   6.552   8.434 -0.4576 -0.0346 -0.5122
20030SOL     OW60667   2.573   3.834   2.115 -0.6463  0.0174 -0.3494
20030SOL    HW160668   2.485   3.873   2.106 -0.1791  1.8609  2.0895
20030SOL    HW260669   2.605   3.829   2.025 -1.6954  3.2538 -1.0682
20031SOL     OW60670   0.998   3.707   6.243  0.1457  0.1733 -0.0656
20031SOL    HW160671   0.959   3.629   6.284  1.8670 -0.1760  0.9965
20031SOL    HW260672   0.926   3.770   6.239 -0.8044 -0.7972  0.8426
20032SOL     OW60673   2.744   1.519   9.060  0.5388 -0.7926  0.0235
20032SOL    HW160674   2.656   1.485   9.048  0.3499 -0.1590 -0.4897
20032SOL    HW260675   2.770   1.490   9.148 -0.1383 -1.0640  0.1403
20033SOL     OW60676   7.590   9.318   1.633  0.1832  0.0243  0.4410
20033SOL    HW160677   7.590   9.223   1.624  2.9845  0.0302 -0.5382
20033SOL    HW260678   7.631   9.350   1.553  0.7587  1.9642  1.4612
20034SOL     OW60679   0.191   0.859   5.952  0.2186  0.7271 -0.1448
20034SOL    HW160680   0.137   0.827   6.024  0.4566 -0.2197 -0.3630
20034SOL    HW260681   0.166   0.803   5.877  1.1386  0.5916 -0.3670
20035SOL     OW60682   4.593   5.480   5.528  0.2209 -0.5173  0.1077
20035SOL    HW160683   4.685   5.458   5.511  0.7840 -0.0804  2.2773
20035SOL    HW260684   4.552   5.396   5.548  0.2097 -0.6674 -0.5122
20036SOL     OW60685   9.058   9.147   3.475 -0.1264  0.2211 -0.0493
20036SOL    HW160686   9.021   9.181   3.394 -0.1195 -0.1431 -0.2069
20036SOL    HW260687   9.031   9.055   3.477 -0.6716  0.3923  0.6783
20037SOL     OW60688   4.428   6.637   3.908 -0.3297  0.0983 -0.2622
20037SOL    HW160689   4.440   6.607   3.818 -1.0149 -1.1478  0.0487
20037SOL    HW260690   4.370   6.572   3.948 -0.8710  1.1867  0.7868
20038SOL     OW60691   1.305   7.983   7.054  0.0828  0.0256  0.1983
20038SOL    HW160692   1.274   7.912   6.999  0.3911 -0.4298  0.5950
20038SOL    HW260693   1.227   8.016   7.098 -0.0346 -0.2027  0.1624
20039SOL     OW60694   6.143   4.047   5.821 -0.4252  0.3811  0.2751
20039SOL    HW160695   6.115   3.956   5.812  0.0957  0.2804 -0.4654
20039SOL    HW260696   6.111   4.089   5.741  1.6765  0.2087 -0.7261
20040SOL     OW60697   6.527   5.061   2.701  0.2073  0.2345 -0.2746
20040SOL    HW160698   6.455   5.117   2.672 -0.3031  0.9531  2.1458
20040SOL    HW260699   6.603   5.119   2.700  0.4504 -0.0922 -1.3421
20041SOL     OW60700   7.004   4.534   4.900  0.2264 -0.2896  0.6082
20041SOL    HW160701   7.057   4.461   4.931  0.1202 -1.8452 -2.5553
20041SOL    HW260702   6.932   4.494   4.851  0.3153  1.8922 -1.5049
20042SOL     OW60703   9.434   3.307   7.697  0.1922  0.0546  0.1345
20042SOL    HW160704   9.355   3.345   7.656 -0.2461 -1.3884 -0.4138
20042SOL    HW260705   9.494   3.294   7.624 -0.0020 -1.0901  0.1588
20043SOL     OW60706   7.145   9.373   2.213 -0.0241 -0.0003 -0.3316
20043SOL    HW160707   7.117   9.429   2.286 -1.5408  0.0322 -0.9089
20043SOL    HW260708   7.123   9.284   2.242 -0.2885 -0.0220 -0.6061
20044SOL     OW60709   1.468   2.279   6.623 -0.3004 -0.0559 -0.6051
20044SOL    HW160710   1.378   2.261   6.649 -0.7145  0.7777 -1.3898
20044SOL    HW260711   1.484   2.217   6.551 -0.5097  0.2961 -0.9591
20045SOL     OW60712   1.991   0.864   4.128 -0.4752 -0.6657 -0.4069
20045SOL    HW160713   1.914   0.919   4.143 -0.1322 -0.4746  0.7972
20045SOL    HW260714   2.037   0.865   4.212 -0.1594 -2.3210 -0.5339
20046SOL     OW60715   3.378   3.416   8.600 -0.1612  0.0916 -0.2603
20046SOL    HW160716   3.400   3.447   8.688 -0.6353  0.2661 -0.1996
20046SOL    HW260717   3.450   3.358   8.576 -0.3907 -0.5446  0.5448
20047SOL     OW60718   4.387   7.987   0.233 -0.3883  0.2146 -0.1201
20047SOL    HW160719   4.329   8.014   0.303  0.5983 -0.3603  0.9489
20047SOL    HW260720   4.353   8.030   0.155 -1.1985  1.2833  0.8013
20048SOL     OW60721   0.777   3.881   6.273  0.5566  0.1335  0.3178
20048SOL    HW160722   0.755   3.968   6.307  2.7384  0.2951  1.5098
20048SOL    HW260723   0.705   3.825   6.304 -2.5719  1.8561 -3.0165
20049SOL     OW60724   5.817   8.134   6.340 -0.0612  0.1462  0.3763
20049SOL    HW160725   5.762   8.156   6.415  0.1804  0.7710  0.3761
20049SOL    HW260726   5.786   8.192   6.270  0.3343  0.2258  0.2642
20050SOL     OW60727   8.885   6.213   0.951  0.1217 -0.3656 -0.9094
20050SOL    HW160728   8.845   6.256   0.875 -1.8370  0.1992  0.3665
20050SOL    HW260729   8.836   6.247   1.026  0.8838 -2.1567  0.4740
20051SOL     OW60730   4.161   5.165   6.100  0.1382  0.0740 -0.0485
20051SOL    HW160731   4.093   5.195   6.039  0.8056 -0.7188 -1.2236
20051SOL    HW260732   4.215   5.106   6.048  0.0293 -1.6286  1.6527
20052SOL     OW60733   9.749   6.447   6.104  0.3182 -0.0623 -0.1074
20052SOL    HW160734   9.837   6.466   6.074  0.3908  2.5310  1.3851
20052SOL    HW260735   9.759   6.377   6.169  0.9452 -1.2541 -1.4546
20053SOL     OW60736   9.938   1.346   9.669  0.2375  0.2284 -0.0741
20053SOL    HW160737   9.916   1.403   9.742  1.2146 -0.9409  1.1932
20053SOL    HW260738   9.890   1.382   9.594 -2.0427  0.5878  1.4525
20054SOL     OW60739   9.673   7.650   7.690 -0.3480 -0.5640 -0.4398
20054SOL    HW160740   9.709   7.681   7.773 -1.2917  1.1250 -0.6309
20054SOL    HW260741   9.685   7.722   7.629 -1.8442 -0.8544 -1.1367
20055SOL     OW60742   9.674   3.883   2.820  0.0229 -0.3088 -0.4463
20055SOL    HW160743   9.733   3.821   2.862  0.0026 -0.1637 -0.2033
20055SOL    HW260744   9.634   3.833   2.748 -1.5566 -1.2060  0.9853
20056SOL     OW60745   9.857   5.502   8.904  0.2750  0.5320  0.5870
20056SOL    HW160746   9.900   5.547   8.831  1.1843 -1.8591 -0.4476
20056SOL    HW260747   9.924   5.499   8.973  0.7566 -0.4805  0.1020
20057SOL     OW60748   0.579   8.101   0.686  0.0773  0.4156  0.1605
20057SOL    HW160749   0.659   8.102   0.634 -1.2289  1.9582 -1.9200
20057SOL    HW260750   0.549   8.010   0.683  1.2176  0.0241  0.1917
20058SOL     OW60751   1.285   2.473   2.709  0.1827  0.3592 -0.1749
20058SOL    HW160752   1.380   2.475   2.723  0.4134  0.7801 -1.6658
20058SOL    HW260753   1.248   2.487   2.796  1.5001  1.0497  0.3000
20059SOL     OW60754   6.969   7.002   5.551  0.1493 -0.1737  0.1504
20059SOL    HW160755   7.014   6.922   5.525 -1.7949 -1.1605 -0.3425
20059SOL    HW260756   7.034   7.050   5.602  1.7125 -1.5557 -0.4531
20060SOL     OW60757   7.333   2.211   4.430  0.0717  0.5426  0.3523
20060SOL    HW160758   7.334   2.305   4.414  1.3287  0.1608 -2.4764
20060SOL    HW260759   7.364   2.202   4.520  0.4234  2.8207  0.5241
20061SOL     OW60760   5.277   2.334   0.362 -0.3749  0.2851 -0.0550
20061SOL    HW160761   5.329   2.275   0.417  0.6846  1.7034  0.5365
20061SOL    HW260762   5.244   2.278   0.292  2.3406 -0.6369 -0.7390
20062SOL     OW60763   1.015   0.072   8.592  0.3493 -0.0581  0.3245
20062SOL    HW160764   1.066   0.028   8.525  0.3042  0.3437  0.0194
20062SOL    HW260765   1.078   0.095   8.660  0.8609  1.6562 -0.6631
20063SOL     OW60766   6.375   3.781   6.519  0.1628  0.1301 -0.2772
20063SOL    HW160767   6.325   3.699   6.516  0.6644 -0.4052  2.5399
20063SOL    HW260768   6.309   3.849   6.506 -0.7659 -0.6679  0.0844
20064SOL     OW60769   6.194   0.839   1.337 -0.1208 -0.0294  0.6068
20064SOL    HW160770   6.255   0.796   1.276 -1.1625 -0.8071  0.0737
20064SOL    HW260771   6.124   0.872   1.281 -0.7836 -0.1910  1.3237
20065SOL     OW60772   5.117   3.034   6.095  0.1743  0.0555  0.1169
20065SOL    HW160773   5.054   3.098   6.064  0.4968  1.0199  1.3655
20065SOL    HW260774   5.073   2.990   6.168  0.8684  0.6389  0.9056
20066SOL     OW60775   7.038   2.318   1.585 -0.2865 -0.1555  0.2262
20066SOL    HW160776   7.082   2.233   1.595 -0.1955 -0.1681 -0.2608
20066SOL    HW260777   7.054   2.363   1.668 -1.3749 -1.0926  0.9807
20067SOL     OW60778   0.170   1.200   5.229  0.0005 -0.0897 -0.2467
20067SOL    HW160779   0.188   1.115   5.190 -1.1341 -0.9946  1.1077
20067SOL    HW260780   0.250   1.250   5.216  0.4222 -1.0907 -1.7387
20068SOL     OW60781   4.844   0.098   4.451 -0.2451 -0.1645  0.2669
20068SOL    HW160782   4.801   0.015   4.430  0.2581  0.0540 -1.7820
20068SOL    HW260783   4.792   0.164   4.405  0.1998  0.4997  0.7017
20069SOL     OW60784   9.770   7.525   5.871  0.2870  0.1697 -0.0638
20069SOL    HW160785   9.723   7.451   5.832 -0.1656 -0.9950  2.4670
20069SOL    HW260786   9.704   7.569   5.925  2.0419 -2.1744  4.5435
20070SOL     OW60787   7.961   7.650   9.238 -0.2982 -0.0259  0.2066
20070SOL    HW160788   7.958   7.573   9.294 -1.2129  0.8151  1.3638
20070SOL    HW260789   8.053   7.674   9.233 -0.2502  0.1779  1.7809
20071SOL     OW60790   8.329   2.052   3.605 -0.2701 -0.3115 -0.3860
20071SOL    HW160791   8.332   2.123   3.541  1.1102  1.1135  1.1902
20071SOL    HW260792   8.420   2.037   3.629 -0.7950 -0.1291  1.9312
20072SOL     OW60793   1.532   8.678   6.626  0.3094 -0.1012 -0.5089
20072SOL    HW160794   1.585   8.738   6.574 -0.8653 -0.6929 -2.5328
20072SOL    HW260795   1.442   8.710   6.616 -0.1432 -1.2224 -0.2838
20073SOL     OW60796   5.781   9.578   5.585 -0.3559  0.7561  0.1496
20073SOL    HW160797   5.821   9.547   5.504 -0.3274  1.3229 -0.0531
20073SOL    HW260798   5.778   9.673   5.577 -2.3583  0.7246 -0.1379
20074SOL     OW60799   7.017   6.009   6.158 -0.2748  0.1573  0.0280
20074SOL    HW160800   7.017   6.096   6.199  3.0526  0.1846  0.2155
20074SOL    HW260801   6.991   5.950   6.229  1.5917  0.6142  1.1514
20075SOL     OW60802   7.580   6.062   2.628 -0.3081  0.1020  0.4855
20075SOL    HW160803   7.543   6.000   2.691  2.6311 -3.0179 -0.5248
20075SOL    HW260804   7.549   6.032   2.543  1.8633 -0.7128 -0.1005
20076SOL     OW60805   1.992   8.106   9.170  0.3362 -0.0582  0.4453
20076SOL    HW160806   1.982   8.071   9.081  1.0159 -2.5037  1.2550
20076SOL    HW260807   2.086   8.105   9.185  0.2383  0.5300  1.1375
20077SOL     OW60808   3.297   9.352   1.064 -0.2996 -0.1349  0.0944
20077SOL    HW160809   3.359   9.411   1.107  0.8849 -0.8862 -0.5268
20077SOL    HW260810   3.347   9.272   1.048 -1.6011 -0.9749  0.0695
20078SOL     OW60811   6.611   5.138   4.619  0.1356  0.0944  0.0067
20078SOL    HW160812   6.653   5.071   4.673  1.2186 -0.3136 -1.2995
20078SOL    HW260813   6.676   5.160   4.553 -1.1180  0.6683 -1.0753
20079SOL     OW60814   6.164   0.134   6.668 -0.0050  0.5722 -0.1868
20079SOL    HW160815   6.194   0.071   6.602  0.1550 -0.4750  0.8430
20079SOL    HW260816   6.112   0.081   6.729 -0.5638  1.6092  0.2590
20080SOL     OW60817   7.916   2.941   8.216 -0.0873 -0.0875 -0.4835
20080SOL    HW160818   7.915   2.878   8.288  1.7137  0.6857  0.2726
20080SOL    HW260819   7.876   3.020   8.252 -0.2643 -0.0610 -0.7291
20081SOL     OW60820   2.842   6.665   0.044 -0.3595  0.0614  0.2405
20081SOL    HW160821   2.877   6.665   0.133 -2.6210 -1.4026  1.2157
20081SOL    HW260822   2.747   6.657   0.056 -0.6734 -0.7441 -2.3161
20082SOL     OW60823   5.348   6.935   5.097  0.2515  0.2856 -0.3377
20082SOL    HW160824   5.430   6.914   5.143 -1.0566 -0.9982  1.5472
20082SOL    HW260825   5.335   6.861   5.038  0.3523  0.4065 -0.5127
20083SOL     OW60826   0.957   7.075   3.255  0.2246 -0.3388 -0.6501
20083SOL    HW160827   1.031   7.108   3.204  0.0929 -0.6169 -1.0144
20083SOL    HW260828   0.880   7.095   3.202  0.1599 -1.4866 -1.0102
20084SOL     OW60829   0.211   8.763   9.187 -0.1836  0.0485 -0.5878
20084SOL    HW160830   0.221   8.686   9.242 -0.9137  1.2786  1.3935
20084SOL    HW260831   0.300   8.788   9.165  0.1327 -0.5115  0.0182
20085SOL     OW60832   3.143   6.385   8.624  0.5489  0.2153  0.2812
20085SOL    HW160833   3.139   6.480   8.616  2.6666  0.6677  3.0095
20085SOL    HW260834   3.194   6.356   8.549 -0.9037  1.0451 -1.1011
20086SOL     OW60835   0.754   7.556   2.428 -0.2267  0.0210 -0.5421
20086SOL    HW160836   0.682   7.534   2.369 -0.3981  1.2323 -0.7978
20086SOL    HW260837   0.831   7.518   2.386 -0.1184  2.0501 -2.3218
20087SOL     OW60838   9.024   0.076   9.475 -0.5840 -0.1598 -0.7214
20087SOL    HW160839   8.945   0.126   9.455  0.1319  1.5181  0.4016
20087SOL    HW260840   9.085   0.098   9.405 -0.0379  1.1827  0.1156
20088SOL     OW60841   0.377   5.316   3.430  0.4844  0.2533  0.1069
20088SOL    HW160842   0.416   5.251   3.489  0.8592  1.5276  1.3135
20088SOL    HW260843   0.285   5.320   3.457  0.2141 -0.4871 -0.6536
20089SOL     OW60844   5.823   2.522   1.853 -0.0201  0.0042  0.5790
20089SOL    HW160845   5.758   2.536   1.783  0.7539 -1.7275 -0.5368
20089SOL    HW260846   5.900   2.488   1.808  0.6910 -0.6740  2.2371
20090SOL     OW60847   6.562   4.389   3.957  0.3269 -0.5489  0.3618
20090SOL    HW160848   6.612   4.449   4.012 -0.2703 -0.7171  1.1022
20090SOL    HW260849   6.629   4.343   3.906  0.8383  0.1929  0.3349
20091SOL     OW60850   3.816   4.129   0.026 -0.0381  0.3327  0.2575
20091SOL    HW160851   3.838   4.157  -0.062  1.0644  2.4973  1.1354
20091SOL    HW260852   3.731   4.170   0.044 -0.3703 -0.2930  0.1316
20092SOL     OW60853   3.271   8.969   3.194  0.1381 -0.0529  0.2156
20092SOL    HW160854   3.182   8.993   3.220  0.7693  1.6274  0.9785
20092SOL    HW260855   3.295   9.034   3.128  1.2464  0.2802  0.9355
20093SOL     OW60856   2.217   4.696   0.629 -0.1492 -0.4388 -0.1467
20093SOL    HW160857   2.167   4.640   0.688 -0.5029 -0.1726 -0.1851
20093SOL    HW260858   2.263   4.636   0.572 -1.5634 -0.7071 -1.0603
20094SOL     OW60859   6.898  -0.006   9.763  0.7773  0.5190 -0.0239
20094SOL    HW160860   6.868   0.064   9.705  1.1460  1.0942  0.4601
20094SOL    HW260861   6.993   0.007   9.769  0.8288  0.0621  0.1767
20095SOL     OW60862   1.593   0.416   1.057  0.1906 -0.4601 -0.0659
20095SOL    HW160863   1.510   0.391   1.097 -0.5170  0.6499 -0.7884
20095SOL    HW260864   1.608   0.506   1.085  0.5001 -0.2269 -0.9321
20096SOL     OW60865   8.152   8.015   4.686 -0.2920 -0.3463  0.2907
20096SOL    HW160866   8.199   8.096   4.664 -0.0500 -0.4396  0.4542
20096SOL    HW260867   8.211   7.969   4.747  1.0246 -2.1200 -2.1544
20097SOL     OW60868   5.710   0.414   8.611 -0.2350 -0.6576 -0.2258
20097SOL    HW160869   5.769   0.377   8.545  0.3759 -2.9749  1.5050
20097SOL    HW260870   5.767   0.467   8.667 -0.7223  1.1559 -1.3667
20098SOL     OW60871   5.404   8.198   3.743 -0.0992 -0.2764 -0.2853
20098SOL    HW160872   5.482   8.148   3.720  0.4291  0.4983 -0.2409
20098SOL    HW260873   5.433   8.257   3.813 -1.0620 -0.8871  0.6522
20099SOL     OW60874   5.653   4.403   9.755 -0.2645 -0.8287 -0.6984
20099SOL    HW160875   5.621   4.318   9.783  0.3108 -0.6054  0.7201
20099SOL    HW260876   5.657   4.455   9.835  0.2057  0.2734 -1.4062
20100SOL     OW60877   6.839   8.828   7.547  0.0556 -0.8244  0.1778
20100SOL    HW160878   6.807   8.737   7.553 -1.2573 -0.3177  1.2630
20100SOL    HW260879   6.817   8.854   7.457  0.1046 -1.4450 -0.0260
20101SOL     OW60880   3.132   3.418   5.708  0.2539 -0.3614 -0.2364
20101SOL    HW160881   3.197   3.483   5.681 -0.2106  0.1312 -0.1856
20101SOL    HW260882   3.119   3.364   5.630 -0.3034  0.4066 -0.6927
20102SOL     OW60883   3.946   8.269   3.351  0.0939  0.0040 -0.8333
20102SOL    HW160884   4.005   8.206   3.393  0.3338  0.6271 -0.2238
20102SOL    HW260885   3.887   8.215   3.298 -0.4194 -0.8405  0.5384
20103SOL     OW60886   7.755   1.846   4.256  0.4436  0.3880  0.1420
20103SOL    HW160887   7.825   1.783   4.237 -0.2372  0.1222 -1.7658
20103SOL    HW260888   7.675   1.804   4.223 -0.2346  1.6883  0.0488
20104SOL     OW60889   1.231   6.123   0.485 -0.1621 -0.4726  0.7028
20104SOL    HW160890   1.297   6.158   0.424  0.8019 -1.7635  0.9568
20104SOL    HW260891   1.189   6.053   0.436  0.0932 -1.0148  1.2508
20105SOL     OW60892   1.000   8.604   6.884  0.2878 -0.3490 -0.1305
20105SOL    HW160893   0.965   8.691   6.866  0.3263 -0.4530 -0.7346
20105SOL    HW260894   0.926   8.545   6.872  0.1726 -0.3665  0.6392
20106SOL     OW60895   2.325   2.668   8.355  0.0800  0.4022  0.6366
20106SOL    HW160896   2.234   2.639   8.362  0.3967 -0.5783  0.8987
20106SOL    HW260897   2.377   2.588   8.369  1.0224  1.2232  2.0273
20107SOL     OW60898   9.166   1.076   3.954  0.3809 -0.4728 -0.8872
20107SOL    HW160899   9.074   1.059   3.936  0.7934 -2.7141 -1.2220
20107SOL    HW260900   9.167   1.158   4.002 -1.7573 -0.2697 -1.1034
20108SOL     OW60901   1.427   3.960   6.719  0.1151 -0.6151  0.1067
20108SOL    HW160902   1.521   3.946   6.725  0.2212  0.1957  0.5248
20108SOL    HW260903   1.417   4.055   6.712 -0.6445 -0.7326 -0.6351
20109SOL     OW60904   2.352   1.340   8.008  0.1031 -0.0367 -0.4560
20109SOL    HW160905   2.285   1.331   8.075  0.2724 -2.2380 -0.5133
20109SOL    HW260906   2.432   1.309   8.050  0.5595  0.1500 -1.1717
20110SOL     OW60907   2.469   5.274   3.575 -0.2364  0.7173 -1.1475
20110SOL    HW160908   2.521   5.297   3.498 -0.2926  0.5644 -1.2301
20110SOL    HW260909   2.409   5.348   3.586 -0.4737  0.5744 -1.4649
20111SOL     OW60910   9.502   6.701   9.038 -0.7164  0.4082 -0.1211
20111SOL    HW160911   9.510   6.778   9.094  0.8352  0.8183 -0.8544
20111SOL    HW260912   9.415   6.666   9.058 -1.3774  2.2109  0.4014
20112SOL     OW60913   6.635   2.161   7.752  0.5736 -0.2184  0.0421
20112SOL    HW160914   6.708   2.142   7.692  0.8668  0.7903  0.0480
20112SOL    HW260915   6.557   2.129   7.707  0.7779  0.6238 -0.9552
20113SOL     OW60916   0.816   0.478   6.812  0.0081  0.4775  0.1790
20113SOL    HW160917   0.890   0.466   6.752  0.2107  2.0181  0.1011
20113SOL    HW260918   0.845   0.436   6.894 -0.8760 -3.0759 -1.1417
20114SOL     OW60919   0.305   1.328   6.901  0.0594  0.3829  0.0228
20114SOL    HW160920   0.222   1.282   6.888  0.5085 -0.3583 -0.3304
20114SOL    HW260921   0.368   1.258   6.917  0.7735  0.8701 -0.5882
20115SOL     OW60922   1.183   3.897   8.340  0.3519  0.3116 -0.0635
20115SOL    HW160923   1.216   3.971   8.289 -0.2567  1.2161  0.8216
20115SOL    HW260924   1.186   3.927   8.431  0.9443 -1.0853  0.4055
20116SOL     OW60925   9.425   7.703   5.681 -0.3729  0.2577  0.3584
20116SOL    HW160926   9.390   7.773   5.627  0.0798 -0.2146 -0.5737
20116SOL    HW260927   9.419   7.625   5.627  0.8307 -0.0824  0.6745
20117SOL     OW60928   9.733   1.757   5.526 -0.6612 -1.0953  0.2319
20117SOL    HW160929   9.674   1.684   5.542  1.6298 -2.7076  2.0405
20117SOL    HW260930   9.800   1.722   5.467  0.1532 -0.3190  0.6532
20118SOL     OW60931   9.067   7.087   3.801  0.2079 -0.2153  0.0283
20118SOL    HW160932   9.103   7.035   3.729  1.3014 -1.3271  1.3126
20118SOL    HW260933   8.991   7.130   3.764  1.2158 -0.0838 -2.0253
20119SOL     OW60934   4.079   1.714   4.320 -0.3854 -0.1619  0.2180
20119SOL    HW160935   4.046   1.660   4.392  1.4031  0.0205  1.2489
20119SOL    HW260936   4.153   1.665   4.285 -0.5702  0.2624 -0.8127
20120SOL     OW60937   2.534   0.544   8.453 -0.0946 -0.0119 -0.2521
20120SOL    HW160938   2.444   0.515   8.466  0.1898 -0.5517  0.5883
20120SOL    HW260939   2.586   0.487   8.510  0.5680  1.5863  0.8129
20121SOL     OW60940   4.935   1.164   5.098 -0.0023  0.1457  0.0781
20121SOL    HW160941   4.980   1.123   5.023  1.2817  0.7219  0.4974
20121SOL    HW260942   5.005   1.211   5.144 -1.0899  1.2066  0.6845
20122SOL     OW60943   0.699   5.259   1.426 -0.7508  0.1012 -0.0938
20122SOL    HW160944   0.658   5.316   1.362 -0.3556 -0.2612 -0.6826
20122SOL    HW260945   0.669   5.291   1.511 -0.7865  0.9757 -0.4346
20123SOL     OW60946   4.178   7.064   4.423 -0.7078 -0.3567 -0.3235
20123SOL    HW160947   4.255   7.100   4.466 -2.0051  1.3029  0.7380
20123SOL    HW260948   4.106   7.119   4.452 -2.3523 -1.9551 -1.1336
20124SOL     OW60949   2.808   3.694   0.283 -0.1618  0.3812 -0.0480
20124SOL    HW160950   2.738   3.733   0.336 -0.3799 -0.3057  0.1873
20124SOL    HW260951   2.772   3.692   0.194 -1.6448 -2.5417  0.4918
20125SOL     OW60952   3.922   7.182  -0.020 -0.0913 -0.6169 -0.6035
20125SOL    HW160953   3.900   7.090  -0.032 -1.8827 -0.2113 -0.6353
20125SOL    HW260954   3.920   7.196   0.075  0.1295 -0.5871 -0.6012
20126SOL     OW60955   6.279   2.571   8.623  0.2259  0.1737  0.4220
20126SOL    HW160956   6.363   2.573   8.578  1.0816  0.9696  1.9681
20126SOL    HW260957   6.230   2.644   8.584 -0.4731 -1.3140 -1.6810
20127SOL     OW60958   0.634   7.587   4.325  0.7030  0.6290  0.4948
20127SOL    HW160959   0.547   7.626   4.318 -0.3224 -1.3038  1.5405
20127SOL    HW260960   0.635   7.520   4.256  1.3708  0.6343  0.4923
20128SOL     OW60961   1.112   4.078   2.122  0.0251  0.6919  0.5540
20128SOL    HW160962   1.180   4.083   2.054 -0.2426  1.7602  0.3458
20128SOL    HW260963   1.160   4.057   2.202  0.2909 -1.1226 -0.0243
20129SOL     OW60964   7.900   6.627   4.660  0.7988  0.3182  0.3216
20129SOL    HW160965   7.810   6.604   4.685  0.4507  0.1446 -1.0138
20129SOL    HW260966   7.903   6.722   4.664 -0.2299  0.5183 -2.0063
20130SOL     OW60967   8.816   5.078   5.697  0.0406  0.2707  0.0763
20130SOL    HW160968   8.759   5.006   5.670  0.0129  0.4405 -0.3219
20130SOL    HW260969   8.782   5.106   5.781 -1.3532  1.3180 -0.8021
20131SOL     OW60970   9.910   0.830   4.998  0.4942 -0.4150 -0.1123
20131SOL    HW160971   9.948   0.766   5.058  0.8904  1.0544  1.2733
20131SOL    HW260972   9.817   0.831   5.021  0.3314 -1.0924 -0.7205
20132SOL     OW60973   0.370   5.372   9.213  0.0380 -0.3412 -0.5747
20132SOL    HW160974   0.391   5.441   9.276  0.3133  0.2280 -1.2842
20132SOL    HW260975   0.300   5.322   9.255  0.1598  0.0806  0.1464
20133SOL     OW60976   7.305   8.031   9.634 -0.2595 -0.0405  0.5433
20133SOL    HW160977   7.266   7.984   9.708 -1.3996  1.5770  1.0336
20133SOL    HW260978   7.242   8.022   9.564 -0.1779  0.2072  0.4373
20134SOL     OW60979   0.979   3.311   1.123 -0.1661 -0.4821  0.0556
20134SOL    HW160980   0.899   3.304   1.175 -0.7289  0.7391 -0.6131
20134SOL    HW260981   1.045   3.264   1.174 -0.9708 -0.3074  1.2900
20135SOL     OW60982   9.853   8.655   4.154  0.1992 -0.1062  0.2547
20135SOL    HW160983   9.880   8.747   4.147  0.9553 -0.4249 -1.5677
20135SOL    HW260984   9.932   8.609   4.183  1.3751 -0.7986 -3.4831
20136SOL     OW60985   3.653   6.719   1.853  0.0134 -0.0278  0.0710
20136SOL    HW160986   3.619   6.767   1.928  2.0286 -1.1109  1.8041
20136SOL    HW260987   3.648   6.627   1.878  4.3949 -0.3119  0.7918
20137SOL     OW60988   7.096   1.078   1.979 -0.2266  0.2076  0.1959
20137SOL    HW160989   7.036   1.032   2.037 -0.2584  1.6054  1.3249
20137SOL    HW260990   7.114   1.016   1.908 -1.5998 -0.8763  0.7606
20138SOL     OW60991   9.608   3.718   4.972  0.1352  0.6026  0.2037
20138SOL    HW160992   9.564   3.771   5.039 -0.2763  0.5543 -0.0288
20138SOL    HW260993   9.580   3.629   4.991 -0.2823  0.6316 -0.2638
20139SOL     OW60994   4.729   5.391   9.658 -0.3227  0.1931  0.5088
20139SOL    HW160995   4.668   5.443   9.710 -0.7180 -0.7064  0.9723
20139SOL    HW260996   4.681   5.372   9.577 -0.6392 -0.4495  0.8417
20140SOL     OW60997   1.294   5.284   6.857 -0.2944  0.3023  0.1277
20140SOL    HW160998   1.302   5.227   6.933  0.1619 -1.2523 -1.0257
20140SOL    HW260999   1.319   5.228   6.783 -0.9828  1.6791 -1.1916
20141SOL     OW61000   8.196   7.438   6.690 -0.6885  0.2389 -0.8055
20141SOL    HW161001   8.208   7.489   6.609 -1.5784 -2.0212 -2.4861
20141SOL    HW261002   8.118   7.386   6.673  0.0875 -1.5599  0.8352
20142SOL     OW61003   6.390   4.440   4.195 -0.3581  0.3409  0.4382
20142SOL    HW161004   6.432   4.517   4.234 -1.7783  2.7595 -2.4186
20142SOL    HW261005   6.339   4.475   4.122 -3.3733 -3.0016  0.6816
20143SOL     OW61006   1.680   5.783   4.101 -0.1353 -0.1118  0.0601
20143SOL    HW161007   1.606   5.784   4.161  1.0307  1.4393  1.5579
20143SOL    HW261008   1.752   5.822   4.150  1.5173 -0.9587 -1.5702
20144SOL     OW61009   1.829   7.250   1.165  0.1242 -0.1716 -0.2633
20144SOL    HW161010   1.896   7.234   1.098  0.5926 -0.3816  0.2481
20144SOL    HW261011   1.800   7.339   1.147  0.0481 -0.3199 -0.9159
20145SOL     OW61012   3.666   7.533   2.621 -0.0975 -0.5647  0.0183
20145SOL    HW161013   3.714   7.471   2.676  1.3953  0.1327 -0.4439
20145SOL    HW261014   3.679   7.618   2.664 -2.7548 -0.6016  1.0652
20146SOL     OW61015   8.850   5.234   5.471  0.6453  0.0955  0.1565
20146SOL    HW161016   8.759   5.246   5.441  0.8547 -1.1172 -1.0701
20146SOL    HW261017   8.843   5.170   5.541  0.4978  0.3826  0.4046
20147SOL     OW61018   6.254   1.812   5.978  0.3937 -0.3058 -0.3799
20147SOL    HW161019   6.283   1.777   5.894  1.1972 -0.2050 -0.1541
20147SOL    HW261020   6.310   1.769   6.043  0.3352  0.2304  0.0362
20148SOL     OW61021   6.049   7.570   2.309 -0.2649  0.1724 -0.2494
20148SOL    HW161022   6.025   7.477   2.316  1.1794 -0.1541  1.0326
20148SOL    HW261023   6.141   7.572   2.336 -0.8751  2.2757  1.9464
20149SOL     OW61024   5.311   4.414   7.174  0.2844 -0.2631 -0.3139
20149SOL    HW161025   5.217   4.402   7.187  0.4247  1.5686  3.6964
20149SOL    HW261026   5.347   4.325   7.172 -1.3462 -0.9560 -0.4913
20150SOL     OW61027   9.772   8.813   6.329  0.3094  0.1512  1.5069
20150SOL    HW161028   9.835   8.769   6.271 -2.6771  0.0483 -2.1085
20150SOL    HW261029   9.796   8.905   6.326 -1.2537  0.6370 -2.5181
20151SOL     OW61030   3.246   5.417   1.557  0.2880  0.0118 -0.0009
20151SOL    HW161031   3.267   5.404   1.464 -1.3461 -0.1583 -0.3619
20151SOL    HW261032   3.181   5.487   1.558 -0.8546 -1.0194  0.8856
20152SOL     OW61033   3.890   8.009   8.370  0.1114  0.0037  0.4473
20152SOL    HW161034   3.951   7.958   8.317 -1.0371 -1.2467  0.2689
20152SOL    HW261035   3.861   7.948   8.438 -2.5880 -0.2127 -0.7542
20153SOL     OW61036   6.390   6.381   8.116 -0.5282  0.1086  0.1427
20153SOL    HW161037   6.313   6.409   8.068 -0.5583 -0.8983 -0.4177
20153SOL    HW261038   6.380   6.286   8.126  0.3115  0.0538  0.6374
20154SOL     OW61039   2.567   8.585   6.780 -0.0160 -0.1638  0.1141
20154SOL    HW161040   2.645   8.536   6.753  1.1602  0.9049  1.4369
20154SOL    HW261041   2.575   8.669   6.736 -0.0146  0.2322  0.8637
20155SOL     OW61042   1.347   4.460   1.316 -0.0082  0.2721  0.4109
20155SOL    HW161043   1.351   4.413   1.233  2.6059  1.1704 -0.0451
20155SOL    HW261044   1.264   4.509   1.312 -0.2232 -0.1803 -1.3940
20156SOL     OW61045   8.492   1.907   6.464 -0.3825 -0.0773 -0.2496
20156SOL    HW161046   8.504   1.910   6.559 -1.2590 -2.3639 -0.0002
20156SOL    HW261047   8.469   1.997   6.440  3.1391  1.3817  1.1296
20157SOL     OW61048   4.825   1.836   3.289  0.0304 -0.6169  0.6410
20157SOL    HW161049   4.868   1.771   3.345  1.2771  1.0076  1.6869
20157SOL    HW261050   4.775   1.891   3.349 -2.0761 -1.3206 -0.3652
20158SOL     OW61051   6.856   3.712   5.638  0.5135 -0.2734  0.1851
20158SOL    HW161052   6.761   3.727   5.646  0.7813  2.6299 -0.9194
20158SOL    HW261053   6.867   3.619   5.658 -2.7488 -1.0723 -1.0585
20159SOL     OW61054   5.253   8.787   2.011  0.3127  0.1843  0.1508
20159SOL    HW161055   5.266   8.782   1.916 -1.0797 -1.2489 -0.0230
20159SOL    HW261056   5.158   8.781   2.022  0.3356  1.8172  1.5938
20160SOL     OW61057   8.200   1.698   8.438  0.2700 -0.3120  0.0959
20160SOL    HW161058   8.236   1.688   8.526  0.2972 -0.9676  0.0146
20160SOL    HW261059   8.271   1.673   8.380 -1.0462 -4.5282 -0.0470
20161SOL     OW61060   2.373   8.217   8.196  0.2211  0.2004  0.0416
20161SOL    HW161061   2.355   8.265   8.277  2.3120  0.0872  0.6423
20161SOL    HW261062   2.461   8.246   8.171  0.4085 -1.2643 -1.1039
20162SOL     OW61063   7.381   8.248   4.234 -0.6149 -0.2567  0.4315
20162SOL    HW161064   7.453   8.311   4.242 -1.0090  0.3425 -0.5364
20162SOL    HW261065   7.319   8.274   4.302 -0.6712  0.2750  0.1836
20163SOL     OW61066   0.297   6.709   1.192 -0.1942  0.5600 -0.1103
20163SOL    HW161067   0.283   6.658   1.113 -0.7760 -0.0942  0.4072
20163SOL    HW261068   0.247   6.664   1.260 -1.8935  2.5690  0.0847
20164SOL     OW61069   2.921   8.105   1.544  0.4140 -0.3519  1.1843
20164SOL    HW161070   2.899   8.162   1.471  0.2851  0.8701  2.1271
20164SOL    HW261071   2.897   8.017   1.515  0.9408  0.0119 -0.4462
20165SOL     OW61072   7.469   7.334   2.143 -0.3413 -0.1505  0.0906
20165SOL    HW161073   7.400   7.268   2.141 -0.8406  0.3642  0.0300
20165SOL    HW261074   7.473   7.368   2.053  0.4933 -0.6748 -0.0882
20166SOL     OW61075   2.898   1.095   5.288 -0.5080  0.0949  0.0335
20166SOL    HW161076   2.833   1.130   5.227  0.0823 -0.4728 -0.9519
20166SOL    HW261077   2.853   1.092   5.372 -1.6418  0.0579 -0.5547
20167SOL     OW61078   2.698   5.087   2.599 -0.2844 -0.1219  0.4290
20167SOL    HW161079   2.621   5.132   2.635 -1.4016 -0.8611 -0.9286
20167SOL    HW261080   2.718   5.019   2.663 -2.7871 -1.9937 -0.6362
20168SOL     OW61081   6.242   7.366   8.006 -0.1255  0.0835  0.1572
20168SOL    HW161082   6.229   7.407   8.091  1.2974  0.1953  0.3433
20168SOL    HW261083   6.302   7.293   8.023 -0.5842 -0.4936 -0.5971
20169SOL     OW61084   4.239   7.976   7.482  0.3167  0.3201 -0.3794
20169SOL    HW161085   4.284   7.971   7.397  1.1344 -1.8560  0.1118
20169SOL    HW261086   4.310   7.978   7.546 -0.2635 -0.6815  0.3235
20170SOL     OW61087   4.645   6.030   6.724 -0.1976 -0.0247  0.3652
20170SOL    HW161088   4.719   6.045   6.665 -0.3078 -2.8352 -0.6521
20170SOL    HW261089   4.572   6.009   6.667 -1.2990  0.8054  1.4233
20171SOL     OW61090   2.989   1.461   4.590  0.2269  0.4407  0.3294
20171SOL    HW161091   3.005   1.556   4.595  1.1141  0.2422  1.6143
20171SOL    HW261092   2.990   1.443   4.496 -0.3183  1.7569  0.0407
20172SOL     OW61093   3.122   0.575   7.369  0.4922  0.0596 -0.2500
20172SOL    HW161094   3.204   0.608   7.333  2.2744 -4.1869 -0.6638
20172SOL    HW261095   3.145   0.539   7.454 -0.6602 -1.9477 -0.7099
20173SOL     OW61096   7.785   9.561   0.345  0.1324 -0.4210  0.4345
20173SOL    HW161097   7.713   9.533   0.402  0.0001 -0.2956  0.3316
20173SOL    HW261098   7.798   9.653   0.367  0.0018 -0.3394  0.1824
20174SOL     OW61099   4.881   2.696   5.733 -0.4437  0.6407 -0.4005
20174SOL    HW161100   4.821   2.727   5.800 -0.8136  2.5610 -1.5386
20174SOL    HW261101   4.947   2.765   5.726 -0.1604  0.2710 -1.6764
20175SOL     OW61102   5.705   8.848   3.903  0.0811 -0.0895 -0.0655
20175SOL    HW161103   5.694   8.768   3.852  1.8518 -0.2819 -0.2238
20175SOL    HW261104   5.650   8.912   3.859  0.2912 -0.6809 -1.2378
20176SOL     OW61105   0.970   3.381   9.424  0.4031  0.6078  0.3290
20176SOL    HW161106   0.910   3.307   9.417  0.6133  0.2580  1.9011
20176SOL    HW261107   0.913   3.456   9.441  0.2055  0.8037 -1.0832
20177SOL     OW61108   8.056   2.244   4.533 -0.0151  0.5177 -1.0618
20177SOL    HW161109   7.969   2.278   4.511 -0.9519 -1.3476 -0.4521
20177SOL    HW261110   8.097   2.227   4.448 -1.1763 -0.7621 -1.4057
20178SOL     OW61111   2.377   0.282   9.919  0.2358 -0.4996  0.3077
20178SOL    HW161112   2.447   0.318   9.974  0.4193 -1.1917  0.5353
20178SOL    HW261113   2.297   0.324   9.953  0.4692 -0.1442  0.4249
20179SOL     OW61114   5.789   8.446   1.115 -0.8600 -0.6468 -0.5110
20179SOL    HW161115   5.720   8.435   1.049 -0.0956 -0.3304 -1.3738
20179SOL    HW261116   5.870   8.455   1.065 -0.4567  1.2603  0.3854
20180SOL     OW61117   1.296   3.823   9.847 -0.0874 -0.4911 -0.4375
20180SOL    HW161118   1.249   3.810   9.764  0.3988  2.2534 -1.2206
20180SOL    HW261119   1.384   3.850   9.821 -0.1073  1.0486  0.9327
20181SOL     OW61120   3.558   1.873   3.796 -0.4131 -0.3396  0.0068
20181SOL    HW161121   3.542   1.893   3.889 -0.1100 -1.7612  0.3891
20181SOL    HW261122   3.565   1.959   3.754  2.7427  0.4694  1.8619
20182SOL     OW61123   7.822   5.457   1.619  0.2457  0.5742 -0.0862
20182SOL    HW161124   7.823   5.368   1.655  0.2670  0.8515  0.6298
20182SOL    HW261125   7.802   5.446   1.526  1.3887 -0.2541 -0.2495
20183SOL     OW61126   0.586   2.853   0.865  0.6196 -0.7920  0.4742
20183SOL    HW161127   0.638   2.776   0.842 -0.7490 -1.3603 -0.8082
20183SOL    HW261128   0.496   2.829   0.843  0.1065  1.0065  0.4994
20184SOL     OW61129   6.683   0.715   6.734 -0.0632  0.7190  0.0017
20184SOL    HW161130   6.745   0.767   6.785 -0.2185  0.2813  0.6509
20184SOL    HW261131   6.604   0.769   6.730 -0.4525  0.2863  1.2412
20185SOL     OW61132   8.937   2.405   7.207  0.1679 -0.5977 -0.1385
20185SOL    HW161133   8.938   2.489   7.253  0.0208 -1.4230  1.4470
20185SOL    HW261134   8.920   2.428   7.115  0.3475  1.1021  0.2172
20186SOL     OW61135   0.578   5.966   7.905  0.1564 -0.0006  0.4909
20186SOL    HW161136   0.646   6.026   7.875  0.2078 -0.6137 -0.6846
20186SOL    HW261137   0.527   6.017   7.968  0.3145  1.2055 -0.3343
20187SOL     OW61138   2.724   9.034   1.474 -0.1586 -0.2534 -0.0598
20187SOL    HW161139   2.754   9.124   1.480 -1.4530  0.1262  1.1702
20187SOL    HW261140   2.803   8.981   1.487  0.5793  0.6764 -0.6214
20188SOL     OW61141   0.470   1.687   5.235 -0.5793  0.1130  0.2100
20188SOL    HW161142   0.381   1.710   5.208 -0.8837  0.0669  1.1546
20188SOL    HW261143   0.480   1.727   5.321 -0.7943 -2.4239  1.5211
20189SOL     OW61144   6.037   4.168   5.605 -0.5120  0.3559 -0.1531
20189SOL    HW161145   5.962   4.166   5.664 -0.4140  1.1451  0.0158
20189SOL    HW261146   5.999   4.166   5.517 -0.6324 -1.5569 -0.0925
20190SOL     OW61147   7.691   1.881   3.246 -0.0398 -0.6819  0.1733
20190SOL    HW161148   7.646   1.964   3.236  0.1186 -0.2879  2.2332
20190SOL    HW261149   7.626   1.815   3.222 -1.8355 -0.1351  3.0157
20191SOL     OW61150   3.009   0.843   9.446  0.3487  0.0750  0.5466
20191SOL    HW161151   2.926   0.811   9.482  1.0968 -3.2057 -0.2842
20191SOL    HW261152   3.057   0.763   9.424  3.3123  1.8811  0.0138
20192SOL     OW61153   4.921   9.908   1.189  0.3840 -0.1355 -0.3677
20192SOL    HW161154   4.832   9.878   1.170 -0.5821  2.0762  0.3429
20192SOL    HW261155   4.951   9.947   1.107  0.6741 -0.8253 -0.5898
20193SOL     OW61156   2.770   8.370   9.483 -0.0480 -0.2750  0.3167
20193SOL    HW161157   2.740   8.443   9.538 -3.8995 -1.3266 -0.1028
20193SOL    HW261158   2.865   8.373   9.489 -0.0440  4.1339  1.1200
20194SOL     OW61159   8.853   4.451   5.917  0.1493 -0.3111  0.9860
20194SOL    HW161160   8.906   4.372   5.909  2.1750  0.8202  2.2698
20194SOL    HW261161   8.800   4.436   5.995  2.5934  0.5908  2.9602
20195SOL     OW61162   8.060   8.869   7.942 -0.1607 -0.0529  0.5914
20195SOL    HW161163   8.020   8.952   7.970 -1.7599 -0.5439 -0.1407
20195SOL    HW261164   8.044   8.809   8.014  0.1840  0.0154  0.7288
20196SOL     OW61165   3.389   8.572   3.161  0.1665 -0.0564  0.5194
20196SOL    HW161166   3.343   8.491   3.179  0.3970 -0.1806  0.5636
20196SOL    HW261167   3.407   8.570   3.067 -0.6684  0.3934  0.3393
20197SOL     OW61168   4.618   4.616   0.473 -0.0692 -0.3195 -0.1652
20197SOL    HW161169   4.678   4.548   0.503  0.3232 -0.6521 -1.6375
20197SOL    HW261170   4.578   4.580   0.394 -0.0161  1.0599 -0.8547
20198SOL     OW61171   9.687   1.122   0.765 -0.6700 -0.3956 -0.2649
20198SOL    HW161172   9.601   1.108   0.804 -0.5134 -0.8209 -0.0699
20198SOL    HW261173   9.727   1.190   0.819 -0.7380 -0.4634 -0.1294
20199SOL     OW61174   4.725   5.680   9.487  0.1156  0.3506 -0.3083
20199SOL    HW161175   4.681   5.750   9.439 -1.3324  1.0063  1.8029
20199SOL    HW261176   4.787   5.725   9.545 -1.0666  0.0109  1.3129
20200SOL     OW61177   7.531   2.320   0.329  0.0061  0.4898 -0.1158
20200SOL    HW161178   7.503   2.228   0.335 -2.1548  0.7457 -3.3813
20200SOL    HW261179   7.456   2.370   0.359  0.2896  1.1943 -0.5674
20201SOL     OW61180   3.481   0.096   9.318 -0.3387  0.1979 -0.1682
20201SOL    HW161181   3.573   0.081   9.295 -0.2712 -1.1433  0.8482
20201SOL    HW261182   3.485   0.154   9.394 -0.3233 -0.0506  0.0205
20202SOL     OW61183   8.907   9.448   1.622 -0.5900  0.1197  0.1845
20202SOL    HW161184   8.977   9.410   1.675 -0.7608 -1.8662 -0.9247
20202SOL    HW261185   8.953   9.505   1.560  0.0579 -0.9574 -0.3597
20203SOL     OW61186   7.910   2.981   0.863 -0.0037 -0.3847 -0.1371
20203SOL    HW161187   7.994   2.941   0.886  1.0246  1.3134 -0.7883
20203SOL    HW261188   7.847   2.941   0.923  1.5736 -0.3779  1.5957
20204SOL     OW61189   1.158   6.036   5.708 -0.6950 -0.4080 -0.4620
20204SOL    HW161190   1.093   5.983   5.662 -0.5368  1.1220 -2.6121
20204SOL    HW261191   1.111   6.070   5.784 -0.9682 -3.0283  0.6580
20205SOL     OW61192   2.674   3.636   8.765 -0.6066 -0.0248  0.6217
20205SOL    HW161193   2.653   3.704   8.829  0.2081 -0.4490  1.3580
20205SOL    HW261194   2.719   3.682   8.694 -0.1536  0.2213  1.0652
20206SOL     OW61195   6.894   1.041   6.062  0.3729  0.6382  0.6861
20206SOL    HW161196   6.927   1.001   6.143  0.2354  0.0675  0.4606
20206SOL    HW261197   6.856   0.969   6.013  0.0613  1.0586  0.3033
20207SOL     OW61198   1.997   0.184   2.126  0.0035  0.3351  0.4082
20207SOL    HW161199   2.081   0.193   2.080  0.7574  0.4092  1.7237
20207SOL    HW261200   2.018   0.205   2.217 -0.6792 -2.8503  1.4590
20208SOL     OW61201   6.798   0.171   4.668 -0.1093  0.5076  0.3824
20208SOL    HW161202   6.743   0.247   4.688 -2.6096 -1.7585  3.0243
20208SOL    HW261203   6.832   0.144   4.753  1.0856 -1.0789 -0.5561
20209SOL     OW61204   3.337   4.467   4.571 -0.0619 -0.1487  0.8789
20209SOL    HW161205   3.378   4.552   4.557 -1.9764  1.0151  1.8763
20209SOL    HW261206   3.371   4.412   4.500  2.9265  0.7535  1.5053
20210SOL     OW61207   6.646   4.983   2.457 -0.2633  0.3241 -0.1868
20210SOL    HW161208   6.580   4.951   2.396 -0.7435 -0.8532  0.8996
20210SOL    HW261209   6.596   5.004   2.536  0.5431  0.3168  0.3277
20211SOL     OW61210   4.945   0.159   4.197  0.4670  0.0406 -0.3788
20211SOL    HW161211   4.930   0.177   4.290  0.6027 -0.1058 -0.3291
20211SOL    HW261212   4.988   0.239   4.165  0.7844 -0.0676 -0.2272
20212SOL     OW61213   3.008   4.254   1.868  0.0795 -0.0443  0.4493
20212SOL    HW161214   2.989   4.196   1.794 -0.3158  0.2069  0.3533
20212SOL    HW261215   3.003   4.197   1.945 -2.3505  0.2362  0.5726
20213SOL     OW61216   0.421   8.193   4.669  0.2161 -0.0669 -0.5282
20213SOL    HW161217   0.331   8.220   4.685  1.3142  2.6706  1.9186
20213SOL    HW261218   0.432   8.114   4.722 -0.7791 -0.5781 -1.0572
20214SOL     OW61219   9.725   9.015   6.619  0.1689 -0.2254 -0.1587
20214SOL    HW161220   9.802   9.022   6.562  0.2887 -3.4157 -0.5962
20214SOL    HW261221   9.751   8.952   6.686 -1.3768  0.2806  0.9749
20215SOL     OW61222   4.788   4.197   2.309 -0.0046 -0.0619  0.1562
20215SOL    HW161223   4.730   4.245   2.369 -1.1851  0.0128 -1.0082
20215SOL    HW261224   4.831   4.266   2.258  2.8528  0.0330  2.4310
20216SOL     OW61225   5.612   1.203   6.358  0.2647  0.2520 -1.0090
20216SOL    HW161226   5.666   1.125   6.367  2.3841  1.9007  3.1868
20216SOL    HW261227   5.673   1.277   6.365 -2.1157  2.2244  1.6927
20217SOL     OW61228   3.909   4.155   2.459  0.3843 -0.1041 -0.3068
20217SOL    HW161229   3.849   4.228   2.440 -0.0432 -0.3226  0.1876
20217SOL    HW261230   3.945   4.131   2.374  1.1456  1.2165 -0.3830
20218SOL     OW61231   6.942   9.852   9.087 -0.2764  0.2407  0.2126
20218SOL    HW161232   6.959   9.887   9.000  2.7570  0.1115  0.6518
20218SOL    HW261233   6.881   9.915   9.126 -0.1520  1.3677 -1.3199
20219SOL     OW61234   4.054   5.434   9.147 -0.3213  0.5722  0.0216
20219SOL    HW161235   3.995   5.441   9.222 -1.6304 -1.4691 -0.7252
20219SOL    HW261236   4.088   5.345   9.151  1.2992  1.1208 -0.6356
20220SOL     OW61237   0.976   7.747   8.673 -0.1058 -0.4235 -0.1325
20220SOL    HW161238   0.906   7.807   8.646  1.4349  0.9539 -1.2741
20220SOL    HW261239   0.941   7.659   8.656 -1.9542  0.1822  0.4019
20221SOL     OW61240   7.164   9.657   2.627 -0.4389 -0.6109 -0.4953
20221SOL    HW161241   7.070   9.675   2.624 -0.3661 -0.1490 -0.2131
20221SOL    HW261242   7.177   9.612   2.711 -0.2787  0.1692 -0.0908
20222SOL     OW61243   9.330   7.557   2.847 -0.1828  0.1301  0.2499
20222SOL    HW161244   9.371   7.476   2.817 -2.3193 -0.0392 -2.6165
20222SOL    HW261245   9.403   7.617   2.862  1.3628 -1.8455  1.0205
20223SOL     OW61246   9.172   2.015   7.829 -0.2419  0.0284  0.3201
20223SOL    HW161247   9.092   1.999   7.780 -0.2951 -1.5353  0.8552
20223SOL    HW261248   9.237   2.041   7.763 -0.8826  0.1433 -0.2705
20224SOL     OW61249   6.977   3.100   8.715  0.4703 -0.4279 -0.0187
20224SOL    HW161250   6.968   3.021   8.661 -0.2183 -0.3697  0.0032
20224SOL    HW261251   7.058   3.086   8.763  1.7658  0.0411 -1.9306
20225SOL     OW61252   3.780   9.764   5.826 -0.1711 -0.3998 -0.2865
20225SOL    HW161253   3.686   9.775   5.842 -0.2183 -0.9016 -0.1778
20225SOL    HW261254   3.802   9.830   5.761 -0.8957 -1.1744 -1.3676
20226SOL     OW61255   6.863   6.408   6.440  0.1130 -0.3435  0.2981
20226SOL    HW161256   6.773   6.385   6.463 -0.5974  2.0029  0.0783
20226SOL    HW261257   6.875   6.497   6.472  2.0480 -0.2430 -0.5467
20227SOL     OW61258   7.523   1.159   5.193 -0.8215  0.0293  0.9197
20227SOL    HW161259   7.467   1.237   5.194 -2.2766 -0.9593 -0.0494
20227SOL    HW261260   7.489   1.106   5.121  1.0113 -0.8999  0.6827
20228SOL     OW61261   0.829   6.172   2.374  0.1633 -0.2876 -0.3337
20228SOL    HW161262   0.910   6.127   2.351  0.7734  0.9454 -0.6993
20228SOL    HW261263   0.825   6.246   2.313  0.3771  1.4820  1.7133
20229SOL     OW61264   3.668   7.061   9.434  0.3466  0.0781 -0.0175
20229SOL    HW161265   3.654   7.095   9.523  1.6304  0.7382 -0.0453
20229SOL    HW261266   3.678   7.139   9.380 -1.5270 -0.2977 -0.9713
20230SOL     OW61267   8.858   7.899   6.504 -0.2794  0.4066 -0.5241
20230SOL    HW161268   8.788   7.965   6.510 -2.7295 -2.0795  0.6889
20230SOL    HW261269   8.890   7.890   6.594 -0.1508 -0.2043 -0.6258
20231SOL     OW61270   2.177   7.919   7.358 -0.1818 -0.8762 -0.5086
20231SOL    HW161271   2.105   7.982   7.360  1.0838  0.6155  0.9326
20231SOL    HW261272   2.224   7.940   7.277 -0.7817 -1.1746 -0.9390
20232SOL     OW61273   1.298   9.384   4.901  0.0981  0.3405 -0.4481
20232SOL    HW161274   1.285   9.433   4.982 -1.8374 -1.8929  0.7179
20232SOL    HW261275   1.387   9.349   4.908 -0.3245 -0.4935  1.1505
20233SOL     OW61276   8.394   4.967   5.436 -0.5441 -0.2160 -0.7669
20233SOL    HW161277   8.357   4.918   5.363 -2.1064  0.1561 -0.2865
20233SOL    HW261278   8.398   4.904   5.508 -0.9788 -0.0856 -0.6184
20234SOL     OW61279   0.008   8.934   4.546  0.3266  0.5744  0.1247
20234SOL    HW161280  -0.061   8.871   4.523  0.9455  0.0856 -0.4162
20234SOL    HW261281   0.070   8.929   4.474 -0.4101  3.0311 -0.8020
20235SOL     OW61282   1.295   2.724   9.553  0.4180  0.0890  0.6632
20235SOL    HW161283   1.337   2.661   9.612  0.4683 -0.8477 -0.3494
20235SOL    HW261284   1.362   2.789   9.536  1.2507 -1.0011 -0.3562
20236SOL     OW61285   0.295   6.503   1.014  0.0426  0.2265 -0.6846
20236SOL    HW161286   0.303   6.445   0.938  1.4179  2.4513 -2.3451
20236SOL    HW261287   0.354   6.464   1.079 -1.4390 -1.9276 -0.5157
20237SOL     OW61288   3.148   9.500   9.293  0.1283 -0.3681 -0.3498
20237SOL    HW161289   3.139   9.407   9.310 -1.2670 -0.0175  1.0925
20237SOL    HW261290   3.176   9.537   9.377 -0.6132  0.6580 -0.5396
20238SOL     OW61291   8.712   7.813   0.560  0.4088  0.1398  0.0477
20238SOL    HW161292   8.753   7.839   0.478  0.0773  1.7215  0.3578
20238SOL    HW261293   8.640   7.755   0.533  0.7514  0.0557 -0.7152
20239SOL     OW61294   3.868  10.000   7.592 -0.4882  0.1203  0.1482
20239SOL    HW161295   3.799   9.986   7.526  1.7043 -0.8290 -2.0850
20239SOL    HW261296   3.938   9.940   7.566  1.2502  1.1218  2.2703
20240SOL     OW61297   0.932   8.267   3.298  0.1909 -0.9559  0.4038
20240SOL    HW161298   0.880   8.187   3.298 -0.1355 -0.7461  0.0063
20240SOL    HW261299   1.006   8.248   3.241  0.5255 -1.2332  0.9198
20241SOL     OW61300   0.802   5.369   5.280 -0.0745  0.5603 -0.0319
20241SOL    HW161301   0.728   5.425   5.257 -0.7527  0.5612  1.9716
20241SOL    HW261302   0.769   5.313   5.350  1.0919 -1.2248 -0.8194
20242SOL     OW61303   1.685   5.164   6.097 -0.6993 -0.3834  0.3576
20242SOL    HW161304   1.630   5.236   6.065  0.6211  0.3424 -0.3490
20242SOL    HW261305   1.624   5.092   6.110 -1.7411  0.2043 -0.9965
20243SOL     OW61306   8.473   7.556   5.662 -0.3000  0.4217 -0.2083
20243SOL    HW161307   8.459   7.647   5.688 -2.2879  0.7567 -2.1253
20243SOL    HW261308   8.385   7.524   5.642  0.5849 -1.2388 -1.6566
20244SOL     OW61309   2.341   9.074   4.961 -0.4134 -0.1903  0.0716
20244SOL    HW161310   2.419   9.054   4.909 -0.0950 -1.7064  1.0823
20244SOL    HW261311   2.349   9.019   5.039 -3.0024 -1.1544 -0.2676
20245SOL     OW61312   7.691   7.558   8.552  0.2619 -0.0270 -0.2431
20245SOL    HW161313   7.729   7.646   8.545 -0.6650  0.2390 -2.9449
20245SOL    HW261314   7.645   7.559   8.636  1.2264  1.6579  0.3113
20246SOL     OW61315   2.881   8.124   1.069 -0.3947 -0.1520 -0.2666
20246SOL    HW161316   2.872   8.206   1.118  1.4269  0.3897 -0.7727
20246SOL    HW261317   2.962   8.085   1.102 -1.1450 -1.6882 -0.1666
20247SOL     OW61318   6.557   4.549   8.699 -0.2018  0.1898 -0.5475
20247SOL    HW161319   6.535   4.582   8.612  1.0631  1.6071 -0.3802
20247SOL    HW261320   6.529   4.458   8.699  0.3194 -0.0032 -2.6502
20248SOL     OW61321   6.119   5.123   0.314  0.0717 -0.0162 -0.0514
20248SOL    HW161322   6.214   5.112   0.322  0.1353  0.3690 -0.2386
20248SOL    HW261323   6.098   5.090   0.227  0.0644  0.0788 -0.0860
20249SOL     OW61324   3.068   0.290   7.035 -0.6149 -0.3506  0.6146
20249SOL    HW161325   3.151   0.270   6.993  0.0806  3.9100 -0.5852
20249SOL    HW261326   3.081   0.268   7.127  1.5675 -0.4769  0.3175
20250SOL     OW61327   3.172   2.331   5.546 -0.2145  0.0741 -0.0014
20250SOL    HW161328   3.087   2.366   5.519  0.3144  1.5026  0.0873
20250SOL    HW261329   3.196   2.382   5.624  0.9378  0.0403 -0.3112
20251SOL     OW61330   8.233   7.782   2.402 -0.2146 -0.1305 -0.1960
20251SOL    HW161331   8.250   7.692   2.429 -0.2617 -0.5187 -1.4114
20251SOL    HW261332   8.316   7.813   2.367 -0.4559 -0.0382 -0.6936
20252SOL     OW61333   1.190   3.508   6.195  0.1317 -0.0940  0.3022
20252SOL    HW161334   1.127   3.556   6.248  0.5441 -1.2207  1.8842
20252SOL    HW261335   1.270   3.559   6.201 -0.5059  1.2526 -1.5780
20253SOL     OW61336   6.416   0.173   4.094 -0.4916 -0.4517 -0.7415
20253SOL    HW161337   6.435   0.126   4.175 -1.8887 -2.0614 -1.2866
20253SOL    HW261338   6.321   0.189   4.097 -0.2812  1.0285 -1.2709
20254SOL     OW61339   3.150   9.392   3.999  0.3050  0.4050 -0.2937
20254SOL    HW161340   3.127   9.432   3.915 -0.2188  1.5083  0.3561
20254SOL    HW261341   3.171   9.301   3.977 -0.4212  0.5128 -1.5319
20255SOL     OW61342   1.181   3.675   9.166  0.4299  0.0041 -0.3240
20255SOL    HW161343   1.159   3.726   9.244  1.8113 -0.2480  0.2606
20255SOL    HW261344   1.151   3.586   9.187 -0.7637  0.2718 -0.8032
20256SOL     OW61345   0.454   2.771   9.032 -0.3695 -0.2875 -0.4787
20256SOL    HW161346   0.397   2.695   9.040 -0.5728 -0.3779 -2.3293
20256SOL    HW261347   0.394   2.844   9.015 -0.0158 -0.4936 -3.1392
20257SOL     OW61348   6.667   7.497   2.881 -0.3501 -0.0778 -0.3964
20257SOL    HW161349   6.679   7.441   2.804 -2.5089  0.1002 -0.9360
20257SOL    HW261350   6.580   7.474   2.914  0.3814  0.0933  1.8325
20258SOL     OW61351   3.739   6.210   8.072  0.5836 -0.0825  0.2171
20258SOL    HW161352   3.818   6.206   8.127  1.3507 -2.5501 -0.8948
20258SOL    HW261353   3.701   6.122   8.078 -0.6432  0.2976 -1.2637
20259SOL     OW61354   7.708   2.877   3.445 -0.3919 -0.2682  0.6068
20259SOL    HW161355   7.668   2.956   3.481 -0.2495  1.1616 -2.0838
20259SOL    HW261356   7.802   2.892   3.454 -0.3509  0.1672 -0.3581
20260SOL     OW61357   3.538   2.381   4.577 -0.1478 -0.4160 -0.0992
20260SOL    HW161358   3.551   2.472   4.603  0.0053 -0.6445  0.6499
20260SOL    HW261359   3.443   2.373   4.563 -0.0625  0.0624 -0.9822
20261SOL     OW61360   4.706   0.159   2.773 -0.0695  0.2895  0.4240
20261SOL    HW161361   4.639   0.095   2.748 -0.3800  0.7665  0.0258
20261SOL    HW261362   4.664   0.244   2.761  0.3172  0.5735  1.0130
20262SOL     OW61363   1.680   8.852   3.438 -0.3477 -0.3789  0.1528
20262SOL    HW161364   1.639   8.768   3.418 -0.2301 -0.6815  1.1582
20262SOL    HW261365   1.621   8.893   3.501  0.1962 -0.2189  0.5637
20263SOL     OW61366   8.582   8.540   9.725 -0.4124 -0.9417 -0.2273
20263SOL    HW161367   8.642   8.611   9.747  1.0657 -2.3073  0.3739
20263SOL    HW261368   8.550   8.509   9.810 -0.9198 -1.0973 -0.4733
20264SOL     OW61369   8.614   8.352   9.257 -0.1866 -0.3483 -0.0437
20264SOL    HW161370   8.618   8.425   9.195 -2.6773  0.0719  0.2114
20264SOL    HW261371   8.663   8.381   9.333 -0.5241  0.7752 -0.2441
20265SOL     OW61372   0.357   4.596   5.507  0.1072  0.5030  0.2342
20265SOL    HW161373   0.320   4.601   5.419  3.2359  2.1937 -1.1727
20265SOL    HW261374   0.312   4.666   5.555 -0.5897  0.5678 -0.4779
20266SOL     OW61375   3.321   2.061   8.901  0.0006 -0.5514  0.1215
20266SOL    HW161376   3.405   2.105   8.914  1.1712 -1.9677 -2.0332
20266SOL    HW261377   3.256   2.123   8.934  1.8357  0.8963  1.1709
20267SOL     OW61378   5.608   8.000   3.956 -0.2089  0.1390 -0.2606
20267SOL    HW161379   5.583   7.949   3.880 -1.0686  1.1251 -0.6687
20267SOL    HW261380   5.624   7.935   4.025 -2.7159 -0.6451 -0.3305
20268SOL     OW61381   7.751   0.807   6.900 -0.0868 -0.2174 -0.1257
20268SOL    HW161382   7.723   0.898   6.892 -1.4355 -0.4913  1.1641
20268SOL    HW261383   7.811   0.794   6.826 -0.0073  1.6520 -0.4327
20269SOL     OW61384   2.183   4.773   2.146 -0.0073  0.1992  0.6253
20269SOL    HW161385   2.251   4.812   2.201  1.0393  0.5979 -0.8946
20269SOL    HW261386   2.136   4.848   2.109  0.1325 -0.0297 -0.0286
20270SOL     OW61387   4.877   1.941   9.269 -0.3680 -0.5230 -0.0386
20270SOL    HW161388   4.937   1.914   9.339 -0.1575  1.3446  0.5576
20270SOL    HW261389   4.929   2.002   9.216 -2.4572  3.7375  2.2998
20271SOL     OW61390   8.070   9.555   6.378  0.0125 -0.3175  0.5747
20271SOL    HW161391   8.080   9.644   6.345  1.8019 -0.7262 -0.0931
20271SOL    HW261392   7.994   9.559   6.436 -1.1399  1.1722 -0.9759
20272SOL     OW61393   9.153   9.158   6.812  0.0723 -0.2449  0.2960
20272SOL    HW161394   9.057   9.148   6.809  0.2089 -1.8530  0.6676
20272SOL    HW261395   9.182   9.136   6.724  0.2238 -1.2747  0.6013
20273SOL     OW61396   4.489   3.102   3.717  0.5691  0.2209 -0.2993
20273SOL    HW161397   4.397   3.077   3.710  0.6931 -0.3915  0.1873
20273SOL    HW261398   4.504   3.161   3.643 -0.0144 -0.2978 -0.8342
20274SOL     OW61399   1.662   5.778   4.934 -0.9591  0.2651  0.0263
20274SOL    HW161400   1.722   5.753   5.004 -1.1451 -0.7247 -0.1639
20274SOL    HW261401   1.635   5.867   4.957 -0.3042  0.2968  0.7145
20275SOL     OW61402   6.743   4.959   7.781  0.1163 -0.2579 -0.3662
20275SOL    HW161403   6.786   5.026   7.835 -0.5700 -0.0149 -0.1092
20275SOL    HW261404   6.802   4.884   7.785 -0.0306 -0.3297  0.9523
20276SOL     OW61405   4.599   8.029   4.349  0.2165 -0.0677  0.0655
20276SOL    HW161406   4.663   8.068   4.290 -1.1030  0.4312 -1.0796
20276SOL    HW261407   4.641   7.948   4.380  1.8310  0.7955  0.2484
20277SOL     OW61408   3.877   1.673   7.963  0.0345 -0.1495 -0.3732
20277SOL    HW161409   3.918   1.642   8.044  0.1117 -0.3863 -0.5006
20277SOL    HW261410   3.921   1.623   7.894  0.4711  0.5612 -0.6241
20278SOL     OW61411   0.743   5.010   7.120  0.9019 -0.6705  0.0742
20278SOL    HW161412   0.762   4.918   7.140 -0.3970 -0.7866  0.9295
20278SOL    HW261413   0.690   5.040   7.195 -0.9758 -0.0023 -1.4305
20279SOL     OW61414   9.662   3.571   5.608 -0.6204 -0.0477 -0.0989
20279SOL    HW161415   9.638   3.664   5.613  2.0826  0.8189 -1.3607
20279SOL    HW261416   9.745   3.565   5.654 -0.4364 -1.7374 -0.5805
20280SOL     OW61417   6.574   4.501   1.855  0.4201  0.4213  0.4175
20280SOL    HW161418   6.527   4.516   1.936 -1.2270 -0.4372 -0.3248
20280SOL    HW261419   6.581   4.406   1.849  0.3877  0.4689 -0.5069
20281SOL     OW61420   2.790   2.350   3.016 -0.0749 -0.0639 -0.0587
20281SOL    HW161421   2.832   2.433   3.042  1.3838 -0.1558 -1.8737
20281SOL    HW261422   2.701   2.356   3.050  0.4658  1.5717  1.1912
20282SOL     OW61423   1.533   8.050   3.406 -0.1643 -0.2632 -0.4229
20282SOL    HW161424   1.577   8.135   3.417  1.2316 -1.1054  0.8554
20282SOL    HW261425   1.447   8.062   3.448 -0.2462  0.6921 -0.8375
20283SOL     OW61426   6.203   1.787   3.691  0.0243  0.0918  0.0047
20283SOL    HW161427   6.195   1.747   3.777 -1.8264  0.6596  0.1382
20283SOL    HW261428   6.297   1.790   3.675  0.3922 -0.4160  1.8134
20284SOL     OW61429   1.559   4.327   4.312  0.3990 -0.5300 -0.0913
20284SOL    HW161430   1.504   4.303   4.237  1.1093  0.5851 -0.9934
20284SOL    HW261431   1.583   4.418   4.297  0.7416 -0.3373  1.3970
20285SOL     OW61432   8.817   0.225   9.415  0.2315 -0.3952 -0.1808
20285SOL    HW161433   8.792   0.217   9.323  0.8123  0.5843 -0.4380
20285SOL    HW261434   8.842   0.317   9.425 -4.3353  0.8918  2.1143
20286SOL     OW61435   6.644   2.274   4.067  0.0611  0.3924 -0.1696
20286SOL    HW161436   6.683   2.204   4.120  1.4059  1.2285  0.0048
20286SOL    HW261437   6.566   2.300   4.116 -0.3441 -0.8468 -0.1404
20287SOL     OW61438   6.001   6.085   0.042 -0.0084 -0.1794  0.0235
20287SOL    HW161439   6.039   6.018   0.098 -0.8639 -0.1261  0.6969
20287SOL    HW261440   5.934   6.039  -0.009  0.2172 -0.0688 -0.3765
20288SOL     OW61441   5.324   4.007   5.333  0.4865  0.4890 -0.6802
20288SOL    HW161442   5.356   4.087   5.374 -1.8772  1.1360  0.0739
20288SOL    HW261443   5.285   3.957   5.404  1.0469 -0.9030 -1.3127
20289SOL     OW61444   4.855   1.138   3.499 -0.1997 -0.8770  0.4283
20289SOL    HW161445   4.909   1.192   3.556 -0.8728 -0.1834  0.4383
20289SOL    HW261446   4.779   1.194   3.479 -0.2601 -1.3263 -0.6573
20290SOL     OW61447   4.665   3.920   3.681 -0.5082  0.5843  0.2696
20290SOL    HW161448   4.583   3.916   3.632 -1.6933 -0.1250  2.1816
20290SOL    HW261449   4.685   4.014   3.686 -0.4331  0.6836 -1.3715
20291SOL     OW61450   5.955   2.761   9.283  0.1139  0.0828  0.3057
20291SOL    HW161451   5.961   2.675   9.325 -1.1773 -0.4723 -0.6185
20291SOL    HW261452   5.867   2.765   9.247  0.6773  1.1491 -1.0576
20292SOL     OW61453   5.154   2.875   1.725  0.4334 -0.8442  0.0491
20292SOL    HW161454   5.154   2.852   1.632  0.3544 -0.3879 -0.0669
20292SOL    HW261455   5.223   2.821   1.763  1.2035 -0.2565 -0.4803
20293SOL     OW61456   6.251   2.819   2.282 -0.2087 -0.4533  0.5583
20293SOL    HW161457   6.219   2.875   2.352  0.3277  2.1004 -1.0923
20293SOL    HW261458   6.342   2.800   2.306 -0.5067 -0.9502  1.3162
20294SOL     OW61459   1.762   0.620   5.188 -0.1322 -0.0310  0.5631
20294SOL    HW161460   1.750   0.598   5.280 -0.3499  1.2100  0.8500
20294SOL    HW261461   1.674   0.646   5.158  0.1173  0.5072  0.2802
20295SOL     OW61462   0.796   4.040   7.984  0.1190 -0.3246 -0.0696
20295SOL    HW161463   0.860   4.014   8.050  1.8162 -0.0600 -1.5447
20295SOL    HW261464   0.843   4.034   7.901 -2.2076 -1.5423 -1.3912
20296SOL     OW61465   6.400   5.076   7.402 -0.0573 -0.0680 -0.5029
20296SOL    HW161466   6.487   5.100   7.435  0.1530 -1.3985 -0.0261
20296SOL    HW261467   6.363   5.158   7.370  1.1673  0.6149 -0.2285
20297SOL     OW61468   4.595   9.175   5.508 -0.7106 -0.3743 -0.0969
20297SOL    HW161469   4.675   9.228   5.499 -1.0020  0.3812  1.4888
20297SOL    HW261470   4.563   9.193   5.596 -1.0197 -2.9906  0.4082
20298SOL     OW61471   8.908   0.770   5.267  0.9609 -0.8171  0.2301
20298SOL    HW161472   8.820   0.807   5.280  0.3613 -1.0438 -2.4950
20298SOL    HW261473   8.944   0.821   5.195  2.6161 -1.5247  0.5214
20299SOL     OW61474   4.585   8.891   2.383  0.5496 -0.0061 -0.4070
20299SOL    HW161475   4.581   8.820   2.447 -2.0758  1.8884  1.7542
20299SOL    HW261476   4.674   8.926   2.391  0.5677 -0.3883  1.6387
20300SOL     OW61477   3.106   3.854   4.430  0.2325 -0.1576  0.0595
20300SOL    HW161478   3.113   3.948   4.412 -1.6359 -0.0719 -0.4457
20300SOL    HW261479   3.185   3.817   4.391 -0.3805  0.8918 -2.4171
20301SOL     OW61480   4.520   3.624   1.954 -0.3365  0.8605  0.0411
20301SOL    HW161481   4.513   3.667   1.869 -0.8695  2.9208  1.0617
20301SOL    HW261482   4.460   3.550   1.948 -0.2788  0.9046 -1.3955
20302SOL     OW61483   1.256   6.682   3.236  0.2700  0.0832  0.2792
20302SOL    HW161484   1.176   6.733   3.248  0.0212 -0.0531 -0.6664
20302SOL    HW261485   1.284   6.702   3.146  1.8709  0.9138  0.9162
20303SOL     OW61486   8.846   8.283   3.039 -0.3457  0.0081 -0.4269
20303SOL    HW161487   8.892   8.301   2.957 -0.1021 -0.6631 -0.4430
20303SOL    HW261488   8.838   8.188   3.041  1.1818 -0.1387  1.1508
20304SOL     OW61489   7.413   7.322   8.236 -0.1035 -0.2791  0.4460
20304SOL    HW161490   7.459   7.405   8.249  0.1933  0.1466 -2.5743
20304SOL    HW261491   7.327   7.347   8.203 -0.1277 -1.1477 -0.1787
20305SOL     OW61492   3.664   1.298   4.676  0.3387 -0.1495  0.3714
20305SOL    HW161493   3.746   1.347   4.679  0.5249 -0.4914  1.0371
20305SOL    HW261494   3.673   1.240   4.600 -0.0857  1.1756 -0.7198
20306SOL     OW61495   1.803   5.872   9.200  0.2464 -0.6109 -0.1403
20306SOL    HW161496   1.769   5.961   9.214  0.8206 -0.6010  1.3753
20306SOL    HW261497   1.770   5.847   9.114 -0.9672  0.5920 -0.0544
20307SOL     OW61498   3.348   9.796   4.017 -0.2438  0.1583  0.9733
20307SOL    HW161499   3.373   9.752   3.935 -0.6862  0.9112  0.4197
20307SOL    HW261500   3.347   9.889   3.995 -1.3577  0.3015  1.5629
20308SOL     OW61501   3.888   4.197   4.627  0.1513  0.2550 -0.1565
20308SOL    HW161502   3.855   4.174   4.540 -0.6835 -0.1098  0.2500
20308SOL    HW261503   3.921   4.114   4.663 -1.8045 -0.1448  0.8531
20309SOL     OW61504   0.798   1.358   3.492  0.1752 -0.4521  0.4482
20309SOL    HW161505   0.781   1.290   3.556  0.5337  0.6847  1.8123
20309SOL    HW261506   0.887   1.388   3.512 -1.3605  3.3279  2.8554
20310SOL     OW61507   4.325   4.142   4.909  0.1864  0.5080 -0.2715
20310SOL    HW161508   4.399   4.200   4.926 -1.4449  2.5633  0.1986
20310SOL    HW261509   4.317   4.089   4.988 -0.2576  1.9561  0.7079
20311SOL     OW61510   2.242   3.369   3.855  0.1869 -0.5709 -0.5568
20311SOL    HW161511   2.182   3.444   3.853 -0.7359 -1.3008 -1.5206
20311SOL    HW261512   2.314   3.395   3.797 -1.2887 -1.3035 -2.8633
20312SOL     OW61513   3.974   1.798   9.042  0.0233  0.3244  0.3275
20312SOL    HW161514   4.010   1.809   8.954  1.0405 -2.9707  0.1964
20312SOL    HW261515   3.892   1.750   9.028  0.6563 -1.0574  1.1597
20313SOL     OW61516   6.821   4.640   9.646 -0.0854 -0.0783  0.4933
20313SOL    HW161517   6.832   4.678   9.734  0.8298  0.2073  0.2679
20313SOL    HW261518   6.904   4.594   9.630  0.0613  0.5243 -0.5287
20314SOL     OW61519   3.223   9.469   9.031  0.3168  0.6992 -0.3469
20314SOL    HW161520   3.309   9.429   9.045  0.0210  0.2928  0.3157
20314SOL    HW261521   3.192   9.491   9.118 -2.0582 -2.9649 -0.0355
20315SOL     OW61522   2.548   2.480   2.998  0.5548 -0.3765 -0.4530
20315SOL    HW161523   2.493   2.462   2.922  1.3327 -1.7461 -0.7217
20315SOL    HW261524   2.582   2.569   2.982 -1.2401  0.3381 -0.4522
20316SOL     OW61525   6.203   6.915   2.341  0.2868 -0.2920 -0.4917
20316SOL    HW161526   6.173   6.915   2.251  1.8192 -0.8817 -1.0221
20316SOL    HW261527   6.266   6.987   2.346  0.3205 -0.3497  0.0721
20317SOL     OW61528   1.094   1.754   4.565  0.2669 -0.3789 -0.5111
20317SOL    HW161529   1.049   1.776   4.646  0.3437  0.5827 -0.7241
20317SOL    HW261530   1.046   1.801   4.497 -0.0036 -1.4333 -1.0770
20318SOL     OW61531   3.370   7.027   0.890  0.2003  0.0190 -0.2189
20318SOL    HW161532   3.298   6.994   0.837  0.1670  1.1470 -0.9172
20318SOL    HW261533   3.340   7.113   0.921  1.4971  0.8300 -1.1009
20319SOL     OW61534   8.350   8.977   7.383  0.2915 -0.5889  0.0839
20319SOL    HW161535   8.317   8.889   7.367 -0.3516 -0.9386  2.8317
20319SOL    HW261536   8.417   8.965   7.450  0.4169  0.9957  0.2790
20320SOL     OW61537   5.604   9.874   0.702  0.2523 -0.7137  0.0728
20320SOL    HW161538   5.689   9.844   0.669  0.2857  0.7048 -1.2669
20320SOL    HW261539   5.540   9.828   0.648  0.1800 -1.0062  0.3986
20321SOL     OW61540   5.597   8.378   0.603 -0.2698  0.9661 -0.3401
20321SOL    HW161541   5.595   8.412   0.692 -1.2994  0.6874 -0.2389
20321SOL    HW261542   5.605   8.283   0.613  0.0199  0.9648 -0.5580
20322SOL     OW61543   7.873   6.906   6.508 -1.0280  0.5268  0.4864
20322SOL    HW161544   7.906   6.905   6.598 -0.6777  0.3426  0.3558
20322SOL    HW261545   7.844   6.816   6.492  2.4867 -0.5165 -0.8921
20323SOL     OW61546   1.243   7.205   3.421 -0.5896  0.4279 -0.1268
20323SOL    HW161547   1.254   7.227   3.328  0.6164 -0.6838 -0.2798
20323SOL    HW261548   1.246   7.110   3.423  0.4855  0.4625  1.1667
20324SOL     OW61549   9.286   1.325   1.949 -0.0693 -0.0341  0.1367
20324SOL    HW161550   9.368   1.357   1.913 -0.5032 -0.8728 -1.7015
20324SOL    HW261551   9.285   1.232   1.928 -2.4672  0.3527 -1.9109
20325SOL     OW61552   4.463   3.340   1.458  0.3363  0.0280  0.0784
20325SOL    HW161553   4.412   3.300   1.528  0.6637 -0.2112  0.1784
20325SOL    HW261554   4.531   3.390   1.503  0.5173 -0.0872 -0.0652
20326SOL     OW61555   6.206   1.998   4.777  0.1002 -0.6671 -0.8936
20326SOL    HW161556   6.173   1.972   4.691  0.9418  0.8272 -1.7195
20326SOL    HW261557   6.291   2.039   4.758 -0.6403  1.6590  0.3700
20327SOL     OW61558  -0.020   2.201   6.653 -0.2147 -0.4982 -0.0372
20327SOL    HW161559   0.063   2.171   6.615 -0.5748  0.2147 -1.4392
20327SOL    HW261560  -0.014   2.175   6.745 -0.4037 -4.6988 -1.0129
20328SOL     OW61561   7.677   5.748   2.042 -0.3487  0.2216 -0.1030
20328SOL    HW161562   7.718   5.709   2.119 -1.8031 -1.7106 -0.2585
20328SOL    HW261563   7.595   5.784   2.074 -0.7439 -0.1724 -0.6618
20329SOL     OW61564   8.703   5.262   8.810  0.2181  0.2779 -0.0302
20329SOL    HW161565   8.761   5.319   8.760  1.1029  0.2747  0.9434
20329SOL    HW261566   8.686   5.310   8.891 -0.6394  0.0048 -0.0358
20330SOL     OW61567   6.596   1.928   7.529  0.3931 -0.5617  0.8255
20330SOL    HW161568   6.534   2.000   7.542  0.1197 -0.8883  1.3555
20330SOL    HW261569   6.550   1.851   7.563 -0.0093 -1.3048 -1.2365
20331SOL     OW61570   5.449   8.307   7.861  0.2163 -0.1712 -0.7211
20331SOL    HW161571   5.528   8.301   7.808  0.8994  1.2529  0.1028
20331SOL    HW261572   5.432   8.217   7.889  2.2645 -0.3459  0.1118
20332SOL     OW61573   8.808   0.523   8.070  0.6557 -0.6673 -0.1201
20332SOL    HW161574   8.752   0.555   7.999  0.3305 -1.3787 -0.1935
20332SOL    HW261575   8.873   0.592   8.083 -0.2067  0.1499 -0.0708
20333SOL     OW61576   4.126   6.215   7.923  0.2656  0.0497 -0.1316
20333SOL    HW161577   4.132   6.134   7.973  0.5400 -1.4356 -2.3922
20333SOL    HW261578   4.165   6.193   7.838 -2.0337  1.7758 -1.7415
20334SOL     OW61579   1.342   8.977   4.911  0.0226  0.0223 -0.0809
20334SOL    HW161580   1.389   9.031   4.847 -0.9473  0.0026 -0.8415
20334SOL    HW261581   1.275   8.933   4.859 -1.3383  0.6418  1.0768
20335SOL     OW61582   4.270   6.318   8.997 -0.5333 -0.3559  0.2110
20335SOL    HW161583   4.230   6.318   9.084  0.5783  0.9141  0.7701
20335SOL    HW261584   4.291   6.226   8.980 -0.3216 -0.5713  1.5294
20336SOL     OW61585   7.977   2.639   3.776  0.0853  0.2293 -0.1349
20336SOL    HW161586   7.896   2.683   3.803 -0.5064  0.2995 -1.8619
20336SOL    HW261587   8.047   2.692   3.814 -0.6582  0.3443  1.1355
20337SOL     OW61588   5.033   0.635   6.006 -0.0222  0.0055 -0.4628
20337SOL    HW161589   5.042   0.703   5.940  0.3257 -0.9311 -1.4113
20337SOL    HW261590   4.940   0.612   6.003 -0.8051  2.3278  1.8567
20338SOL     OW61591   4.732   2.570   6.880 -0.0325  0.1495 -0.1064
20338SOL    HW161592   4.777   2.621   6.813 -0.6746  0.0305 -0.6417
20338SOL    HW261593   4.794   2.567   6.953  1.7965 -1.8584 -1.5810
20339SOL     OW61594   8.657   5.803   4.463 -0.2082  0.2967 -0.2646
20339SOL    HW161595   8.751   5.793   4.451  0.0477  1.7468  0.3549
20339SOL    HW261596   8.632   5.873   4.403 -1.0262 -0.5129 -0.8955
20340SOL     OW61597   1.898   7.445   7.958 -0.4402  0.0880  0.4463
20340SOL    HW161598   1.957   7.402   8.020  0.0604 -2.7392 -1.7997
20340SOL    HW261599   1.841   7.500   8.013  1.2136 -0.7335  3.1515
20341SOL     OW61600   3.011   9.769   2.307 -0.3324 -0.6220 -0.0162
20341SOL    HW161601   2.968   9.684   2.301 -2.6476  0.4446  0.3709
20341SOL    HW261602   3.070   9.771   2.231 -0.7999 -2.2546 -0.4720
20342SOL     OW61603   3.145   2.611   3.270 -0.0162  0.0411  0.1385
20342SOL    HW161604   3.213   2.601   3.205  0.8031  1.5950  0.6967
20342SOL    HW261605   3.156   2.701   3.303 -0.6748 -0.5327  2.0752
20343SOL     OW61606   0.093   2.243   9.455  0.3314  0.0675  0.4921
20343SOL    HW161607   0.012   2.267   9.500  0.6790  1.1034  0.5866
20343SOL    HW261608   0.075   2.156   9.418 -1.1544  0.6591 -0.2786
20344SOL     OW61609   2.430   8.124   2.822 -0.0342  0.1661 -0.4150
20344SOL    HW161610   2.345   8.080   2.818 -1.1065  2.1936 -1.2715
20344SOL    HW261611   2.467   8.096   2.905 -1.3041 -1.1742 -0.2564
20345SOL     OW61612   9.761   8.623   8.369  0.1342 -1.3065 -0.2087
20345SOL    HW161613   9.688   8.591   8.422  1.3003 -2.2980  0.8522
20345SOL    HW261614   9.828   8.555   8.376  1.9956  0.5082  0.5865
20346SOL     OW61615   1.338   3.773   7.304 -0.0930 -0.5389 -0.0978
20346SOL    HW161616   1.346   3.695   7.250 -1.3074  0.2993 -1.5752
20346SOL    HW261617   1.385   3.841   7.255 -0.2256 -0.0294  0.4724
20347SOL     OW61618   7.167   5.137   2.242 -0.2632  0.3592  0.0362
20347SOL    HW161619   7.242   5.149   2.301  0.1084 -1.5899  0.0463
20347SOL    HW261620   7.123   5.222   2.241  0.9255  1.0425  1.4482
20348SOL     OW61621   1.465   1.434   7.023 -0.0445  0.1336  0.0347
20348SOL    HW161622   1.542   1.427   7.079  0.7483 -0.6852 -1.1403
20348SOL    HW261623   1.456   1.527   7.006  0.4330  0.2705  0.5008
20349SOL     OW61624   5.543   1.848   6.179 -0.3016  0.0772  0.4324
20349SOL    HW161625   5.514   1.758   6.169  1.9037 -0.5136 -1.8342
20349SOL    HW261626   5.635   1.846   6.153 -0.4836  3.1782 -0.8748
20350SOL     OW61627   5.833   2.606   1.048 -0.6056 -0.5847  0.1856
20350SOL    HW161628   5.772   2.679   1.063  1.9897  1.4699  1.4608
20350SOL    HW261629   5.862   2.617   0.958 -1.3226 -1.0033 -0.1127
20351SOL     OW61630   4.732   3.753   2.083  0.0488  0.1846 -0.0572
20351SOL    HW161631   4.650   3.711   2.058 -0.4319  1.4234 -0.6421
20351SOL    HW261632   4.734   3.747   2.179 -0.2043 -0.7725 -0.1033
20352SOL     OW61633   2.600   5.713   4.195 -0.1538  1.0429 -0.0908
20352SOL    HW161634   2.620   5.805   4.209  1.9624  0.9435 -1.9454
20352SOL    HW261635   2.685   5.670   4.188 -1.0746 -0.7684 -0.9576
20353SOL     OW61636   8.078   2.744   2.427 -0.1666 -0.0785  0.5452
20353SOL    HW161637   8.054   2.740   2.334  0.7367  0.1338  0.2917
20353SOL    HW261638   8.059   2.833   2.453 -1.3520 -0.4047  0.8348
20354SOL     OW61639   5.082   7.428   4.051  0.6248 -0.5929  0.2248
20354SOL    HW161640   5.000   7.476   4.045  0.9971 -0.0001 -0.3043
20354SOL    HW261641   5.072   7.354   3.990 -0.2445 -1.6767  1.6182
20355SOL     OW61642   7.510   3.259   9.133  0.0391  0.0038 -0.3573
20355SOL    HW161643   7.446   3.316   9.090 -0.9631  0.2557  1.3650
20355SOL    HW261644   7.457   3.198   9.184  1.1567 -0.7215 -0.0265
20356SOL     OW61645   0.941   4.608   1.872 -0.2631 -0.2437 -0.2835
20356SOL    HW161646   0.896   4.597   1.956  0.5835  0.7844  0.3202
20356SOL    HW261647   0.951   4.702   1.862  0.9217 -0.4142 -0.8496
20357SOL     OW61648   2.308   3.450   7.138  0.0379 -0.6111  0.8617
20357SOL    HW161649   2.367   3.519   7.109 -0.6817  0.1190  1.1062
20357SOL    HW261650   2.321   3.379   7.074 -0.0530  0.1937 -0.0716
20358SOL     OW61651   9.281   9.922   3.680  0.3065 -0.0190 -0.1149
20358SOL    HW161652   9.188   9.906   3.696  0.0903 -1.2125 -2.2915
20358SOL    HW261653   9.323   9.839   3.701  1.0963  0.8441  1.9692
20359SOL     OW61654   2.605   4.964   1.903 -0.2467 -0.0143 -0.5482
20359SOL    HW161655   2.558   5.041   1.872 -0.5397 -0.3981 -1.0760
20359SOL    HW261656   2.657   4.936   1.827 -0.2643 -0.4252 -0.4114
20360SOL     OW61657   6.427   0.345   3.579  0.4707  0.6320  0.1661
20360SOL    HW161658   6.434   0.399   3.500 -2.4995  1.4289  0.3425
20360SOL    HW261659   6.438   0.255   3.547  0.7741  1.0302 -0.8991
20361SOL     OW61660   7.490   5.242   3.418  0.0739 -0.3251 -0.1653
20361SOL    HW161661   7.394   5.249   3.420 -0.1651 -2.6752  0.6300
20361SOL    HW261662   7.511   5.195   3.500  1.8492 -0.2740 -0.5644
20362SOL     OW61663   6.499   1.224   9.445 -0.1896 -0.0572  0.2580
20362SOL    HW161664   6.587   1.193   9.421  0.5540  1.9850  0.1941
20362SOL    HW261665   6.462   1.151   9.496  2.2816 -0.2457  1.9720
20363SOL     OW61666   6.193   3.575   6.509 -0.4631 -0.2593  0.4270
20363SOL    HW161667   6.193   3.480   6.502 -0.6524 -0.1937 -0.6134
20363SOL    HW261668   6.146   3.594   6.590 -4.2281 -0.9388 -1.3872
20364SOL     OW61669   5.015   7.718   3.375 -0.1190 -0.3301  0.0751
20364SOL    HW161670   5.061   7.761   3.446 -1.6970 -0.0947  1.0106
20364SOL    HW261671   4.925   7.709   3.406 -0.9776  0.1584 -2.0406
20365SOL     OW61672   4.649   7.571   4.645  0.2444 -0.2828 -0.1522
20365SOL    HW161673   4.711   7.575   4.718 -1.5959 -2.0755  1.6557
20365SOL    HW261674   4.670   7.491   4.599  0.6206  0.2229 -0.8773
20366SOL     OW61675   5.479   2.460   6.511  0.0039  0.1927  0.1215
20366SOL    HW161676   5.453   2.394   6.447 -0.6294 -0.3200  0.8951
20366SOL    HW261677   5.568   2.485   6.484 -0.3380  0.1744 -1.0961
20367SOL     OW61678   1.365   3.713   1.305  0.5931  0.6907 -0.0416
20367SOL    HW161679   1.453   3.687   1.276  0.4218 -0.8577  0.7065
20367SOL    HW261680   1.375   3.728   1.400  0.1031  0.7684 -0.0006
20368SOL     OW61681   3.977   7.261   6.808 -0.1649  0.6377 -0.0404
20368SOL    HW161682   3.920   7.193   6.843  0.8444  0.0023  0.4432
20368SOL    HW261683   3.980   7.244   6.713  0.9347 -0.7142  0.2010
20369SOL     OW61684   2.655   3.437   9.014 -0.0838 -0.5225 -0.9501
20369SOL    HW161685   2.707   3.470   9.088  1.0702 -1.8615 -1.1219
20369SOL    HW261686   2.670   3.501   8.944 -0.7546  0.4655 -0.2327
20370SOL     OW61687   6.000   8.726   5.953 -0.1453  0.2203 -0.1875
20370SOL    HW161688   6.077   8.684   5.916 -0.4019 -0.5172  0.0921
20370SOL    HW261689   5.941   8.654   5.974 -0.4657  0.7022  0.6160
20371SOL     OW61690   1.014   4.825   6.228 -0.3173 -0.7785 -0.0374
20371SOL    HW161691   0.929   4.864   6.207  0.4351  1.6594  1.1303
20371SOL    HW261692   1.071   4.899   6.247  1.0597 -2.4547  3.0709
20372SOL     OW61693   3.356   6.743   3.625  0.0478 -0.0352  0.2010
20372SOL    HW161694   3.439   6.726   3.669  2.4209  2.6935 -2.7590
20372SOL    HW261695   3.330   6.658   3.590  1.3473 -1.0220  1.5121
20373SOL     OW61696   3.333   0.349   5.095  0.0452  0.2580  0.0863
20373SOL    HW161697   3.308   0.376   5.007  1.5620 -0.3632 -0.5627
20373SOL    HW261698   3.355   0.256   5.087  4.5333  1.0915  0.0249
20374SOL     OW61699   8.292   0.291   2.849 -0.1277  0.4692 -0.4686
20374SOL    HW161700   8.333   0.205   2.856  1.1329  1.0373 -0.7040
20374SOL    HW261701   8.198   0.273   2.863  0.2320 -0.7712  0.6229
20375SOL     OW61702   9.343   6.096   4.512 -0.4921  0.1663  0.4333
20375SOL    HW161703   9.439   6.095   4.506 -0.2936 -0.7546  2.6701
20375SOL    HW261704   9.324   6.169   4.570 -1.2442  0.9887 -0.8258
20376SOL     OW61705   3.084   6.557   9.344 -0.0092  0.0041  0.0360
20376SOL    HW161706   3.083   6.636   9.289 -1.6967 -0.7009 -0.9941
20376SOL    HW261707   3.140   6.581   9.418  1.8726  1.1805 -1.6597
20377SOL     OW61708   3.322   8.611   7.106  0.4466 -0.0841  0.1287
20377SOL    HW161709   3.373   8.530   7.115 -0.5420 -0.7370  0.0329
20377SOL    HW261710   3.363   8.657   7.032 -0.6930 -1.8511 -1.7167
20378SOL     OW61711   5.752   2.007   0.888  0.2351 -0.0895 -0.0827
20378SOL    HW161712   5.821   2.012   0.955  0.4781 -0.5257 -0.2949
20378SOL    HW261713   5.684   2.065   0.920  1.3443  1.5934 -0.6415
20379SOL     OW61714   9.543   3.315   0.509 -0.2519  0.4891 -0.2089
20379SOL    HW161715   9.571   3.366   0.585 -2.1544  0.4349  0.5851
20379SOL    HW261716   9.450   3.296   0.525 -0.0146 -1.8630 -1.2510
20380SOL     OW61717   8.475   3.401   5.755 -0.5444  0.0622  0.2753
20380SOL    HW161718   8.570   3.397   5.766 -0.1697 -2.6570 -2.5858
20380SOL    HW261719   8.462   3.453   5.676 -1.4570  0.6099  0.7750
20381SOL     OW61720   1.565   8.236   2.924  1.0197 -0.1921 -0.0688
20381SOL    HW161721   1.526   8.216   3.009 -1.5287 -3.4446 -1.7665
20381SOL    HW261722   1.629   8.166   2.911  0.0687 -0.8388 -1.5220
20382SOL     OW61723   9.074   8.885   4.831  0.1321  0.2283  0.0162
20382SOL    HW161724   9.104   8.931   4.752  0.7186 -0.5087 -0.2050
20382SOL    HW261725   8.998   8.835   4.802  0.9893 -0.8926 -0.3661
20383SOL     OW61726   6.532   9.373   8.994  0.6016 -0.5987  0.6793
20383SOL    HW161727   6.449   9.419   8.984 -1.2253 -3.3692  1.9837
20383SOL    HW261728   6.582   9.396   8.915 -0.9810  1.8268  0.2748
20384SOL     OW61729   5.280   5.217   5.453 -0.2810 -0.7971 -0.2310
20384SOL    HW161730   5.356   5.257   5.495 -1.4281  0.5854  0.6306
20384SOL    HW261731   5.216   5.207   5.523 -1.4223 -0.5900 -1.2126
20385SOL     OW61732   9.720   0.648   2.765 -0.0214  0.1164  0.2586
20385SOL    HW161733   9.722   0.647   2.670 -0.6163 -0.6609  0.2475
20385SOL    HW261734   9.776   0.723   2.790  0.3021  0.1932 -0.6817
20386SOL     OW61735   5.673   2.487   4.918 -0.0811  0.2669 -0.2685
20386SOL    HW161736   5.587   2.459   4.889 -0.8683  1.5164  0.7530
20386SOL    HW261737   5.705   2.415   4.972 -0.9159  0.2080  0.1525
20387SOL     OW61738   6.378   8.367   2.357 -0.3105  0.1739  0.3346
20387SOL    HW161739   6.429   8.292   2.388 -0.3144 -0.8028 -1.8587
20387SOL    HW261740   6.444   8.425   2.318 -0.6909 -0.4711 -1.3213
20388SOL     OW61741   8.826   9.744   0.905  0.1782  0.3018 -0.1922
20388SOL    HW161742   8.772   9.792   0.843 -1.1419 -0.3100  0.4394
20388SOL    HW261743   8.823   9.653   0.875 -0.0675  0.0834  0.4686
20389SOL     OW61744   3.152   5.662   8.132  0.5848 -0.0045 -0.5086
20389SOL    HW161745   3.147   5.758   8.124 -2.9915  0.0174  0.3096
20389SOL    HW261746   3.154   5.631   8.041  1.4793  0.8045 -0.7867
20390SOL     OW61747   4.081   4.919   5.691 -0.3474 -0.0692  0.3074
20390SOL    HW161748   4.029   4.971   5.752  0.1475 -0.0330  0.7089
20390SOL    HW261749   4.074   4.964   5.607 -0.7388  0.0834  0.4242
20391SOL     OW61750   9.926   4.554   9.129  0.7120 -0.3253 -0.3726
20391SOL    HW161751   9.993   4.622   9.137 -0.9495  1.1460  1.9752
20391SOL    HW261752   9.854   4.596   9.082  0.3646 -1.0672 -0.5218
20392SOL     OW61753   3.282   1.628   0.659  0.0563  0.6457 -0.0554
20392SOL    HW161754   3.248   1.703   0.610 -0.7549  0.8405  0.7992
20392SOL    HW261755   3.206   1.588   0.699  0.4709 -0.6858 -0.5304
20393SOL     OW61756   9.431   6.132   2.860 -0.1438 -0.4494  0.2463
20393SOL    HW161757   9.464   6.045   2.879  4.1110  0.5469 -1.4222
20393SOL    HW261758   9.404   6.128   2.768  0.6157  0.0752 -0.0127
20394SOL     OW61759   8.297   5.673   7.429  0.1301  0.3055  0.4754
20394SOL    HW161760   8.335   5.732   7.364 -0.7080  1.1713  0.7527
20394SOL    HW261761   8.241   5.729   7.482 -0.5660 -0.7169  0.8454
20395SOL     OW61762   4.511   4.891   5.784 -0.0353  0.1618 -0.0601
20395SOL    HW161763   4.586   4.949   5.794 -1.3006  1.6298  1.4811
20395SOL    HW261764   4.522   4.852   5.697  2.5463  0.2118  0.1728
20396SOL     OW61765   3.858   0.975   1.298  0.4663  0.9083  0.1918
20396SOL    HW161766   3.766   0.966   1.325  0.8601 -0.2578  1.2885
20396SOL    HW261767   3.855   1.033   1.222 -1.4010 -0.6990 -1.0895
20397SOL     OW61768   5.954   1.862   7.034  0.8007 -0.8265  0.0884
20397SOL    HW161769   5.894   1.804   6.987 -0.9095 -0.3905  1.6304
20397SOL    HW261770   5.917   1.869   7.122  1.2851  2.1122  0.1513
20398SOL     OW61771   9.495   1.546   0.367  0.7263  0.4392  0.1083
20398SOL    HW161772   9.415   1.499   0.345 -0.1241  1.0483  1.7201
20398SOL    HW261773   9.466   1.621   0.420  2.1983  1.7201 -0.7875
20399SOL     OW61774   5.823   1.981   7.264  0.6022  0.5998  0.0161
20399SOL    HW161775   5.754   1.931   7.220 -0.9403  1.3890  1.4299
20399SOL    HW261776   5.801   2.072   7.247  1.2684  0.8664  0.5333
20400SOL     OW61777   4.165   5.041   8.612 -0.2182  0.2877  1.1319
20400SOL    HW161778   4.183   5.024   8.519 -2.3655 -1.5431  0.9494
20400SOL    HW261779   4.097   5.109   8.611 -2.0143 -1.4126  1.1623
20401SOL     OW61780   0.261   2.224   9.064 -0.5102  0.1110  0.2938
20401SOL    HW161781   0.246   2.132   9.088  0.0674 -0.0287  0.1217
20401SOL    HW261782   0.306   2.220   8.980  1.7202  0.4610  1.3895
20402SOL     OW61783   6.971   0.649   3.998 -0.5903  0.1210  0.5512
20402SOL    HW161784   7.061   0.683   3.995 -0.7935  0.6889 -1.9301
20402SOL    HW261785   6.920   0.720   4.036 -0.2538  0.6133  0.1032
20403SOL     OW61786   7.569   6.541   5.822 -0.2145  0.6652  0.2645
20403SOL    HW161787   7.586   6.447   5.831 -1.3013  0.3936 -0.3036
20403SOL    HW261788   7.549   6.553   5.729  1.4298  1.7445 -0.0002
20404SOL     OW61789   2.572   9.169   7.595  0.0149 -0.8395 -0.2998
20404SOL    HW161790   2.578   9.101   7.663  1.6530 -1.5231 -1.0606
20404SOL    HW261791   2.662   9.200   7.584 -0.5891  0.9760 -0.4899
20405SOL     OW61792   8.539   8.186   9.535 -0.2335  0.0795  0.3649
20405SOL    HW161793   8.589   8.265   9.517  0.1313  0.1982  1.7691
20405SOL    HW261794   8.583   8.147   9.610  0.2848 -2.0682 -0.9647
20406SOL     OW61795   9.132   7.920   2.074 -0.0278  0.3546 -0.1281
20406SOL    HW161796   9.212   7.928   2.023 -0.2644 -0.0296 -0.5666
20406SOL    HW261797   9.142   7.837   2.122 -0.5244 -0.1332 -0.8439
20407SOL     OW61798   5.861   5.118   5.153  0.3323 -0.6571 -0.0094
20407SOL    HW161799   5.854   5.023   5.153  0.7805 -0.7377 -2.6197
20407SOL    HW261800   5.827   5.145   5.068  0.3770  1.5154  0.6038
20408SOL     OW61801   3.810   7.574   9.267 -0.2996  0.2203 -0.4783
20408SOL    HW161802   3.761   7.656   9.260 -2.4419 -0.6737  1.9977
20408SOL    HW261803   3.868   7.587   9.342 -0.4512 -0.3829 -0.2450
20409SOL     OW61804   9.022   9.885   0.352  0.4317 -0.1784 -0.2959
20409SOL    HW161805   8.978   9.966   0.377  0.1450 -0.6416  0.7489
20409SOL    HW261806   9.093   9.875   0.416  0.0585 -1.0810 -0.0159
20410SOL     OW61807   3.507   4.302   3.357  0.3110 -0.7632  0.3627
20410SOL    HW161808   3.523   4.303   3.451  0.0598 -2.8424  0.4801
20410SOL    HW261809   3.441   4.233   3.345  0.2437 -0.4395 -1.3213
20411SOL     OW61810   8.811   8.968   3.655  0.1913 -0.0619 -0.2309
20411SOL    HW161811   8.794   8.960   3.749 -0.7060 -0.6025 -0.4247
20411SOL    HW261812   8.744   9.030   3.624  2.3602  2.5501 -0.0304
20412SOL     OW61813   6.270   0.636   9.741 -0.6195 -0.1258  0.7129
20412SOL    HW161814   6.364   0.642   9.722 -0.7570 -1.1722 -0.3426
20412SOL    HW261815   6.235   0.721   9.712 -0.1618 -0.1220  0.1473
20413SOL     OW61816   8.232   8.647   0.131 -0.0381  0.1643 -0.1071
20413SOL    HW161817   8.265   8.732   0.160  1.4134 -0.4857  0.2434
20413SOL    HW261818   8.212   8.600   0.213  0.4878 -0.3143 -0.2425
20414SOL     OW61819   2.288   7.996   4.942 -0.6169  0.1608  0.2220
20414SOL    HW161820   2.208   7.986   4.993 -1.5602 -1.9942 -1.4994
20414SOL    HW261821   2.358   7.976   5.003 -1.5176  0.1863  1.2888
20415SOL     OW61822   3.722   0.365   3.252  0.0597 -0.0314 -0.0958
20415SOL    HW161823   3.778   0.442   3.244  1.1705 -0.7816  0.1720
20415SOL    HW261824   3.635   0.400   3.270  0.9847  1.1328  2.6344
20416SOL     OW61825   7.606   8.154   6.791 -0.0403  0.6297  0.2223
20416SOL    HW161826   7.521   8.176   6.752 -1.0145 -0.2749  1.7048
20416SOL    HW261827   7.663   8.135   6.716 -1.8596 -1.2317 -0.8257
20417SOL     OW61828   6.570   8.341   8.214  0.3308  0.0624  0.4088
20417SOL    HW161829   6.613   8.298   8.139  0.1681 -0.4815  0.6203
20417SOL    HW261830   6.476   8.329   8.197  0.3071 -1.2378  1.3584
20418SOL     OW61831   6.498   4.819   6.688  1.0197 -0.5729  0.2907
20418SOL    HW161832   6.476   4.750   6.750  1.9015 -0.7322  0.4354
20418SOL    HW261833   6.441   4.803   6.613  1.7145 -1.9025  0.0209
20419SOL     OW61834   4.101   0.242   2.285 -0.0284  0.4183 -0.5668
20419SOL    HW161835   4.180   0.291   2.308  0.4882 -0.3173 -0.7561
20419SOL    HW261836   4.079   0.193   2.363  0.0941  0.1028 -0.7288
20420SOL     OW61837   7.251   0.689   9.539  0.1355 -0.3674  0.7606
20420SOL    HW161838   7.195   0.711   9.465  0.4102  0.5341  0.8122
20420SOL    HW261839   7.238   0.760   9.601  1.0542 -0.3324  0.9293
20421SOL     OW61840   8.473   4.381   3.018  0.1508 -0.4949 -0.0578
20421SOL    HW161841   8.549   4.423   2.978 -0.4813 -0.1655 -0.9312
20421SOL    HW261842   8.474   4.412   3.109  0.7414 -0.0671 -0.2028
20422SOL     OW61843   5.700   7.490   0.215  0.1967 -0.0155 -0.5578
20422SOL    HW161844   5.622   7.503   0.162 -1.2055 -0.4067  1.3243
20422SOL    HW261845   5.728   7.401   0.195 -1.9024 -1.1671  1.2598
20423SOL     OW61846   4.148   2.799   9.889 -0.1526 -0.1111  0.5056
20423SOL    HW161847   4.175   2.708   9.878 -0.1777 -0.2152  1.2284
20423SOL    HW261848   4.056   2.794   9.917  0.0688  0.0927  1.3039
20424SOL     OW61849   5.306   4.077   9.808 -0.7333 -0.1289 -0.0084
20424SOL    HW161850   5.328   4.057   9.899  2.5103 -1.5879 -0.9800
20424SOL    HW261851   5.215   4.048   9.798 -0.6169 -1.5165  2.3004
20425SOL     OW61852   5.124   7.352   0.632 -0.4254  0.2703 -0.4612
20425SOL    HW161853   5.087   7.365   0.720 -2.0661  1.6443 -1.2880
20425SOL    HW261854   5.112   7.259   0.615  0.1164 -0.0686  0.8267
20426SOL     OW61855   2.445   4.375   4.595 -0.1570  0.5522 -0.2920
20426SOL    HW161856   2.446   4.440   4.665 -0.8454  0.3749 -0.1095
20426SOL    HW261857   2.397   4.417   4.524  0.6214  0.7668 -0.6930
20427SOL     OW61858   9.517   4.629   2.418 -0.3043  0.5607  0.2280
20427SOL    HW161859   9.558   4.565   2.477 -0.8137  0.0832  0.0674
20427SOL    HW261860   9.582   4.699   2.410  0.9584 -0.6694 -0.8763
20428SOL     OW61861   1.509   5.251   2.811  0.5330  0.2574  0.0452
20428SOL    HW161862   1.575   5.230   2.745  0.1765 -1.5782  0.2241
20428SOL    HW261863   1.487   5.167   2.851 -1.4982  0.8961  0.3929
20429SOL     OW61864   0.270   3.560   1.210  0.1190  0.4678  0.0339
20429SOL    HW161865   0.310   3.475   1.192 -0.0726  0.7158 -1.7306
20429SOL    HW261866   0.202   3.570   1.143 -0.3171  1.7199  0.6225
20430SOL     OW61867   7.280   5.320   3.749  0.3953 -0.5124  0.0272
20430SOL    HW161868   7.348   5.261   3.718  0.4696 -1.8336  2.4833
20430SOL    HW261869   7.216   5.322   3.678  2.0915 -0.6559 -1.5862
20431SOL     OW61870   5.442   1.503   7.620  0.9682  0.3210 -0.2289
20431SOL    HW161871   5.523   1.469   7.581 -0.0210 -1.3334 -0.9538
20431SOL    HW261872   5.445   1.474   7.711  1.2680  0.4352 -0.2011
20432SOL     OW61873   1.558   4.663   9.394 -0.0658 -0.3517  0.0989
20432SOL    HW161874   1.565   4.696   9.305 -0.5955 -2.1861 -0.6829
20432SOL    HW261875   1.596   4.575   9.390 -1.7142 -1.1855  1.2181
20433SOL     OW61876   8.152   1.198   7.740 -0.4488 -0.2579  0.4757
20433SOL    HW161877   8.112   1.183   7.654 -1.1512  0.2089  0.7116
20433SOL    HW261878   8.089   1.163   7.803 -0.0672 -0.3445  0.8120
20434SOL     OW61879   6.941   0.331   2.616  0.4236  0.0805 -0.0650
20434SOL    HW161880   6.934   0.249   2.567 -0.7655 -1.0353  1.8350
20434SOL    HW261881   7.035   0.348   2.622  0.7686 -1.7370  0.3667
20435SOL     OW61882   1.392   4.431   8.921  0.0370 -0.7724 -0.0529
20435SOL    HW161883   1.424   4.379   8.995 -0.3422 -0.4479  0.3425
20435SOL    HW261884   1.326   4.375   8.879 -0.8301 -0.3786  0.7465
20436SOL     OW61885   4.572   2.696   4.136  0.2174  0.0842 -0.0580
20436SOL    HW161886   4.532   2.653   4.212  0.1772 -1.1965 -0.7761
20436SOL    HW261887   4.585   2.787   4.165 -1.7654  0.1855  0.7545
20437SOL     OW61888   5.284   4.823   5.635 -0.0659 -0.0989  0.1618
20437SOL    HW161889   5.362   4.864   5.599 -0.5589  0.6972 -0.0298
20437SOL    HW261890   5.261   4.878   5.710  0.4566 -1.2444  1.1935
20438SOL     OW61891   2.361   0.381   4.997  0.7692  0.7180 -1.0388
20438SOL    HW161892   2.305   0.456   4.978 -1.1663  0.2739  2.3314
20438SOL    HW261893   2.430   0.416   5.054 -0.5807 -0.0709  1.1964
20439SOL     OW61894   9.132   9.352   4.291 -0.6179  0.2238  0.0466
20439SOL    HW161895   9.119   9.297   4.368 -0.8579 -1.1215 -0.9115
20439SOL    HW261896   9.075   9.427   4.305 -0.7377 -0.0523  1.1239
20440SOL     OW61897   6.907   0.550   1.258 -0.0949 -0.2120  0.6440
20440SOL    HW161898   6.971   0.615   1.286 -0.4282 -0.1630  1.3193
20440SOL    HW261899   6.960   0.474   1.230  0.2565 -0.1847  1.2196
20441SOL     OW61900   2.827   5.483   3.815 -0.3106  0.4343 -0.0876
20441SOL    HW161901   2.752   5.455   3.866  0.7057 -0.7336  0.8155
20441SOL    HW261902   2.886   5.408   3.814  1.7016  1.8850  0.8763
20442SOL     OW61903   7.533   0.284   6.574  0.0677 -0.2592 -0.3063
20442SOL    HW161904   7.611   0.276   6.519  0.9059  2.4020  0.3556
20442SOL    HW261905   7.461   0.294   6.511  0.7022  0.3803 -0.9518
20443SOL     OW61906   9.112   1.003   0.443  0.5756 -0.4298 -0.1619
20443SOL    HW161907   9.037   1.057   0.418  0.9855  0.2759  0.1142
20443SOL    HW261908   9.144   1.042   0.524  2.3742  0.4460 -1.2262
20444SOL     OW61909   4.221   9.313   0.148  0.1390 -0.3284 -0.3600
20444SOL    HW161910   4.255   9.402   0.136  1.4959 -0.7711 -0.0693
20444SOL    HW261911   4.204   9.281   0.060  1.4462 -0.4199 -0.6036
20445SOL     OW61912   5.852   8.886   4.874  0.3577  0.1054  0.2458
20445SOL    HW161913   5.862   8.964   4.820  1.2649 -0.3442 -0.2519
20445SOL    HW261914   5.874   8.915   4.962  1.3715  0.2586 -0.0503
20446SOL     OW61915   7.427   5.950   0.046  0.2748 -0.5024  0.0472
20446SOL    HW161916   7.342   5.961   0.004  0.7221  2.0652 -0.3742
20446SOL    HW261917   7.412   5.972   0.138  0.3284 -0.7736  0.1199
20447SOL     OW61918   2.998   5.512   8.298  0.1259 -0.2971 -0.0328
20447SOL    HW161919   3.048   5.556   8.229  0.2099  0.3254  0.4125
20447SOL    HW261920   2.907   5.534   8.280  0.1929  0.3548  0.3778
20448SOL     OW61921   3.368   1.322   8.674  0.2512  0.2405 -0.3740
20448SOL    HW161922   3.274   1.328   8.659  0.1487 -0.8894 -0.2985
20448SOL    HW261923   3.376   1.289   8.763  0.7462  1.1764 -0.0587
20449SOL     OW61924   2.506   6.955   7.011 -0.1092  0.3499 -0.3216
20449SOL    HW161925   2.434   6.893   7.002  0.5376 -0.4252 -0.1722
20449SOL    HW261926   2.464   7.041   7.004 -0.6185 -0.0456 -3.6574
20450SOL     OW61927   4.910   1.661   4.481 -0.3238  0.2286  0.2822
20450SOL    HW161928   4.855   1.723   4.530  0.1623  2.2673 -1.5884
20450SOL    HW261929   4.993   1.660   4.530 -0.0907  1.6654 -0.0244
20451SOL     OW61930  -0.017   6.619   9.930  0.2331 -0.2898  0.0732
20451SOL    HW161931   0.043   6.671   9.983  0.0536 -1.4813  1.5219
20451SOL    HW261932   0.025   6.533   9.924 -0.6904 -0.7467 -0.0461
20452SOL     OW61933   1.846   3.660   8.289 -0.4052  0.2406 -0.8940
20452SOL    HW161934   1.788   3.609   8.346  1.0334 -0.3776  0.0855
20452SOL    HW261935   1.933   3.649   8.328  0.7138 -0.5267 -3.4267
20453SOL     OW61936   9.843   2.898   1.323  0.1808 -0.2249  0.0974
20453SOL    HW161937   9.909   2.967   1.337 -1.2396  1.1716  0.2520
20453SOL    HW261938   9.835   2.855   1.408 -0.8109  1.2104  0.7656
20454SOL     OW61939   8.329   6.929   8.874  0.0832  0.5771 -0.3018
20454SOL    HW161940   8.394   6.881   8.823  0.3282 -0.5052  1.0040
20454SOL    HW261941   8.381   6.990   8.927 -0.2294  2.5655 -2.1034
20455SOL     OW61942   6.557   1.036   6.887  0.2871  0.4442  0.5793
20455SOL    HW161943   6.571   1.130   6.878 -0.3044  0.4023 -1.3200
20455SOL    HW261944   6.541   1.005   6.797 -1.8599 -1.0663  1.3778
20456SOL     OW61945   7.655   7.016   5.184 -0.7674 -0.2616  0.5162
20456SOL    HW161946   7.737   7.063   5.164  1.0611 -3.7365 -1.0605
20456SOL    HW261947   7.599   7.033   5.108 -1.5165  1.9139  1.4777
20457SOL     OW61948   5.044   9.230   2.053 -0.1516 -0.1506 -0.1283
20457SOL    HW161949   5.065   9.212   1.962 -1.1857 -0.1191 -0.3757
20457SOL    HW261950   4.974   9.296   2.050 -0.8682 -0.8487  0.6649
20458SOL     OW61951   0.296   9.508   7.101  0.3250  0.4869  0.4324
20458SOL    HW161952   0.294   9.598   7.135 -0.5061  1.8349 -2.8169
20458SOL    HW261953   0.210   9.496   7.060  1.5388 -0.6052 -1.9577
20459SOL     OW61954   4.875   4.022   3.007  0.1842 -0.4456  0.2086
20459SOL    HW161955   4.888   4.115   2.987 -0.3825 -0.3578  0.2492
20459SOL    HW261956   4.879   4.017   3.103  1.8826 -0.7173  0.1592
20460SOL     OW61957   1.648   3.763   3.664  0.3999 -0.1123  0.3168
20460SOL    HW161958   1.632   3.765   3.570 -0.3247 -0.4397  0.4249
20460SOL    HW261959   1.689   3.847   3.684 -1.0887  0.7321 -0.0088
20461SOL     OW61960   9.474   0.756   1.339  0.1023  0.8856 -0.4105
20461SOL    HW161961   9.398   0.710   1.302 -0.3519  1.2232  0.0718
20461SOL    HW261962   9.473   0.732   1.432  1.3207 -0.0824 -0.6255
20462SOL     OW61963   3.162   3.538   5.424 -1.4574  0.4536  0.1543
20462SOL    HW161964   3.199   3.595   5.491 -0.0828 -0.3173  0.0825
20462SOL    HW261965   3.237   3.493   5.386 -2.4673 -1.2756  0.0836
20463SOL     OW61966   3.114   0.649   6.480  0.3258 -0.4912 -0.3151
20463SOL    HW161967   3.065   0.574   6.515 -0.1754 -0.7658 -1.5625
20463SOL    HW261968   3.198   0.645   6.526 -0.1936 -1.0094  0.6262
20464SOL     OW61969   9.238   8.296   2.838 -0.9755  0.1647 -0.4773
20464SOL    HW161970   9.297   8.262   2.771 -1.5366 -0.5988 -0.5981
20464SOL    HW261971   9.250   8.391   2.835  1.5386 -0.0365  0.6956
20465SOL     OW61972   3.156   2.013   0.529  0.2280 -0.3392  0.1965
20465SOL    HW161973   3.199   2.078   0.585  0.1427  1.3873 -1.6213
20465SOL    HW261974   3.228   1.973   0.480  0.0049  1.0576 -1.3338
20466SOL     OW61975   4.640   3.302   5.028 -0.2781  0.5443 -0.3268
20466SOL    HW161976   4.676   3.357   4.959 -0.9930  2.5551  0.8210
20466SOL    HW261977   4.606   3.225   4.983 -0.6720  1.7665 -2.2007
20467SOL     OW61978   7.412   6.424   3.391 -0.5883  0.0728  0.4760
20467SOL    HW161979   7.363   6.504   3.411  0.9822  1.0970  0.4106
20467SOL    HW261980   7.472   6.449   3.322 -1.9294 -1.9271 -1.5501
20468SOL     OW61981   1.459   0.244   5.277 -0.0332  0.2808 -0.2118
20468SOL    HW161982   1.512   0.267   5.354 -0.9432  0.7592  0.2890
20468SOL    HW261983   1.513   0.268   5.202 -0.4456  3.0163  0.2640
20469SOL     OW61984   5.980   0.097   5.313 -0.0502 -0.9004  0.0021
20469SOL    HW161985   5.977   0.029   5.245 -0.2275 -1.1063  0.2134
20469SOL    HW261986   5.898   0.145   5.301  0.7710  0.2769 -1.1610
20470SOL     OW61987   7.045   8.311   0.273 -0.2397 -0.1668 -0.4794
20470SOL    HW161988   7.114   8.287   0.211 -0.1467 -0.4353 -0.2712
20470SOL    HW261989   7.082   8.293   0.359 -0.4424  0.0169 -0.3514
20471SOL     OW61990   3.502   5.521   7.618  0.2094  0.3127 -0.3917
20471SOL    HW161991   3.571   5.466   7.580 -0.3770 -0.9379  0.2606
20471SOL    HW261992   3.422   5.496   7.571 -0.1860  0.0877  0.3725
20472SOL     OW61993   2.998   0.157   4.107  0.7373  1.0469 -0.6601
20472SOL    HW161994   3.062   0.106   4.057 -0.3833 -0.1021 -0.9870
20472SOL    HW261995   3.033   0.160   4.196  0.5648 -0.8520 -0.4869
20473SOL     OW61996   6.441   3.213   7.011 -0.8753  0.0892  0.1482
20473SOL    HW161997   6.532   3.208   7.042 -0.7207  0.0834 -0.3000
20473SOL    HW261998   6.439   3.158   6.932 -1.4204 -0.4112  0.5049
20474SOL     OW61999   6.574   5.217   5.632  0.5395 -0.4848 -0.7176
20474SOL    HW162000   6.515   5.252   5.565 -0.8836  1.4877  1.3934
20474SOL    HW262001   6.593   5.128   5.604 -1.8387 -0.5066 -2.5622
20475SOL     OW62002   0.770   3.008   8.992  0.6901 -0.3574 -0.4909
20475SOL    HW162003   0.822   3.035   8.916  1.2850  0.8229  0.3157
20475SOL    HW262004   0.831   2.956   9.045  0.7669  0.2006 -0.0258
20476SOL     OW62005   2.679   0.748   5.564 -0.3873 -0.2591  0.3755
20476SOL    HW162006   2.647   0.687   5.630 -1.0156 -0.3684 -0.0254
20476SOL    HW262007   2.751   0.795   5.608  0.3909 -1.5587  0.5467
20477SOL     OW62008   9.554   1.624   6.998 -0.0188  0.4574  0.2382
20477SOL    HW162009   9.486   1.640   6.932 -1.7201  0.1038  1.8250
20477SOL    HW262010   9.571   1.530   6.993  0.9240  0.6553 -0.6448
20478SOL     OW62011   2.489   9.833   1.598 -0.2083 -0.3896  0.1407
20478SOL    HW162012   2.552   9.874   1.540 -0.6469  1.3313  0.8143
20478SOL    HW262013   2.539   9.768   1.646  1.3213  1.5281  1.2931
20479SOL     OW62014   4.227   0.464   4.442 -0.0441  0.3694 -0.7426
20479SOL    HW162015   4.302   0.458   4.501 -0.1886  0.3364 -0.5633
20479SOL    HW262016   4.151   0.460   4.500 -0.2033 -0.4754 -0.9904
20480SOL     OW62017   0.787   5.698   1.208 -0.4733 -0.7949  0.2529
20480SOL    HW162018   0.728   5.761   1.167 -2.3431 -0.7155  2.7930
20480SOL    HW262019   0.813   5.639   1.138 -0.5425  1.3718 -1.7163
20481SOL     OW62020   7.309   3.325   8.667  0.3447 -0.8846  0.2995
20481SOL    HW162021   7.333   3.346   8.576  0.7085 -0.7849  0.4163
20481SOL    HW262022   7.236   3.384   8.686  0.1381 -1.0424  0.0065
20482SOL     OW62023   3.519   5.431   9.612 -0.6065  0.8167  0.2755
20482SOL    HW162024   3.440   5.381   9.595  1.1259 -2.0776  0.1015
20482SOL    HW262025   3.569   5.427   9.530  1.0473 -0.1283  1.2562
20483SOL     OW62026   3.385   4.931   9.026  0.2906 -0.2081 -0.1939
20483SOL    HW162027   3.355   5.003   9.083 -0.9893 -1.3547  0.6346
20483SOL    HW262028   3.456   4.970   8.975 -0.6097  1.7638 -0.0535
20484SOL     OW62029   9.678   3.308   7.988 -0.2183  0.3290  0.6379
20484SOL    HW162030   9.732   3.335   8.062  0.6958  0.7651 -0.1472
20484SOL    HW262031   9.597   3.359   7.997 -0.8969 -0.9900  2.3184
20485SOL     OW62032   7.564   9.306   5.081  0.6668 -0.2277 -0.1416
20485SOL    HW162033   7.579   9.400   5.066  1.7645 -0.2477  0.6830
20485SOL    HW262034   7.550   9.299   5.175  2.5682 -1.0987  0.1323
20486SOL     OW62035   0.389   3.022   3.960 -0.1207 -0.1776 -0.5018
20486SOL    HW162036   0.338   2.947   3.931 -1.5090  0.0454  1.2193
20486SOL    HW262037   0.324   3.083   3.996  1.2233  0.7693  0.4218
20487SOL     OW62038   6.036   9.098   9.496 -0.2018  0.7216  0.0821
20487SOL    HW162039   5.950   9.122   9.531 -0.7073 -1.3705  0.4142
20487SOL    HW262040   6.089   9.177   9.506 -1.5458  1.4897  1.6118
20488SOL     OW62041   5.814   2.479   6.936  0.5818 -0.1767 -0.3147
20488SOL    HW162042   5.836   2.530   6.858 -1.5302  3.9399  1.4924
20488SOL    HW262043   5.899   2.454   6.972  1.7042  1.1094 -1.9099
20489SOL     OW62044   9.721   6.079   7.864  0.1575 -0.2531  0.2166
20489SOL    HW162045   9.672   6.149   7.821 -0.1820  0.3566  1.5286
20489SOL    HW262046   9.767   6.122   7.936  1.1775 -1.1297  0.1189
20490SOL     OW62047   6.924   6.460   3.145  0.4012  0.3664 -0.3890
20490SOL    HW162048   7.013   6.436   3.169  1.3628 -0.3956 -4.1361
20490SOL    HW262049   6.927   6.556   3.136  0.1571  0.6088  1.6109
20491SOL     OW62050   9.366   2.356   9.592 -0.6184 -0.2560 -0.2807
20491SOL    HW162051   9.303   2.309   9.538 -2.8314  0.8050  1.1858
20491SOL    HW262052   9.325   2.357   9.679  0.5936  2.0052  0.3246
20492SOL     OW62053   7.651   4.814   9.506  0.4901 -0.3313  0.0731
20492SOL    HW162054   7.628   4.849   9.420  0.4077 -0.2084  0.1455
20492SOL    HW262055   7.711   4.880   9.543 -0.8999  0.5266  0.8636
20493SOL     OW62056   8.219   9.811   1.696  0.2053  0.6892 -0.1638
20493SOL    HW162057   8.304   9.787   1.732 -0.5130  0.2941  1.3696
20493SOL    HW262058   8.169   9.729   1.696 -0.2843  0.9816 -0.7010
20494SOL     OW62059   6.897   6.122   3.705  0.1204  0.4322 -0.3560
20494SOL    HW162060   6.907   6.177   3.783  1.2373  3.0882 -2.2162
20494SOL    HW262061   6.982   6.080   3.694  0.5408  1.4140 -1.0283
20495SOL     OW62062   7.321   3.450   8.435  0.1243 -0.5973 -0.2975
20495SOL    HW162063   7.393   3.483   8.382 -1.6422  1.6404 -1.4922
20495SOL    HW262064   7.279   3.529   8.470  0.0783 -1.9007  2.9865
20496SOL     OW62065   1.745   5.330   6.962  0.1945 -0.1109  0.3684
20496SOL    HW162066   1.733   5.418   6.998  0.4070  0.0647  0.0126
20496SOL    HW262067   1.730   5.272   7.037  0.2187  0.2343  0.6459
20497SOL     OW62068   3.159   7.974   5.311  0.2716 -0.4336 -0.7634
20497SOL    HW162069   3.108   8.053   5.330  2.8723  1.2575 -0.2707
20497SOL    HW262070   3.114   7.904   5.358 -1.7970  0.8615 -0.7156
20498SOL     OW62071   7.814   0.472   4.686 -0.4280  0.4798  0.1977
20498SOL    HW162072   7.767   0.549   4.651 -1.0457  1.4573  2.9392
20498SOL    HW262073   7.841   0.499   4.773 -0.4484 -2.3783  1.1629
20499SOL     OW62074   3.545   1.059   4.471  0.3967  0.1861  0.1672
20499SOL    HW162075   3.526   1.121   4.542  0.2911  1.3529 -0.8345
20499SOL    HW262076   3.515   1.104   4.392  2.6410 -0.0698 -0.9034
20500SOL     OW62077   4.992   5.454   8.250 -0.0749  0.3970  0.0651
20500SOL    HW162078   5.081   5.484   8.229 -0.0759 -0.2495 -0.9606
20500SOL    HW262079   4.957   5.424   8.166 -1.1478  0.3392  0.5239
20501SOL     OW62080   4.112   6.513   5.991  0.0710  0.2923  0.1563
20501SOL    HW162081   4.141   6.425   5.967  1.7492  1.0248 -0.7063
20501SOL    HW262082   4.020   6.516   5.965 -0.4012 -1.5895  1.3974
20502SOL     OW62083   1.008   6.589   1.107  0.0524 -0.6270 -0.4561
20502SOL    HW162084   1.005   6.501   1.069 -1.6544 -0.8173  0.0304
20502SOL    HW262085   1.021   6.647   1.032  2.7630 -1.3235 -0.6373
20503SOL     OW62086   7.655   5.986   5.957 -0.2658  0.0891 -0.5465
20503SOL    HW162087   7.649   6.070   5.911  0.5323  0.7125  0.4271
20503SOL    HW262088   7.749   5.976   5.975 -0.3067 -1.2353 -1.0258
20504SOL     OW62089   1.348   5.530   4.272  0.4359  0.0828 -0.0266
20504SOL    HW162090   1.333   5.625   4.272  0.6119  0.1111 -0.3362
20504SOL    HW262091   1.267   5.493   4.307 -1.1713  0.1171 -3.2847
20505SOL     OW62092   8.545   2.269   1.983 -0.2976  0.3992 -0.3276
20505SOL    HW162093   8.606   2.197   1.994  0.8661  1.5761  1.3350
20505SOL    HW262094   8.459   2.227   1.975  0.5548 -1.2178 -1.5388
20506SOL     OW62095   8.326   5.848   6.289 -0.0748  0.2776 -0.2482
20506SOL    HW162096   8.369   5.925   6.252 -0.1783  0.3355 -0.2482
20506SOL    HW262097   8.232   5.866   6.281 -0.1073  0.6281  0.7141
20507SOL     OW62098   8.554   5.951   5.345  0.2542 -0.0856 -0.2581
20507SOL    HW162099   8.564   5.941   5.250  0.8393 -1.2501 -0.0962
20507SOL    HW262100   8.479   5.895   5.367 -0.8064  1.3115 -0.2071
20508SOL     OW62101   2.111   4.655   1.287  0.0303 -0.1985  0.4415
20508SOL    HW162102   2.077   4.744   1.302 -0.2064 -0.0732 -0.7298
20508SOL    HW262103   2.206   4.667   1.279 -0.1981  0.4633 -2.6764
20509SOL     OW62104   8.093   5.281   4.279 -0.4274  0.0133 -0.3014
20509SOL    HW162105   8.130   5.354   4.329  1.9528 -0.0426 -1.8251
20509SOL    HW262106   8.014   5.256   4.328 -0.7929  2.9142  0.8237
20510SOL     OW62107   6.571   1.096   9.797 -0.6099  0.3122 -0.5379
20510SOL    HW162108   6.546   1.010   9.831  0.4815 -0.2034 -0.9750
20510SOL    HW262109   6.521   1.105   9.716 -2.6464  1.2219  0.7310
20511SOL     OW62110   5.412   2.408   1.849  1.2561  0.2351  0.8569
20511SOL    HW162111   5.429   2.457   1.929  3.0284 -1.4545  1.6242
20511SOL    HW262112   5.368   2.328   1.879 -0.0371  0.5430 -0.1412
20512SOL     OW62113   8.865   2.613   7.375  0.1383 -0.3365  0.3301
20512SOL    HW162114   8.938   2.666   7.406  1.0544 -1.6599  0.4881
20512SOL    HW262115   8.843   2.555   7.448 -0.1921 -0.8607 -0.1724
20513SOL     OW62116   7.435   6.101   7.874 -0.2628  0.0530 -0.4646
20513SOL    HW162117   7.524   6.083   7.843 -0.5492  0.5997 -1.6549
20513SOL    HW262118   7.447   6.134   7.963  0.7087 -0.0233 -0.5575
20514SOL     OW62119   4.043   8.984   8.917 -0.1164  0.5473  0.7709
20514SOL    HW162120   4.137   8.967   8.908 -0.6262 -1.9611 -0.7555
20514SOL    HW262121   4.036   9.079   8.910  2.2069  0.7034 -0.5264
20515SOL     OW62122   1.026   4.386   4.621  0.1640  0.3873  0.1122
20515SOL    HW162123   1.045   4.407   4.713 -1.7763 -0.6615  0.8232
20515SOL    HW262124   1.044   4.467   4.574 -1.0136  1.7067  1.7908
20516SOL     OW62125   1.399   4.250   9.815  0.1941  0.0751  0.2364
20516SOL    HW162126   1.309   4.252   9.847  0.1050 -1.7848  0.2085
20516SOL    HW262127   1.391   4.260   9.720  0.0704  0.5347  0.2950
20517SOL     OW62128   5.783   1.799   3.616  0.3630 -0.5649 -0.2883
20517SOL    HW162129   5.773   1.856   3.692  0.9968 -1.8032  0.7684
20517SOL    HW262130   5.709   1.738   3.622 -0.0399 -0.1735 -1.1353
20518SOL     OW62131   2.821   7.411   4.111 -0.3023  0.7383 -0.6219
20518SOL    HW162132   2.860   7.379   4.030  1.0108  2.3790 -0.7045
20518SOL    HW262133   2.739   7.363   4.120  1.2580 -2.1734 -0.9622
20519SOL     OW62134   8.238   2.201   1.871 -0.2280  0.4140 -0.5796
20519SOL    HW162135   8.318   2.165   1.834  0.5323 -0.0343  1.3497
20519SOL    HW262136   8.199   2.129   1.921 -0.4504  1.3162  0.6049
20520SOL     OW62137   9.727   0.889   8.540 -0.5577 -0.2294 -0.2139
20520SOL    HW162138   9.656   0.846   8.588 -0.0324  0.6463  1.4565
20520SOL    HW262139   9.721   0.981   8.567 -0.0756  0.2693 -1.6998
20521SOL     OW62140   4.802   1.702   6.589 -0.1444  0.2930 -0.2380
20521SOL    HW162141   4.880   1.659   6.555 -0.2568 -0.3226  0.2690
20521SOL    HW262142   4.734   1.634   6.588 -0.5412  0.6794 -0.1985
20522SOL     OW62143   9.077   0.239   3.841 -0.4416 -0.3655 -0.1203
20522SOL    HW162144   8.987   0.208   3.847 -0.4812 -0.8887 -2.4061
20522SOL    HW262145   9.129   0.161   3.825  0.4100 -0.0390  0.9582
20523SOL     OW62146   6.805   7.908   4.996  0.6853 -0.0491 -0.5670
20523SOL    HW162147   6.813   7.915   4.901  0.6300 -2.2144 -0.7946
20523SOL    HW262148   6.874   7.846   5.021 -0.2835 -0.7035  0.5790
20524SOL     OW62149   0.814   1.461   0.392 -0.3447  0.1689 -0.1633
20524SOL    HW162150   0.783   1.383   0.437  0.9073 -0.2852 -0.0543
20524SOL    HW262151   0.790   1.534   0.450 -2.0543 -0.0383 -0.5471
20525SOL     OW62152   0.969   1.933   8.867  0.3588  0.4309 -0.6538
20525SOL    HW162153   1.030   1.885   8.923  0.6760 -0.4540 -1.7195
20525SOL    HW262154   0.997   2.025   8.873 -0.0841  0.4825  1.1943
20526SOL     OW62155   1.735   6.664   4.233 -0.4636 -0.2533 -0.3812
20526SOL    HW162156   1.795   6.695   4.165 -0.3670 -0.5378 -0.4271
20526SOL    HW262157   1.756   6.718   4.309  0.5711 -1.0357 -0.0830
20527SOL     OW62158   4.877   3.394   0.009 -0.0511  0.2684  0.1712
20527SOL    HW162159   4.925   3.470   0.043  0.2308  0.3961 -0.5083
20527SOL    HW262160   4.943   3.341  -0.034  0.1098 -1.3431  2.2439
20528SOL     OW62161   7.371   6.325   0.762 -0.5632 -0.1998 -0.4756
20528SOL    HW162162   7.354   6.231   0.755  1.2671 -0.5444 -0.8530
20528SOL    HW262163   7.367   6.357   0.672  2.8305 -0.7662 -0.9793
20529SOL     OW62164   7.108   7.654   2.992 -0.1720 -0.1112 -0.0066
20529SOL    HW162165   7.090   7.610   2.909  0.9624 -0.9859  0.1757
20529SOL    HW262166   7.186   7.706   2.974  0.3937 -0.7140  0.6284
20530SOL     OW62167   8.714   9.915   8.092 -0.0459  0.5116 -0.4682
20530SOL    HW162168   8.768   9.890   8.017  1.4189  0.2648  0.6026
20530SOL    HW262169   8.638   9.857   8.088  0.7996 -0.6068 -0.8853
20531SOL     OW62170   5.225   4.690   4.606 -0.7716 -0.1411 -0.6982
20531SOL    HW162171   5.183   4.770   4.573  1.5171  2.0952  1.3621
20531SOL    HW262172   5.179   4.672   4.688 -0.2985 -0.0494 -0.4139
20532SOL     OW62173   0.191   9.750   8.361  0.2721 -0.3140 -1.1106
20532SOL    HW162174   0.125   9.752   8.292  0.2298  1.0212 -1.0648
20532SOL    HW262175   0.250   9.822   8.340  0.6285 -0.3006 -0.1253
20533SOL     OW62176   9.955   7.153   0.168  0.4496  0.1262 -0.4473
20533SOL    HW162177   9.874   7.173   0.121  0.7043 -1.1023 -1.4378
20533SOL    HW262178  10.014   7.119   0.102  1.6555  0.6058  0.3410
20534SOL     OW62179   6.685   7.394   1.477  0.4452  0.0091  0.3126
20534SOL    HW162180   6.646   7.403   1.564 -2.0339 -2.5802 -0.3895
20534SOL    HW262181   6.614   7.362   1.422  1.9880  1.3763 -2.6919
20535SOL     OW62182   8.399   5.624   2.145  0.1080  0.4728  0.5626
20535SOL    HW162183   8.373   5.681   2.218 -1.3710 -1.1422  1.3709
20535SOL    HW262184   8.333   5.555   2.144 -0.8926  1.2326 -3.3535
20536SOL     OW62185   3.012   1.678   5.359 -0.6366  0.5970  0.4317
20536SOL    HW162186   3.064   1.624   5.300 -0.8526  1.8504 -0.9708
20536SOL    HW262187   2.969   1.616   5.417  1.5659 -0.5505  0.9703
20537SOL     OW62188   6.271   9.472   7.690 -0.9528  0.2303  0.1393
20537SOL    HW162189   6.226   9.450   7.771 -1.1032  0.0186  0.0008
20537SOL    HW262190   6.355   9.426   7.696 -1.4516 -0.7870 -0.3507
20538SOL     OW62191   0.383   1.458   8.984 -0.0008  0.1507  0.5443
20538SOL    HW162192   0.448   1.515   9.025 -0.4889  1.7002 -0.7265
20538SOL    HW262193   0.301   1.477   9.031  0.5949 -2.8382  3.1193
20539SOL     OW62194   9.440   8.129   4.282 -0.3052  0.6660  0.0932
20539SOL    HW162195   9.406   8.183   4.212 -0.4547  0.8954  0.3398
20539SOL    HW262196   9.500   8.187   4.330 -0.1887  0.5056  0.1442
20540SOL     OW62197   6.222   6.299   8.649 -0.2287  0.3606 -0.7618
20540SOL    HW162198   6.306   6.328   8.686  0.1969  0.2692 -1.6352
20540SOL    HW262199   6.160   6.368   8.672 -0.1727 -0.0913  0.8516
20541SOL     OW62200   7.179   7.014   1.551 -0.0933 -0.3802 -0.6947
20541SOL    HW162201   7.209   6.992   1.463 -0.7452 -2.2409 -0.5000
20541SOL    HW262202   7.166   7.109   1.549 -0.4874 -0.4322 -2.7289
20542SOL     OW62203   4.616   7.351   2.722  0.5293 -0.5467  0.0291
20542SOL    HW162204   4.605   7.327   2.814 -1.5632 -0.5054 -0.1667
20542SOL    HW262205   4.630   7.268   2.677 -1.2469 -0.9173  0.0676
20543SOL     OW62206   3.355   7.543   3.716  0.3170 -0.1157 -0.3516
20543SOL    HW162207   3.275   7.584   3.685  0.6451 -0.3272 -1.5359
20543SOL    HW262208   3.344   7.535   3.811 -0.9861 -0.0142 -0.4875
20544SOL     OW62209   9.071   7.820   4.463 -0.0193  0.1132  0.2735
20544SOL    HW162210   9.072   7.793   4.371 -1.1294 -0.4232  0.4088
20544SOL    HW262211   9.160   7.805   4.493  0.4199  0.5025 -0.7719
20545SOL     OW62212   4.247   9.739   3.471 -0.7100  0.2400 -0.0535
20545SOL    HW162213   4.260   9.818   3.419  0.4597  0.1475  0.0829
20545SOL    HW262214   4.276   9.764   3.559 -2.1541  0.2320  0.4501
20546SOL     OW62215   5.792   5.100   1.433  0.6907  0.3718 -0.5858
20546SOL    HW162216   5.845   5.123   1.356 -0.1883  0.9102 -1.0469
20546SOL    HW262217   5.712   5.062   1.396 -0.5282  2.2862 -0.0212
20547SOL     OW62218   1.191   6.207   1.316 -0.0278 -0.6072  0.1906
20547SOL    HW162219   1.240   6.257   1.251  0.9804 -2.2005 -0.3269
20547SOL    HW262220   1.127   6.269   1.351  0.4794  0.7322 -1.1632
20548SOL     OW62221   3.125   1.222   0.991  0.1492  0.2369  0.3419
20548SOL    HW162222   3.121   1.142   0.938 -0.0434  0.6511 -0.2792
20548SOL    HW262223   3.218   1.238   1.004  0.2750  1.0783 -1.3466
20549SOL     OW62224   3.239   5.446   3.478  0.3166 -0.3837 -0.0204
20549SOL    HW162225   3.238   5.526   3.531 -1.5064  0.6602 -1.5253
20549SOL    HW262226   3.331   5.436   3.453  0.5341  1.5315 -0.1687
20550SOL     OW62227   6.987   5.270   8.130  0.1681 -0.4118 -0.2071
20550SOL    HW162228   7.042   5.348   8.135 -2.0189  1.3816 -2.1694
20550SOL    HW262229   6.951   5.260   8.218  0.4515  0.8329  0.0624
20551SOL     OW62230   3.079   4.542   2.990  0.2103 -0.0483 -0.0200
20551SOL    HW162231   3.159   4.526   2.939  0.0802 -0.8746  0.0154
20551SOL    HW262232   3.110   4.583   3.071  0.6111 -0.3943  0.0057
20552SOL     OW62233   5.067   3.281   1.940  0.0387 -0.1809  0.3632
20552SOL    HW162234   4.992   3.318   1.988  1.7831  1.7840  1.8042
20552SOL    HW262235   5.089   3.348   1.875 -0.0039 -1.1624 -0.6850
20553SOL     OW62236   1.123   8.500   9.745 -0.0412 -0.0715  0.0265
20553SOL    HW162237   1.197   8.439   9.748  1.5563  1.6664 -1.3965
20553SOL    HW262238   1.069   8.477   9.821 -0.0702 -3.8250 -0.9305
20554SOL     OW62239   8.692   5.746   0.503  0.0565 -0.0123 -0.1364
20554SOL    HW162240   8.650   5.830   0.482 -0.1512  0.4334  1.9152
20554SOL    HW262241   8.654   5.720   0.587 -0.6321 -2.6926 -1.1475
20555SOL     OW62242   3.323   0.976   1.095  0.3403 -0.4319 -0.4584
20555SOL    HW162243   3.377   1.005   1.168 -0.6375  0.3672 -0.0233
20555SOL    HW262244   3.380   0.918   1.043  0.1224 -3.8184  2.6872
20556SOL     OW62245   0.775   9.738   8.271  0.4191 -0.4217 -0.7905
20556SOL    HW162246   0.866   9.717   8.290  0.5050  1.1273  0.7616
20556SOL    HW262247   0.730   9.729   8.355 -0.7623 -0.6003 -1.4120
20557SOL     OW62248   4.118   6.961   6.241 -0.2794 -0.2618 -0.4687
20557SOL    HW162249   4.191   7.022   6.253 -0.7833  0.0646  1.1904
20557SOL    HW262250   4.120   6.906   6.319 -1.3857 -0.7065 -0.7390
20558SOL     OW62251   2.695   8.992   4.164 -0.0368  0.0985 -0.1809
20558SOL    HW162252   2.641   9.044   4.105 -1.1492  1.2527  1.7424
20558SOL    HW262253   2.648   8.910   4.175 -0.6841  0.5380  0.3784
20559SOL     OW62254   9.848   9.890   6.804  0.3018 -0.1396  0.1346
20559SOL    HW162255   9.830   9.946   6.880  1.7871 -0.1439  0.5116
20559SOL    HW262256   9.826   9.802   6.834  0.0602 -0.0389  0.2623
20560SOL     OW62257   5.218   9.820   5.009  0.1749 -0.3844 -0.1456
20560SOL    HW162258   5.237   9.845   5.100 -1.4081  1.3898 -0.2423
20560SOL    HW262259   5.166   9.893   4.975 -1.9047 -2.4138 -1.5307
20561SOL     OW62260   7.484   0.354   5.864  0.2229 -0.2457  0.6064
20561SOL    HW162261   7.467   0.374   5.956  0.6424 -0.7023  0.7905
20561SOL    HW262262   7.494   0.259   5.861  2.3017 -0.0704  0.4676
20562SOL     OW62263   5.812   4.545   7.787  0.3036 -0.6111 -0.4153
20562SOL    HW162264   5.816   4.466   7.840  0.8356 -0.0035  0.4835
20562SOL    HW262265   5.856   4.521   7.705 -1.3235 -1.8301 -0.9940
20563SOL     OW62266   4.467   7.077   1.893  0.2536  0.3812 -0.5932
20563SOL    HW162267   4.535   7.114   1.835  0.7356  1.3364  0.5437
20563SOL    HW262268   4.418   7.153   1.923  1.4264  0.2294  2.0168
20564SOL     OW62269   7.363   5.134   0.496  0.7966 -0.1859  0.0573
20564SOL    HW162270   7.300   5.117   0.566 -1.2340  1.5506 -1.2003
20564SOL    HW262271   7.358   5.057   0.440  0.0746 -0.2734  0.2245
20565SOL     OW62272   1.995   5.225   7.763 -0.7129 -0.0674 -0.2658
20565SOL    HW162273   1.964   5.312   7.786  0.5548  0.7100 -1.3732
20565SOL    HW262274   2.059   5.204   7.830 -0.8178 -0.0326 -0.1541
20566SOL     OW62275   0.168   0.278   1.298  0.4977  0.3649  0.3854
20566SOL    HW162276   0.185   0.371   1.316  0.8296  0.7299 -1.5738
20566SOL    HW262277   0.172   0.271   1.202 -0.8965 -1.4191  0.4057
20567SOL     OW62278   2.745   9.592   5.345 -0.0327 -0.3029  0.0527
20567SOL    HW162279   2.772   9.682   5.325 -0.8007  0.1275  0.9202
20567SOL    HW262280   2.736   9.551   5.259  0.8710  0.2794 -0.3376
20568SOL     OW62281   3.774   8.092   9.072  0.0363  0.9069 -0.0466
20568SOL    HW162282   3.855   8.138   9.093  0.2669  0.1683  0.7314
20568SOL    HW262283   3.793   8.000   9.092 -0.5438  0.5225 -1.1672
20569SOL     OW62284   3.479   4.128   6.956 -0.1959  0.4679 -0.0497
20569SOL    HW162285   3.518   4.214   6.944  0.6745  0.4938  2.3439
20569SOL    HW262286   3.392   4.145   6.992  0.5422  0.4136  1.8884
20570SOL     OW62287   1.046   7.198  -0.013 -0.1438  0.5910 -0.2470
20570SOL    HW162288   1.041   7.123   0.047  2.8632  2.5672  2.8211
20570SOL    HW262289   0.955   7.228  -0.021 -0.8801 -0.7662  2.0290
20571SOL     OW62290   5.290   1.723   1.890  0.1626 -0.1299  0.1262
20571SOL    HW162291   5.330   1.734   1.976  1.0833 -0.1454 -0.2770
20571SOL    HW262292   5.362   1.691   1.835 -0.4348 -0.2112 -0.6205
20572SOL     OW62293   8.740   2.474   5.031  0.2281  0.3928  0.2088
20572SOL    HW162294   8.795   2.552   5.029  0.6070  0.1246  0.0024
20572SOL    HW262295   8.659   2.500   4.987  0.8236  0.3275 -0.9795
20573SOL     OW62296   1.155   5.684   9.083  0.4897 -0.4937 -0.0555
20573SOL    HW162297   1.080   5.639   9.121  0.0744  0.4773  0.2996
20573SOL    HW262298   1.128   5.704   8.993  0.0084  0.5115  0.2919
20574SOL     OW62299   8.578   3.887   8.351  0.5097 -0.0931 -0.5411
20574SOL    HW162300   8.669   3.915   8.361  0.1741  0.3066  2.0173
20574SOL    HW262301   8.580   3.826   8.277  2.6786  0.5523 -1.0989
20575SOL     OW62302   6.325   2.731   7.927  0.3811 -0.2700  0.2561
20575SOL    HW162303   6.267   2.791   7.974  1.2202  2.1103 -1.5372
20575SOL    HW262304   6.333   2.655   7.985 -1.6128  0.8589  2.1580
20576SOL     OW62305   5.513   6.220   5.240 -0.3332 -0.2509 -0.0840
20576SOL    HW162306   5.548   6.155   5.180  0.4860 -0.3977  0.5380
20576SOL    HW262307   5.418   6.212   5.231 -0.2281 -0.7830 -0.8034
20577SOL     OW62308   4.692   1.604   1.926 -0.1730 -0.0728  0.5523
20577SOL    HW162309   4.711   1.512   1.906  0.3533  0.3279 -0.9261
20577SOL    HW262310   4.597   1.606   1.941 -0.0975 -0.9555  1.2567
20578SOL     OW62311   6.634   9.447   2.915  0.2146 -0.0618  0.1761
20578SOL    HW162312   6.539   9.454   2.916  0.0264 -2.1113  1.7518
20578SOL    HW262313   6.655   9.420   2.826 -0.6603  0.2562 -0.1420
20579SOL     OW62314   2.753   8.304   7.953 -0.1408 -0.2078  0.0209
20579SOL    HW162315   2.717   8.322   7.867 -1.7000 -0.2372  0.6322
20579SOL    HW262316   2.805   8.224   7.941 -1.7384 -1.2023 -0.5669
20580SOL     OW62317   3.519   0.798   0.685 -0.6653 -0.0369  0.1419
20580SOL    HW162318   3.560   0.726   0.638 -0.9181 -0.5731  0.7409
20580SOL    HW262319   3.507   0.866   0.618 -0.4140 -0.5391 -0.4212
20581SOL     OW62320   0.783   6.539   5.924  0.7573 -0.7741 -0.4360
20581SOL    HW162321   0.802   6.464   5.868  2.0210 -1.2666  0.6070
20581SOL    HW262322   0.759   6.500   6.008 -2.6896 -0.1094 -0.9629
20582SOL     OW62323   3.700   1.840   2.868 -0.2634 -0.6300 -0.1181
20582SOL    HW162324   3.658   1.758   2.841 -1.3837 -0.8262  1.9941
20582SOL    HW262325   3.794   1.825   2.854 -0.5459 -1.7804 -0.9441
20583SOL     OW62326   1.451   1.590   2.179  0.5637  0.3975  0.5260
20583SOL    HW162327   1.456   1.562   2.271  0.7712 -0.9253  0.1353
20583SOL    HW262328   1.542   1.597   2.151  0.5403 -1.7758 -0.2867
20584SOL     OW62329   1.582   1.009   4.554 -0.3002 -0.2567  0.2435
20584SOL    HW162330   1.606   0.919   4.578 -0.7167 -0.6796 -0.8713
20584SOL    HW262331   1.543   1.045   4.634  0.4116 -0.8649  0.8808
20585SOL     OW62332   8.482   2.747   7.635 -0.3725 -0.6484 -0.2624
20585SOL    HW162333   8.470   2.820   7.697 -3.7098 -1.7978  0.6697
20585SOL    HW262334   8.563   2.706   7.663  0.3312  1.2593  0.7255
20586SOL     OW62335   5.032   8.600   7.731  0.3513 -0.1108 -0.0932
20586SOL    HW162336   5.101   8.647   7.686 -0.8085  4.1823  2.0662
20586SOL    HW262337   5.077   8.550   7.799  1.5112 -0.7782 -1.2999
20587SOL     OW62338   9.623   9.996   4.772 -0.5808 -0.6054  0.2868
20587SOL    HW162339   9.626   9.900   4.771 -0.7733 -0.7028 -2.8963
20587SOL    HW262340   9.530  10.017   4.779 -0.5076 -0.6318  1.3699
20588SOL     OW62341   1.897   8.034   0.159 -0.9967 -0.4193  0.2341
20588SOL    HW162342   1.817   7.993   0.193 -1.1996  0.5686  0.9902
20588SOL    HW262343   1.895   8.123   0.194 -0.1769  0.0040 -0.7484
20589SOL     OW62344   9.036   5.061   4.610 -0.1980 -0.2043 -0.6061
20589SOL    HW162345   9.077   5.088   4.528 -0.8024  0.2901 -0.7540
20589SOL    HW262346   9.077   4.977   4.631  0.3242 -0.0887 -1.1477
20590SOL     OW62347   4.404   2.617   9.033  0.6365  0.6540  0.7997
20590SOL    HW162348   4.461   2.594   9.106  0.9411  1.3816  0.7951
20590SOL    HW262349   4.456   2.676   8.978  0.6497 -0.3991 -0.3710
20591SOL     OW62350   3.713   2.977   2.914 -0.1900  0.0966  0.0081
20591SOL    HW162351   3.666   3.020   2.985 -0.1889  0.6522 -0.3257
20591SOL    HW262352   3.685   2.885   2.919 -0.4708  0.2067  0.4899
20592SOL     OW62353   3.848   7.027   7.610 -0.3948 -0.3671 -0.0930
20592SOL    HW162354   3.841   7.102   7.669  0.0293 -0.3889 -0.0092
20592SOL    HW262355   3.784   6.964   7.643 -2.9872  1.1079 -1.9428
20593SOL     OW62356   8.284   6.152   6.430 -0.4154  0.0985 -0.1513
20593SOL    HW162357   8.377   6.133   6.435 -1.0797 -3.7052  0.4166
20593SOL    HW262358   8.270   6.180   6.339  0.9288 -1.9624 -1.0754
20594SOL     OW62359   2.718   6.410   0.147 -0.2809 -0.0911  0.5021
20594SOL    HW162360   2.688   6.500   0.155  1.5904  0.4839  1.8835
20594SOL    HW262361   2.749   6.402   0.057  0.5816  1.0371  0.6794
20595SOL     OW62362   4.369   2.509   6.514  0.5373  0.0506 -0.1920
20595SOL    HW162363   4.340   2.559   6.590  0.1462 -1.4237  0.6672
20595SOL    HW262364   4.464   2.503   6.524  0.3105 -1.7346  1.2402
20596SOL     OW62365   2.726   4.585   7.239  0.0332  0.2481 -0.0527
20596SOL    HW162366   2.664   4.657   7.225 -0.4908  0.0176  0.9845
20596SOL    HW262367   2.794   4.623   7.294 -1.4162 -0.5955  2.4677
20597SOL     OW62368   1.608   4.347   2.477 -0.0109  0.0333  0.0267
20597SOL    HW162369   1.681   4.406   2.462  1.1215 -1.4174 -0.4043
20597SOL    HW262370   1.533   4.391   2.438  0.5008  1.7971  0.9556
20598SOL     OW62371   3.144   8.381   1.049  0.6453  0.1647  0.3352
20598SOL    HW162372   3.212   8.319   1.019 -0.9332 -2.0192  1.0310
20598SOL    HW262373   3.193   8.459   1.076  2.5679  0.1623 -2.6482
20599SOL     OW62374   2.761   8.412   6.740  0.2595 -0.0805  0.8678
20599SOL    HW162375   2.754   8.322   6.707  0.4889  0.8799 -2.0819
20599SOL    HW262376   2.843   8.412   6.790  2.1355 -0.8492 -1.8975
20600SOL     OW62377   2.512   9.942   0.960  0.3749 -0.3942  0.2398
20600SOL    HW162378   2.458  10.020   0.944 -0.9577 -1.3567 -0.1630
20600SOL    HW262379   2.589   9.955   0.905 -0.7088 -0.2115 -1.3103
20601SOL     OW62380   6.731   1.364   3.282 -0.0633 -0.8901  0.2375
20601SOL    HW162381   6.783   1.367   3.201 -0.9574  1.5318 -0.3345
20601SOL    HW262382   6.651   1.412   3.261  0.4035  1.3516  3.0085
20602SOL     OW62383   2.866   3.270   2.625 -0.1851  0.0763  0.1084
20602SOL    HW162384   2.820   3.237   2.547  1.0619 -1.6184  0.0188
20602SOL    HW262385   2.936   3.325   2.590 -0.8353  0.9295  0.1395
20603SOL     OW62386   7.069   4.012   1.406  0.3836  0.1355  0.2100
20603SOL    HW162387   7.125   4.003   1.329  0.3084  0.4011  0.1216
20603SOL    HW262388   7.044   3.922   1.428  1.4844 -0.0640  0.7323
20604SOL     OW62389   1.511   8.844   5.593  0.6322 -0.1964 -0.1867
20604SOL    HW162390   1.480   8.918   5.541 -2.0847 -1.6978 -0.9317
20604SOL    HW262391   1.460   8.850   5.674 -0.3420 -1.7316 -0.6530
20605SOL     OW62392   3.421   0.293   6.117  0.3708 -0.1162 -0.4838
20605SOL    HW162393   3.376   0.208   6.119  0.2785 -0.0516  0.9508
20605SOL    HW262394   3.377   0.341   6.047 -0.1826 -0.9233 -0.7092
20606SOL     OW62395   1.967   3.854   6.699  0.2966 -0.0387  0.0364
20606SOL    HW162396   1.994   3.909   6.626 -0.1315 -0.3098 -0.3265
20606SOL    HW262397   2.019   3.886   6.773  1.1486 -0.1409 -0.5051
20607SOL     OW62398   6.643   3.683   3.197  0.3078 -0.0837 -0.2646
20607SOL    HW162399   6.643   3.770   3.156 -0.5671  0.2612  0.4358
20607SOL    HW262400   6.657   3.622   3.124 -0.1747  0.5841 -0.9299
20608SOL     OW62401   0.323   5.637   3.690  0.1164  0.1308 -0.6766
20608SOL    HW162402   0.369   5.554   3.687 -2.6813 -1.5320 -3.3077
20608SOL    HW262403   0.256   5.625   3.758 -1.1939 -0.3992 -2.0034
20609SOL     OW62404   0.864   9.109   1.975 -0.1499 -0.2596  0.0553
20609SOL    HW162405   0.911   9.186   2.007 -0.5380 -0.5248  1.3241
20609SOL    HW262406   0.786   9.104   2.030  1.4989 -3.4818  2.4133
20610SOL     OW62407   4.821   4.840   0.329  0.0635  0.0556 -0.1319
20610SOL    HW162408   4.750   4.824   0.267 -0.4897  0.6479  0.3361
20610SOL    HW262409   4.780   4.832   0.415  0.9430 -1.3446  0.1988
20611SOL     OW62410   9.280   7.257   8.674 -0.1463  0.2909 -0.1187
20611SOL    HW162411   9.306   7.191   8.738 -1.1240  0.7657  0.8013
20611SOL    HW262412   9.208   7.304   8.715 -1.5733 -0.0991 -2.0103
20612SOL     OW62413   9.730   9.031   4.300  0.2720  0.6523 -0.0786
20612SOL    HW162414   9.653   8.995   4.256  0.4616  0.3027 -0.1250
20612SOL    HW262415   9.711   9.023   4.393 -0.4421  2.0493 -0.0697
20613SOL     OW62416   0.343   7.150   3.050  0.1844 -0.1147 -0.3089
20613SOL    HW162417   0.413   7.125   2.989  0.7147  1.1206 -0.2342
20613SOL    HW262418   0.269   7.095   3.026  1.0919 -1.2607 -0.5766
20614SOL     OW62419   1.061   0.454   9.864 -0.2634  0.2792  0.1031
20614SOL    HW162420   1.054   0.516   9.792 -1.5425  0.2888  0.2095
20614SOL    HW262421   0.994   0.388   9.845 -0.3797  0.0952  1.0980
20615SOL     OW62422   6.374   2.201   9.022  0.1516  0.2394 -0.4769
20615SOL    HW162423   6.368   2.134   8.955 -0.6050  1.3459 -1.5680
20615SOL    HW262424   6.283   2.220   9.047 -0.0034  3.1538 -2.6580
20616SOL     OW62425   6.684   6.299   8.026  0.1566  0.2327 -0.0656
20616SOL    HW162426   6.629   6.361   8.074 -1.1007  0.2862 -1.5078
20616SOL    HW262427   6.669   6.320   7.934  0.0352 -1.9142 -0.5865
20617SOL     OW62428   0.520   8.543   1.964 -0.0922 -0.2694  0.0995
20617SOL    HW162429   0.613   8.564   1.950  0.0257 -0.7192  0.1893
20617SOL    HW262430   0.473   8.618   1.928  0.3482  0.7210  1.5092
20618SOL     OW62431   4.616   1.303   9.317  0.4983  0.0776  0.0423
20618SOL    HW162432   4.546   1.252   9.277 -0.7043  0.9588  0.9566
20618SOL    HW262433   4.695   1.277   9.269 -0.7012  0.3848 -2.2210
20619SOL     OW62434   8.107   0.060   1.252  0.6173 -0.0672 -0.0582
20619SOL    HW162435   8.152  -0.004   1.307  0.1511  0.3311  0.7919
20619SOL    HW262436   8.065   0.120   1.313 -1.1094 -0.4431 -0.8209
20620SOL     OW62437   4.010   2.430   2.675 -0.9101 -0.1297  0.0745
20620SOL    HW162438   3.967   2.377   2.742 -1.9823  1.4646  0.7157
20620SOL    HW262439   3.973   2.517   2.687  2.2960  1.3279  0.4672
20621SOL     OW62440   1.035   7.966   9.760 -0.2148  0.4118  0.2867
20621SOL    HW162441   0.987   8.032   9.709  0.0816 -0.3851 -1.0736
20621SOL    HW262442   1.060   8.012   9.840 -0.8463  1.6663 -0.1948
20622SOL     OW62443   7.589   1.139   2.610  0.4086 -0.1264 -0.9065
20622SOL    HW162444   7.631   1.074   2.666 -0.9682 -0.4608 -0.2138
20622SOL    HW262445   7.634   1.132   2.526  0.3784 -1.9063 -0.8054
20623SOL     OW62446   2.233   3.903   1.042 -0.1669 -0.4940  0.2548
20623SOL    HW162447   2.310   3.863   1.001 -0.8080 -1.1395 -0.3588
20623SOL    HW262448   2.160   3.848   1.013 -0.9954  0.7542 -0.0898
20624SOL     OW62449   8.073   9.522   0.517  0.3666 -0.0429  0.2524
20624SOL    HW162450   8.000   9.519   0.579 -1.6458 -2.2228 -2.0148
20624SOL    HW262451   8.034   9.554   0.435  2.7501  1.9161 -0.2567
20625SOL     OW62452   1.740   4.082   4.459 -0.3978 -0.5142  0.6973
20625SOL    HW162453   1.825   4.099   4.420  0.6585 -1.4053  2.4589
20625SOL    HW262454   1.689   4.162   4.444 -0.2455 -0.9106 -2.6814
20626SOL     OW62455   1.303   3.313   9.894 -0.1311 -0.0797  0.0030
20626SOL    HW162456   1.229   3.287   9.838 -0.0886 -0.3409  0.0701
20626SOL    HW262457   1.291   3.263   9.975  1.0740 -1.4419 -0.6194
20627SOL     OW62458   1.391   4.689   2.294  0.2200 -0.0976 -0.2599
20627SOL    HW162459   1.364   4.740   2.218  0.9671  1.0380  0.2163
20627SOL    HW262460   1.311   4.680   2.347 -0.2374 -0.6597 -1.0309
20628SOL     OW62461   5.866   6.236   2.778 -0.0456  0.2847  1.0024
20628SOL    HW162462   5.832   6.320   2.750  0.2785  0.1066  0.0505
20628SOL    HW262463   5.917   6.256   2.857 -1.2849  0.7294  1.7223
20629SOL     OW62464   2.056   9.935   4.380 -0.5924  0.0579  0.0789
20629SOL    HW162465   2.030   9.868   4.316 -1.7273 -0.1699  0.7563
20629SOL    HW262466   2.127   9.895   4.430 -0.8388 -0.4031  0.0651
20630SOL     OW62467   3.566   8.400   8.389  0.0845  0.4213  0.3463
20630SOL    HW162468   3.634   8.343   8.426 -0.4195  0.6813  1.7199
20630SOL    HW262469   3.501   8.340   8.353  0.3615  0.1544  0.2842
20631SOL     OW62470   3.078   7.229   9.582  0.3083 -0.3919  0.4605
20631SOL    HW162471   3.015   7.192   9.521 -1.9063  1.1597  1.6610
20631SOL    HW262472   3.162   7.190   9.557 -0.8058 -1.2374 -2.3069
20632SOL     OW62473   6.254   6.783   7.987 -0.5912  0.5927  0.4779
20632SOL    HW162474   6.201   6.852   8.027 -0.5778  0.0490  1.4641
20632SOL    HW262475   6.191   6.726   7.945 -0.7676  0.2086  1.2433
20633SOL     OW62476   5.805   8.644   5.032  0.1180  0.0301  0.1997
20633SOL    HW162477   5.823   8.728   4.991 -1.5010 -0.1692 -1.0068
20633SOL    HW262478   5.775   8.666   5.120 -0.3375  0.7212 -0.1206
20634SOL     OW62479   1.407   9.164   0.337 -0.4874  0.3341 -0.4247
20634SOL    HW162480   1.369   9.244   0.374  1.4720  0.3086  1.8772
20634SOL    HW262481   1.498   9.164   0.366 -0.2161 -2.3607 -0.9734
20635SOL     OW62482   5.398   7.251   0.098  0.0610  0.6705  0.1380
20635SOL    HW162483   5.372   7.329   0.146  0.2446  0.6733  0.2322
20635SOL    HW262484   5.462   7.282   0.034  0.3544  0.5476  0.3734
20636SOL     OW62485   8.295   2.989   0.886  0.6417  0.7593  0.1321
20636SOL    HW162486   8.239   2.946   0.951 -1.5215  1.1760 -1.3183
20636SOL    HW262487   8.384   2.973   0.916 -0.1898 -1.3319  1.7516
20637SOL     OW62488   6.619   2.152   7.256 -0.2248 -0.0354  0.2661
20637SOL    HW162489   6.690   2.209   7.286 -2.2964  1.8524  1.9005
20637SOL    HW262490   6.561   2.143   7.332 -3.2098  0.8661 -1.7391
20638SOL     OW62491   2.116   4.106   1.624  0.1778 -0.7492 -0.1731
20638SOL    HW162492   2.045   4.092   1.687  1.1775 -0.1990  1.1049
20638SOL    HW262493   2.092   4.187   1.578  0.0671 -0.4716  0.3749
20639SOL     OW62494   8.649   0.246   8.949  0.1860  0.6904 -0.8934
20639SOL    HW162495   8.571   0.291   8.916 -0.1105  0.5539 -0.4027
20639SOL    HW262496   8.642   0.157   8.914 -1.0861 -0.0063  0.9269
20640SOL     OW62497   1.800   9.868   0.116 -0.4532  0.3915 -0.1073
20640SOL    HW162498   1.817   9.951   0.161  0.7711 -0.2320  0.6496
20640SOL    HW262499   1.711   9.876   0.084 -0.9143  1.3975  1.3063
20641SOL     OW62500   3.493   8.495   5.044 -0.9705 -0.0044 -0.4922
20641SOL    HW162501   3.474   8.402   5.029 -0.3239 -0.6007  1.9692
20641SOL    HW262502   3.571   8.495   5.100 -0.7799  2.0432 -0.6857
20642SOL     OW62503   5.762   3.240   2.333 -0.2470 -0.1396  0.1162
20642SOL    HW162504   5.769   3.334   2.349 -0.3273  0.2397 -1.8315
20642SOL    HW262505   5.851   3.212   2.314 -0.1077 -0.6306  1.3965
20643SOL     OW62506   3.896   6.734   8.790  0.1034  0.3599  0.1200
20643SOL    HW162507   3.812   6.737   8.836  0.1953  0.9379  0.2588
20643SOL    HW262508   3.872   6.733   8.697 -0.0975 -1.3629  0.1603
20644SOL     OW62509   3.570   9.924   8.522  0.3113 -0.2034 -0.1400
20644SOL    HW162510   3.581  10.004   8.573 -0.8955 -0.6490  0.8671
20644SOL    HW262511   3.476   9.920   8.502 -0.0643 -2.3429  1.5783
20645SOL     OW62512   7.155   8.527   8.851 -0.3833  0.0010 -0.3308
20645SOL    HW162513   7.085   8.493   8.906 -0.3959  0.9261  0.2496
20645SOL    HW262514   7.232   8.476   8.876 -0.8717 -1.1792 -1.1353
20646SOL     OW62515   1.550   6.315   0.878  0.7110 -0.3273 -0.0250
20646SOL    HW162516   1.615   6.337   0.811  1.7074 -1.4353  0.5401
20646SOL    HW262517   1.478   6.275   0.829  0.9380 -0.1112 -0.5450
20647SOL     OW62518   9.529   4.951   8.906  0.3578 -0.0077 -0.6256
20647SOL    HW162519   9.449   4.900   8.915 -0.2424  0.6561 -1.9165
20647SOL    HW262520   9.526   5.015   8.977  0.9538 -1.5001  0.8024
20648SOL     OW62521   0.461   4.987   6.563  0.0502 -0.0973 -0.2440
20648SOL    HW162522   0.457   4.899   6.601  1.7798  0.4267  1.2878
20648SOL    HW262523   0.554   5.010   6.565 -0.3806  1.8188 -0.5056
20649SOL     OW62524   3.675   1.870   1.649  0.2816 -1.0407  0.0008
20649SOL    HW162525   3.612   1.798   1.639  1.1770 -2.1844  1.9349
20649SOL    HW262526   3.747   1.846   1.591 -0.6061 -0.1826 -1.5336
20650SOL     OW62527   3.350   9.327   7.203 -0.1290 -0.2641 -0.9017
20650SOL    HW162528   3.435   9.283   7.203  0.2235  0.3587 -2.4844
20650SOL    HW262529   3.370   9.420   7.194 -0.9529  0.0098 -0.0711
20651SOL     OW62530   2.381   2.877   8.510  0.0388 -0.4540 -0.5160
20651SOL    HW162531   2.468   2.909   8.487  0.7052 -1.1848  0.8288
20651SOL    HW262532   2.372   2.794   8.464  1.2120 -1.7266  1.3869
20652SOL     OW62533   1.618   0.454   6.534 -0.0686  0.1746 -0.3889
20652SOL    HW162534   1.612   0.370   6.489  2.7387 -1.1053  1.3506
20652SOL    HW262535   1.695   0.496   6.496 -0.1171  0.9282  0.3270
20653SOL     OW62536   0.277   0.350  -0.008 -0.1027 -0.4334 -0.1566
20653SOL    HW162537   0.355   0.338   0.045 -0.2307 -1.4669 -0.1796
20653SOL    HW262538   0.206   0.364   0.055  0.0249  0.0452 -0.1194
20654SOL     OW62539   9.831   3.286   6.122  0.1011  0.0252 -0.3576
20654SOL    HW162540   9.861   3.336   6.198 -1.4477 -1.7528  1.5496
20654SOL    HW262541   9.908   3.236   6.095  0.3857 -0.2152  0.8280
20655SOL     OW62542   6.269   1.657   7.376  0.5884  0.5812  0.4992
20655SOL    HW162543   6.177   1.631   7.374 -0.0653  2.6576  1.2195
20655SOL    HW262544   6.271   1.743   7.334  2.1576  0.7512  0.8445
20656SOL     OW62545   9.812   4.227   1.353 -0.0035  0.3347  0.3208
20656SOL    HW162546   9.846   4.140   1.374 -0.0061  0.2472 -0.0396
20656SOL    HW262547   9.886   4.272   1.312 -0.6266 -0.2334 -1.5224
20657SOL     OW62548   7.522   9.339   2.981 -0.0338  0.1275  0.2064
20657SOL    HW162549   7.523   9.258   3.031  0.2302  0.3112  0.5007
20657SOL    HW262550   7.614   9.354   2.957 -0.0236  0.5502  0.4991
20658SOL     OW62551   9.957   3.000   9.212  0.3577 -0.4724 -0.0950
20658SOL    HW162552   9.981   2.925   9.157  1.7673 -0.4811  0.4949
20658SOL    HW262553   9.864   3.014   9.193  0.0904 -2.2608 -0.3459
20659SOL     OW62554   1.902   5.959   6.226 -0.4252  0.5242  0.2619
20659SOL    HW162555   1.818   5.952   6.270 -1.2023 -1.0618 -1.3400
20659SOL    HW262556   1.952   5.883   6.257  0.5035  1.5075  1.2838
20660SOL     OW62557   7.636   5.038   1.812  0.3940  0.0040 -0.1817
20660SOL    HW162558   7.553   5.079   1.785 -0.2291 -1.1570 -0.1072
20660SOL    HW262559   7.681   5.106   1.863 -0.7528  0.4808  0.2393
20661SOL     OW62560   6.955   3.058   5.115  0.2523  0.4160  0.1206
20661SOL    HW162561   6.905   3.139   5.118  1.2362  1.0111  1.4912
20661SOL    HW262562   7.035   3.081   5.067  0.7960  0.4333  1.0120
20662SOL     OW62563   1.415   8.710   0.502  0.1422  0.0011  0.8267
20662SOL    HW162564   1.338   8.739   0.551 -0.8570 -0.6061 -0.3451
20662SOL    HW262565   1.419   8.616   0.517  0.2108 -0.0860  0.2673
20663SOL     OW62566   1.665   8.940   7.182  0.2314  0.6186 -1.0280
20663SOL    HW162567   1.712   8.897   7.254  0.0217  0.6691 -0.8619
20663SOL    HW262568   1.578   8.958   7.218  0.0468  0.4242 -1.3721
20664SOL     OW62569   1.430   0.494   1.877  0.1138  0.4692  0.5768
20664SOL    HW162570   1.437   0.403   1.905  0.1221  0.4777  0.6020
20664SOL    HW262571   1.443   0.491   1.782  0.0782  0.4397  0.5726
20665SOL     OW62572   5.536   6.191   6.398 -0.4753 -0.4093 -0.0420
20665SOL    HW162573   5.549   6.131   6.325 -0.1089  0.7860 -1.0030
20665SOL    HW262574   5.580   6.150   6.472  0.1083 -1.1180 -0.7717
20666SOL     OW62575   8.430   4.388   5.974 -0.2368 -0.3038 -0.1954
20666SOL    HW162576   8.383   4.311   5.940 -1.1153  0.5332 -0.9567
20666SOL    HW262577   8.519   4.378   5.942 -0.7970 -0.0659 -1.9669
20667SOL     OW62578   7.543   0.057   2.334 -0.9698  0.1723  0.1241
20667SOL    HW162579   7.479   0.126   2.318 -1.5403 -0.3295  0.1932
20667SOL    HW262580   7.621   0.085   2.287 -1.8691 -0.1505 -1.6544
20668SOL     OW62581   1.433   5.589   1.667  0.0835  0.0459 -0.0949
20668SOL    HW162582   1.456   5.594   1.759  0.3913  0.1614 -0.1767
20668SOL    HW262583   1.344   5.554   1.666  0.2653 -0.4268  0.2189
20669SOL     OW62584   1.168   2.098   2.615  0.4940  0.2274 -0.1893
20669SOL    HW162585   1.231   2.112   2.544  0.0031  0.5907 -0.5575
20669SOL    HW262586   1.106   2.170   2.606  1.6720  1.6124  2.0011
20670SOL     OW62587   3.731   7.511   3.422 -0.3462  0.1820  0.3355
20670SOL    HW162588   3.797   7.550   3.479  0.4116 -2.1405  1.1639
20670SOL    HW262589   3.779   7.445   3.371 -1.7315 -0.4294 -0.2399
20671SOL     OW62590   6.031   6.812   3.394  0.2670 -0.3241 -0.0786
20671SOL    HW162591   6.108   6.820   3.451 -0.4843 -0.9545  1.0758
20671SOL    HW262592   6.005   6.720   3.402 -1.1291  0.0724  0.2789
20672SOL     OW62593   2.184   2.866   2.207 -0.4422  0.3465  0.2011
20672SOL    HW162594   2.269   2.853   2.166 -0.5409 -0.3830  0.2124
20672SOL    HW262595   2.195   2.944   2.261  0.0784  0.5306 -0.1663
20673SOL     OW62596   9.820   6.498   2.451  0.1877  0.0455 -0.3442
20673SOL    HW162597   9.909   6.476   2.424  0.4539 -1.6677  1.6238
20673SOL    HW262598   9.828   6.583   2.493  1.0157 -0.2752  0.1814
20674SOL     OW62599   5.649   5.710   7.558  0.0218  0.3193 -0.5401
20674SOL    HW162600   5.621   5.747   7.475  2.3132  1.2231 -1.0020
20674SOL    HW262601   5.657   5.785   7.617  0.0423 -0.0899 -0.0091
20675SOL     OW62602   3.521   4.467   0.569 -0.0293 -0.3244 -0.1408
20675SOL    HW162603   3.595   4.407   0.570 -0.6830 -1.1519  0.0431
20675SOL    HW262604   3.504   4.483   0.476  1.5228  1.3716 -0.2008
20676SOL     OW62605   8.136   7.768   2.070  0.4678 -0.3686 -0.3387
20676SOL    HW162606   8.130   7.711   2.147  1.1453  2.0534  1.6227
20676SOL    HW262607   8.047   7.797   2.055  0.7408  1.7780  1.7301
20677SOL     OW62608   9.773   0.705   9.781  0.4930  0.3929  0.3850
20677SOL    HW162609   9.834   0.636   9.806  0.3081  0.2553  0.4605
20677SOL    HW262610   9.775   0.767   9.854  1.6060  1.1176 -0.2337
20678SOL     OW62611   0.877   2.918   0.685  0.9339 -0.3415  0.0303
20678SOL    HW162612   0.931   2.969   0.745 -0.0141 -2.4509  2.9135
20678SOL    HW262613   0.787   2.934   0.714  0.3706 -0.9000 -1.3144
20679SOL     OW62614   6.266   5.225   3.774  0.3059 -0.4546  0.2004
20679SOL    HW162615   6.223   5.310   3.773  2.2012  0.5619  0.8932
20679SOL    HW262616   6.204   5.167   3.819 -0.6521  0.7495  0.4617
20680SOL     OW62617   0.022   7.451   3.274  0.3950  0.2947 -0.0756
20680SOL    HW162618  -0.008   7.521   3.217  0.2368  0.5600  0.3344
20680SOL    HW262619  -0.002   7.370   3.228 -0.7269  0.4986  0.1278
20681SOL     OW62620   7.405   0.168   1.547  0.6454  0.1894 -0.1931
20681SOL    HW162621   7.327   0.214   1.517  0.1977  0.9387  1.9882
20681SOL    HW262622   7.374   0.110   1.616  1.8533 -0.3425 -0.0668
20682SOL     OW62623   1.359   0.995   1.029 -0.0205 -0.2506 -0.6690
20682SOL    HW162624   1.434   0.936   1.037  0.5489  0.3815 -1.3109
20682SOL    HW262625   1.395   1.075   0.992 -0.7009  0.6746  0.5884
20683SOL     OW62626   8.281   9.185   1.581  0.1073 -0.0280 -0.5423
20683SOL    HW162627   8.278   9.093   1.608  0.6608 -0.5162 -2.0526
20683SOL    HW262628   8.374   9.203   1.569  0.1001  1.0979  0.8544
20684SOL     OW62629   5.196   3.912   8.343  0.1317 -0.1011 -0.4380
20684SOL    HW162630   5.269   3.868   8.387 -0.1071 -0.6397 -0.5672
20684SOL    HW262631   5.189   3.867   8.259 -0.8284 -0.5553 -0.1258
20685SOL     OW62632   1.337   5.295   8.971  0.2334 -0.0566 -0.1827
20685SOL    HW162633   1.363   5.211   9.009 -1.4432  0.4604  2.3842
20685SOL    HW262634   1.322   5.276   8.878 -1.2179 -2.9181  0.5229
20686SOL     OW62635   5.026   8.701   9.457  0.6416 -0.4451  0.2990
20686SOL    HW162636   4.955   8.742   9.507  0.0497 -0.5827 -0.4031
20686SOL    HW262637   5.074   8.649   9.521 -0.3558 -0.9497  0.6499
20687SOL     OW62638   2.205   7.300   8.382  0.1928 -0.3712  0.0547
20687SOL    HW162639   2.171   7.219   8.420 -1.5145 -0.3149 -1.2497
20687SOL    HW262640   2.300   7.288   8.382  0.0294 -1.9461  0.7993
20688SOL     OW62641   2.627   6.359   6.434 -0.9918  0.0447 -0.1544
20688SOL    HW162642   2.660   6.445   6.457  0.7542 -1.0764  1.8478
20688SOL    HW262643   2.584   6.327   6.513 -0.8129 -1.2737 -0.5584
20689SOL     OW62644   7.759   1.538   4.231 -0.3133  0.4043 -0.3342
20689SOL    HW162645   7.719   1.533   4.318  2.0832 -1.6011  0.7837
20689SOL    HW262646   7.697   1.494   4.174 -1.4247  0.7277  0.5871
20690SOL     OW62647   7.855   5.085   2.559 -0.2392 -0.0270  0.1704
20690SOL    HW162648   7.921   5.026   2.596 -0.4593 -0.3838  0.0007
20690SOL    HW262649   7.803   5.029   2.500  0.3660  0.6188 -1.0111
20691SOL     OW62650   4.949   1.726   6.209  0.1001  0.1761  0.1246
20691SOL    HW162651   4.964   1.673   6.288  0.5961  1.5452  0.9794
20691SOL    HW262652   5.023   1.705   6.152  0.1884 -0.2017  0.3744
20692SOL     OW62653   9.389   9.044   2.751  0.8065 -0.1113  0.0567
20692SOL    HW162654   9.377   8.981   2.822 -1.0570  0.5320  0.3447
20692SOL    HW262655   9.448   9.000   2.690 -0.4861 -2.1571  0.2241
20693SOL     OW62656   7.000   4.036   4.697  0.3234 -0.2264 -0.1205
20693SOL    HW162657   7.025   4.067   4.610  0.0068 -1.2264 -0.5814
20693SOL    HW262658   6.905   4.022   4.691  0.3262 -0.4522  0.3446
20694SOL     OW62659   7.364   6.307   5.927  0.9452 -0.2756  0.8149
20694SOL    HW162660   7.274   6.279   5.945  1.2661 -0.3397  2.4693
20694SOL    HW262661   7.354   6.396   5.892  0.2056 -0.5958  0.1699
20695SOL     OW62662   7.041   1.443   5.456  0.0532  0.5750  0.3885
20695SOL    HW162663   7.121   1.470   5.502  0.7806 -1.1311  0.2319
20695SOL    HW262664   6.972   1.499   5.492  1.2625  1.8835  0.7476
20696SOL     OW62665   3.407   9.579   7.179 -0.3624 -0.1606  0.1180
20696SOL    HW162666   3.501   9.573   7.163 -0.0246 -0.7188  2.1189
20696SOL    HW262667   3.399   9.632   7.258 -1.6368 -1.2157  0.7327
20697SOL     OW62668   4.579   7.582   7.664 -0.2873  0.0298  0.0025
20697SOL    HW162669   4.583   7.605   7.757 -0.9923  0.7378 -0.1377
20697SOL    HW262670   4.569   7.487   7.664 -0.6488  0.0593  0.6550
20698SOL     OW62671   9.177   1.962   9.455 -0.4050 -0.5579  0.4359
20698SOL    HW162672   9.267   1.930   9.462 -0.8480 -1.5051  2.5471
20698SOL    HW262673   9.136   1.939   9.539 -2.4591  0.3665 -0.2348
20699SOL     OW62674   9.488   9.128   4.554 -0.0930  0.4654  0.2242
20699SOL    HW162675   9.507   9.212   4.596  0.8582 -0.1544  1.0899
20699SOL    HW262676   9.461   9.150   4.465  2.6261  1.5690 -0.4209
20700SOL     OW62677   5.234   8.592   0.768 -0.3233 -0.5952 -0.2722
20700SOL    HW162678   5.284   8.662   0.725 -0.9053  1.4295  2.1243
20700SOL    HW262679   5.148   8.597   0.727 -0.7687  1.0868  0.7341
20701SOL     OW62680   2.615   1.662   1.637 -0.1869 -0.1949  0.5868
20701SOL    HW162681   2.654   1.669   1.550 -1.3649  0.7109  0.0969
20701SOL    HW262682   2.557   1.738   1.643 -2.5080 -1.8743  0.9166
20702SOL     OW62683   1.591   0.795   1.713 -0.1935 -0.0881  0.9046
20702SOL    HW162684   1.550   0.710   1.700 -0.0553 -0.0202 -0.0063
20702SOL    HW262685   1.528   0.858   1.677 -0.0339  0.1472  1.0312
20703SOL     OW62686   1.842   8.272   8.811 -0.0068  0.0951  0.5691
20703SOL    HW162687   1.891   8.195   8.839  1.5044  0.6634 -0.3493
20703SOL    HW262688   1.785   8.240   8.740  2.0016  0.1039 -1.1463
20704SOL     OW62689   5.846   1.699   5.162 -0.4180 -0.2513  0.1559
20704SOL    HW162690   5.784   1.734   5.098 -2.0427 -0.1293  1.7358
20704SOL    HW262691   5.815   1.732   5.246  1.8275 -0.1648  1.0224
20705SOL     OW62692   8.756   8.238   3.853  0.1820  0.4013  0.1237
20705SOL    HW162693   8.725   8.172   3.792 -0.1121 -2.0761  2.7622
20705SOL    HW262694   8.744   8.321   3.806 -1.9382 -1.1528 -2.3668
20706SOL     OW62695   9.324   2.877   3.289 -0.1831 -0.0534 -0.2791
20706SOL    HW162696   9.410   2.849   3.256 -0.0062 -1.0537  0.9298
20706SOL    HW262697   9.311   2.823   3.367 -1.6759  0.4849 -0.1407
20707SOL     OW62698   3.465   3.970   5.857  0.1267  0.2561  0.8113
20707SOL    HW162699   3.553   3.944   5.886  0.0678 -0.6317  0.2384
20707SOL    HW262700   3.408   3.946   5.929  0.2541  0.0709  0.8517
20708SOL     OW62701   4.608   3.350   4.522 -0.1641  0.1777  0.0456
20708SOL    HW162702   4.700   3.364   4.500  0.0014 -1.6011 -0.5491
20708SOL    HW262703   4.602   3.369   4.615  0.9985 -0.4698  0.2693
20709SOL     OW62704   1.547   5.894   2.290  0.2438  0.6835 -0.0240
20709SOL    HW162705   1.496   5.973   2.271 -1.0343  0.3934  1.8530
20709SOL    HW262706   1.561   5.897   2.385 -3.3298 -3.2007  0.9434
20710SOL     OW62707   6.277   9.431   5.240  0.8514 -0.1099 -0.0550
20710SOL    HW162708   6.208   9.372   5.212 -0.0699 -0.7012  3.0397
20710SOL    HW262709   6.307   9.394   5.323  1.9747  2.4245  0.7545
20711SOL     OW62710   7.409   5.977   8.851 -0.5380  1.2230  0.7328
20711SOL    HW162711   7.391   5.899   8.903 -0.0270  0.2799 -0.4476
20711SOL    HW262712   7.324   6.020   8.841 -1.4449 -0.8535 -1.1701
20712SOL     OW62713   6.995   0.175   3.908  0.2886 -0.4491 -0.0581
20712SOL    HW162714   7.000   0.234   3.833 -0.5527  0.6041  0.6865
20712SOL    HW262715   6.903   0.178   3.936  0.7166 -0.2566  1.4452
20713SOL     OW62716   8.091   7.152   4.247 -0.1622  0.2268  0.6210
20713SOL    HW162717   8.090   7.208   4.325  0.4508 -0.7915  1.3802
20713SOL    HW262718   8.183   7.145   4.224 -0.2460 -0.4099  0.4837
20714SOL     OW62719   6.019   7.481   3.094  0.9194 -0.3693 -0.1720
20714SOL    HW162720   6.032   7.485   2.999  0.0304 -0.3831 -0.3010
20714SOL    HW262721   6.059   7.399   3.121  0.5538 -0.7031 -0.6396
20715SOL     OW62722   7.248   0.141   9.339 -0.1090  0.3047 -0.1547
20715SOL    HW162723   7.205   0.138   9.424 -2.7764  2.3729 -1.2799
20715SOL    HW262724   7.239   0.052   9.305  0.4338 -0.3902  1.4179
20716SOL     OW62725   0.317   4.351   6.466 -0.6245  0.2429  0.4485
20716SOL    HW162726   0.298   4.335   6.558 -1.4977  0.7348  0.3677
20716SOL    HW262727   0.412   4.365   6.463 -0.7208  1.1908  1.4180
20717SOL     OW62728   1.170   8.338   4.133  0.3478 -0.1764  0.2728
20717SOL    HW162729   1.182   8.274   4.063 -2.4496 -1.1937  0.5605
20717SOL    HW262730   1.191   8.291   4.213  0.1279 -0.1445  0.3505
20718SOL     OW62731   4.531   0.038   6.260  0.4027  0.5273 -0.3837
20718SOL    HW162732   4.469   0.085   6.314 -0.0958  2.5443 -2.5648
20718SOL    HW262733   4.617   0.070   6.288  0.1562  1.5088 -0.7239
20719SOL     OW62734   0.331   8.603   7.733 -0.1518 -0.3368 -0.5385
20719SOL    HW162735   0.346   8.643   7.648 -1.1364 -0.5082 -0.8109
20719SOL    HW262736   0.281   8.523   7.714 -0.7749 -0.1493  0.2167
20720SOL     OW62737   0.190   9.101   4.696 -0.2945  0.3918 -0.4253
20720SOL    HW162738   0.183   9.128   4.605  2.3560  0.8473 -0.5671
20720SOL    HW262739   0.139   9.021   4.702  0.1230 -0.0623 -2.4917
20721SOL     OW62740   5.641   1.782   9.488 -0.1195 -0.2921  0.1704
20721SOL    HW162741   5.677   1.853   9.542  1.2669 -0.6437 -0.2591
20721SOL    HW262742   5.700   1.708   9.502  0.3838 -0.3421 -1.9354
20722SOL     OW62743   9.134   9.781   8.515  0.2120  0.1998  0.2047
20722SOL    HW162744   9.113   9.710   8.575 -0.2396 -0.2109 -0.4331
20722SOL    HW262745   9.157   9.738   8.432 -2.3969  0.8277 -0.9403
20723SOL     OW62746   5.477   9.036   3.360  0.0657 -0.3543  0.2764
20723SOL    HW162747   5.526   9.082   3.291 -0.5517  0.0992  0.1349
20723SOL    HW262748   5.469   8.946   3.327 -0.3284 -0.1113 -0.3100
20724SOL     OW62749   4.661   4.635   5.667 -0.2305  0.1234 -0.3172
20724SOL    HW162750   4.603   4.628   5.743 -0.1106  0.1044 -0.2264
20724SOL    HW262751   4.679   4.729   5.659 -2.0818  0.4041 -1.7175
20725SOL     OW62752   1.602   8.793   2.338 -0.3714  0.1405 -0.1995
20725SOL    HW162753   1.658   8.803   2.261 -0.4339 -0.1115 -0.2769
20725SOL    HW262754   1.656   8.825   2.411 -0.6316  1.2166 -0.4633
20726SOL     OW62755   4.946   7.725   0.854 -0.4242 -0.2288 -0.1324
20726SOL    HW162756   4.910   7.808   0.821 -0.3082  0.1148  0.5756
20726SOL    HW262757   5.026   7.712   0.804 -0.9250 -0.3983 -0.9032
20727SOL     OW62758   9.111   1.720   6.860 -0.5819 -0.4980  0.4500
20727SOL    HW162759   9.139   1.810   6.843 -0.4561 -0.6570 -0.2474
20727SOL    HW262760   9.097   1.716   6.954  1.7019 -0.3696  0.8591
20728SOL     OW62761   6.985   3.342   6.138 -0.2338 -0.0335  0.4360
20728SOL    HW162762   6.948   3.421   6.179 -1.2042  0.0458 -0.5307
20728SOL    HW262763   7.072   3.369   6.109  0.3163  0.0156  2.0763
20729SOL     OW62764   6.483   1.017   6.198 -0.8215 -0.4180 -0.2080
20729SOL    HW162765   6.513   1.062   6.119 -3.4555  0.0158 -1.0385
20729SOL    HW262766   6.485   1.084   6.267  1.1370 -0.7071  0.0771
20730SOL     OW62767   7.675   1.374   1.965 -0.4030  0.6382  0.0618
20730SOL    HW162768   7.764   1.409   1.956  0.0975 -0.6947 -0.3504
20730SOL    HW262769   7.621   1.451   1.982  0.9774  1.3693  1.4042
20731SOL     OW62770   0.806   2.337   5.350 -0.7808  0.4290 -0.1530
20731SOL    HW162771   0.876   2.398   5.373 -0.3348 -0.4098  0.7974
20731SOL    HW262772   0.744   2.389   5.298  0.9712  0.9661 -1.8077
20732SOL     OW62773   6.559   2.983   1.854 -0.0567 -0.4335 -0.4026
20732SOL    HW162774   6.520   2.998   1.940 -2.8683  3.0317 -2.0327
20732SOL    HW262775   6.527   2.896   1.827 -0.4973 -0.8343  1.3332
20733SOL     OW62776   1.794   1.856   4.517 -0.0519  0.3071 -0.0658
20733SOL    HW162777   1.786   1.799   4.440 -1.2598 -0.4342  0.5848
20733SOL    HW262778   1.822   1.798   4.587 -0.9179  0.5763  0.5149
20734SOL     OW62779   7.292   8.243   0.138 -0.0884  0.2780  0.3311
20734SOL    HW162780   7.363   8.292   0.097  0.1594 -2.0700 -2.3605
20734SOL    HW262781   7.335   8.169   0.181 -0.7553 -0.1844  0.2236
20735SOL     OW62782   8.681   1.294   8.942  0.2406  0.2386  0.2993
20735SOL    HW162783   8.776   1.306   8.939  0.5255 -1.6287  0.5096
20735SOL    HW262784   8.645   1.375   8.908  1.9040  1.2248  0.7972
20736SOL     OW62785   2.995   8.774   0.466 -0.5204  0.5769 -0.4620
20736SOL    HW162786   3.071   8.715   0.462  2.0186  3.6203 -0.9480
20736SOL    HW262787   2.942   8.750   0.390  0.6999 -0.7049 -0.9576
20737SOL     OW62788   2.456   5.509   1.469  0.0273 -0.6044  0.2926
20737SOL    HW162789   2.436   5.544   1.382 -0.8338 -0.7081  0.4400
20737SOL    HW262790   2.405   5.563   1.529 -2.0191 -2.6129  0.4549
20738SOL     OW62791   6.625   6.826   2.726  0.2588  0.2794 -0.2218
20738SOL    HW162792   6.681   6.855   2.655 -0.6988 -1.3418 -1.7233
20738SOL    HW262793   6.647   6.884   2.799  2.8666  0.5707 -1.1297
20739SOL     OW62794   9.720   2.119   2.046 -0.5397 -0.4348 -0.6136
20739SOL    HW162795   9.750   2.147   2.132 -1.9014  0.0168 -0.2563
20739SOL    HW262796   9.661   2.046   2.064 -1.7815  0.4261 -1.0382
20740SOL     OW62797   9.048   8.712   5.237 -0.1894 -0.6349 -0.1859
20740SOL    HW162798   8.979   8.727   5.172 -0.7131  0.5257  0.5967
20740SOL    HW262799   9.106   8.787   5.226 -0.6827 -0.0267  1.1623
20741SOL     OW62800   9.717   2.652   8.683 -0.2062 -0.3979  0.0829
20741SOL    HW162801   9.656   2.725   8.688 -0.0352 -0.1633 -1.0997
20741SOL    HW262802   9.705   2.605   8.766 -0.6802  0.6664  0.6342
20742SOL     OW62803   3.647   7.167   3.258 -0.0197  0.1964 -0.2195
20742SOL    HW162804   3.561   7.206   3.242  0.6306  1.8046  0.0449
20742SOL    HW262805   3.706   7.213   3.198  0.4370 -1.9497 -1.5223
20743SOL     OW62806   2.347   1.913   3.325 -0.0439  0.2079  0.2307
20743SOL    HW162807   2.342   1.925   3.420  0.3116  1.6002  0.0941
20743SOL    HW262808   2.365   2.001   3.291 -0.9878 -0.1266 -1.1931
20744SOL     OW62809   1.432   2.905   3.238 -0.2635  0.5091 -0.1936
20744SOL    HW162810   1.463   2.914   3.328 -1.0242 -0.9145  0.2507
20744SOL    HW262811   1.496   2.952   3.185 -0.2647  2.1067  1.1574
20745SOL     OW62812   3.976   4.253   6.104 -0.1851  0.4673 -0.3203
20745SOL    HW162813   3.907   4.292   6.157  0.0953  1.3395 -0.5763
20745SOL    HW262814   4.028   4.327   6.074  0.8201 -0.1734 -0.1959
20746SOL     OW62815   4.968   2.226   6.459 -0.5879 -0.4345  0.2539
20746SOL    HW162816   4.921   2.188   6.533 -0.4624 -0.5680  0.2678
20746SOL    HW262817   4.901   2.272   6.409 -0.4683  0.6717  1.0846
20747SOL     OW62818   0.064   9.966   9.755  0.1725  0.2963  0.2089
20747SOL    HW162819   0.034   9.950   9.845 -0.9099 -0.2345 -0.2371
20747SOL    HW262820   0.147   9.918   9.748  1.7216  2.5288  1.7474
20748SOL     OW62821   2.032   8.015   5.106 -0.1344  0.2698 -0.1547
20748SOL    HW162822   2.026   7.925   5.073 -0.8843 -0.4988  1.9231
20748SOL    HW262823   1.989   8.068   5.039 -0.6485 -1.0522 -0.9182
20749SOL     OW62824   0.847   9.635   6.485  0.5769  0.4953  0.4754
20749SOL    HW162825   0.806   9.610   6.402 -0.3926  3.1133  0.0540
20749SOL    HW262826   0.863   9.552   6.531 -1.8169 -0.8491 -0.9300
20750SOL     OW62827   1.725   7.827   7.461  0.3702  0.0234 -0.5980
20750SOL    HW162828   1.777   7.747   7.469  1.8195  0.9878 -0.0544
20750SOL    HW262829   1.724   7.845   7.367 -0.8007 -1.1497 -0.8264
20751SOL     OW62830   4.547   3.737   0.214 -0.7536  0.4974 -0.2171
20751SOL    HW162831   4.590   3.692   0.142 -1.5551 -0.2119 -0.2664
20751SOL    HW262832   4.549   3.674   0.286 -0.5648  0.9451  0.1704
20752SOL     OW62833   4.913   9.345   6.544  0.6115 -0.0722 -0.4062
20752SOL    HW162834   4.868   9.409   6.488  0.8204  1.3106  0.9357
20752SOL    HW262835   5.005   9.352   6.518  0.6381  0.1902 -0.2416
20753SOL     OW62836   5.287   5.662   1.507 -0.0475 -0.1133 -0.4557
20753SOL    HW162837   5.240   5.731   1.554 -0.9825 -0.1431 -1.3132
20753SOL    HW262838   5.325   5.607   1.576 -1.4765 -0.2227  0.2649
20754SOL     OW62839   0.293   7.982   0.475 -0.1911  0.1898 -0.0372
20754SOL    HW162840   0.287   8.008   0.567 -2.3434  0.0036 -0.0734
20754SOL    HW262841   0.202   7.973   0.446  0.4232  0.4367 -2.2581
20755SOL     OW62842   3.580   4.286   0.042 -0.0555 -0.5192  0.2492
20755SOL    HW162843   3.522   4.341  -0.010  1.7786 -0.3186 -1.7750
20755SOL    HW262844   3.523   4.219   0.079 -1.8973  1.0512  0.3884
20756SOL     OW62845   9.375   9.417   0.097 -0.2255 -0.1829 -0.1780
20756SOL    HW162846   9.411   9.448   0.014 -0.2508 -0.8972 -0.4658
20756SOL    HW262847   9.280   9.426   0.088 -0.1708  1.9659  0.6874
20757SOL     OW62848   0.303   8.724   1.271  0.0014  0.2163 -0.0092
20757SOL    HW162849   0.319   8.640   1.314  0.0019  0.4350  0.4273
20757SOL    HW262850   0.220   8.712   1.225  0.1982 -0.1471 -0.2731
20758SOL     OW62851   0.031   1.492   5.594 -0.7508 -0.3589  0.0391
20758SOL    HW162852   0.118   1.484   5.556  0.5076 -2.0567  2.9434
20758SOL    HW262853  -0.027   1.503   5.519  1.6784 -1.5491 -2.1758
20759SOL     OW62854   2.211   9.804   4.147  0.0981 -0.4904 -0.5030
20759SOL    HW162855   2.252   9.801   4.234 -0.2819  2.5524 -0.1065
20759SOL    HW262856   2.252   9.879   4.104 -2.5033  0.4967 -1.4374
20760SOL     OW62857   8.321   7.270   8.578  0.5906 -0.7277 -0.7245
20760SOL    HW162858   8.394   7.278   8.639  0.3110 -5.3773  0.6386
20760SOL    HW262859   8.361   7.239   8.497  0.4077 -0.1709 -1.0312
20761SOL     OW62860   6.100   9.859   4.335 -0.0203  0.1839  0.0271
20761SOL    HW162861   6.171   9.853   4.272 -0.1158  0.9592 -0.1560
20761SOL    HW262862   6.092   9.952   4.355 -2.6395  0.5052 -1.8831
20762SOL     OW62863   2.155   3.669   3.458 -0.4866  0.3671  0.0803
20762SOL    HW162864   2.245   3.698   3.474 -0.6437  0.9148 -0.0016
20762SOL    HW262865   2.100   3.738   3.496 -0.8752  1.0548 -1.6394
20763SOL     OW62866   0.632   2.862   3.259 -0.2201  0.2409 -0.4166
20763SOL    HW162867   0.596   2.785   3.303  1.3721 -0.2119  0.1539
20763SOL    HW262868   0.720   2.872   3.296  0.5051  0.9160 -2.2085
20764SOL     OW62869   7.207   5.452   8.163  0.2009  0.2829  0.3363
20764SOL    HW162870   7.299   5.445   8.187  0.6518  1.9891 -0.7531
20764SOL    HW262871   7.199   5.404   8.081  0.5888  1.7609 -0.6052
20765SOL     OW62872   5.884   4.053   1.086  0.3072  0.4392  0.0071
20765SOL    HW162873   5.918   4.113   1.152  1.1972  1.2215 -1.1269
20765SOL    HW262874   5.840   3.984   1.137 -0.0826  1.6278  1.3565
20766SOL     OW62875   1.480   6.675   6.817  0.5921  0.6420 -0.0979
20766SOL    HW162876   1.497   6.592   6.862 -1.4658  0.4764  0.5181
20766SOL    HW262877   1.441   6.649   6.734 -0.8744  0.9385  0.4570
20767SOL     OW62878   5.986   3.237   6.888 -0.3136  0.1657  0.1018
20767SOL    HW162879   5.987   3.169   6.955  1.9526 -1.8415 -1.7771
20767SOL    HW262880   6.056   3.297   6.914  0.5196 -0.5749 -0.3749
20768SOL     OW62881   7.040   6.599   9.368 -0.1865 -0.2342  0.4207
20768SOL    HW162882   7.125   6.562   9.344 -1.1421 -1.0949 -1.9290
20768SOL    HW262883   7.000   6.623   9.285 -2.2269  0.2165  1.4741
20769SOL     OW62884   6.055   9.553   5.367 -0.7243  0.0116 -0.3516
20769SOL    HW162885   6.133   9.556   5.312 -1.1614  0.5002 -0.9533
20769SOL    HW262886   6.053   9.638   5.411  0.2219 -0.7598  1.2940
20770SOL     OW62887   1.969   6.837   2.728 -0.4557 -0.5383  0.6792
20770SOL    HW162888   1.923   6.911   2.688  1.3838  0.4844  0.3502
20770SOL    HW262889   1.956   6.765   2.666  1.9867  0.9019 -1.7398
20771SOL     OW62890   8.603   2.012   3.679 -0.2330  1.0725 -0.0240
20771SOL    HW162891   8.659   1.964   3.618 -0.1288  1.2462 -0.0655
20771SOL    HW262892   8.662   2.069   3.727 -0.2310  0.4970  0.6681
20772SOL     OW62893   9.025   1.227   2.304 -0.7311 -0.4087  0.2657
20772SOL    HW162894   8.953   1.182   2.259 -0.2384  0.4588 -1.4544
20772SOL    HW262895   9.071   1.157   2.351  0.3648 -1.9581 -2.8034
20773SOL     OW62896   7.174   3.014   4.290  0.5270 -0.5557  0.1330
20773SOL    HW162897   7.131   2.931   4.269 -0.7943 -0.0686  0.7964
20773SOL    HW262898   7.198   3.051   4.205  1.0373 -1.5496 -0.1692
20774SOL     OW62899   1.582   9.274   7.166  0.0806  0.4063 -0.0529
20774SOL    HW162900   1.573   9.370   7.168 -0.3358  0.3576  0.4215
20774SOL    HW262901   1.618   9.256   7.079 -2.2376  0.8043 -1.1707
20775SOL     OW62902   8.785   9.700   1.716 -0.3776 -0.2904 -0.1123
20775SOL    HW162903   8.690   9.690   1.718 -0.2447 -1.7600 -0.2137
20775SOL    HW262904   8.818   9.617   1.682  0.9402  0.2765 -0.3077
20776SOL     OW62905   4.463   1.102   3.971  0.2712  0.0105  0.1710
20776SOL    HW162906   4.451   1.033   3.906 -0.0190 -0.1970  0.4434
20776SOL    HW262907   4.457   1.184   3.922  4.2049 -0.1006 -0.8623
20777SOL     OW62908   1.122   4.802   2.340  0.2574  0.2430  0.5495
20777SOL    HW162909   1.073   4.882   2.322  0.1973 -0.1473 -1.1051
20777SOL    HW262910   1.081   4.767   2.420 -1.8363  0.1954 -0.4831
20778SOL     OW62911   0.680   4.436   8.462 -0.3367 -0.0845  0.4831
20778SOL    HW162912   0.658   4.518   8.506 -0.2083  0.5407 -0.5611
20778SOL    HW262913   0.686   4.460   8.369  0.7315 -1.0583  0.2747
20779SOL     OW62914   2.166   1.678   6.284 -0.0172 -0.0720  0.1450
20779SOL    HW162915   2.255   1.710   6.296  0.6561 -1.8549  0.2254
20779SOL    HW262916   2.112   1.757   6.283  1.4533  0.9979  0.9576
20780SOL     OW62917   0.615   7.372   7.301 -0.1667 -0.3028 -0.2137
20780SOL    HW162918   0.545   7.428   7.336  0.0701 -1.1081  1.6164
20780SOL    HW262919   0.691   7.430   7.296 -0.1924 -0.1699  0.6933
20781SOL     OW62920   1.869   8.814   7.352  0.2673  0.4635 -0.2437
20781SOL    HW162921   1.812   8.838   7.425  0.3585  1.5546 -0.5240
20781SOL    HW262922   1.938   8.761   7.392  0.1527  0.8081  0.4183
20782SOL     OW62923   2.485   9.658   4.843 -0.4499  0.4223  0.0014
20782SOL    HW162924   2.568   9.640   4.799 -0.3216 -0.5804  0.6310
20782SOL    HW262925   2.432   9.579   4.829 -1.5709  1.3016 -0.9590
20783SOL     OW62926   3.505   0.469   3.078  0.3650 -0.1201  0.2418
20783SOL    HW162927   3.569   0.450   3.010  0.4084  0.3720  0.1411
20783SOL    HW262928   3.492   0.563   3.073 -0.9697 -0.3004 -0.2918
20784SOL     OW62929   1.276   4.890   8.483 -0.9980 -0.6252  0.3523
20784SOL    HW162930   1.279   4.811   8.428 -0.5878  0.1761 -0.8245
20784SOL    HW262931   1.327   4.867   8.561 -2.2131 -2.0339  0.7606
20785SOL     OW62932   5.204   6.737   6.322  0.3764  0.3982  0.1473
20785SOL    HW162933   5.143   6.677   6.279  0.4225  1.0323 -0.8178
20785SOL    HW262934   5.208   6.705   6.413 -0.8393 -0.0774  0.0547
20786SOL     OW62935   2.095   9.612   4.709  0.7387  0.6215 -0.1806
20786SOL    HW162936   2.123   9.582   4.796  4.2038  0.9395 -1.0353
20786SOL    HW262937   2.009   9.651   4.723  0.4467 -0.8385  2.7754
20787SOL     OW62938   8.586   6.204   1.911 -0.8990  0.1975  0.1588
20787SOL    HW162939   8.512   6.155   1.947  0.2775 -0.0941  2.3449
20787SOL    HW262940   8.577   6.292   1.949  0.7353 -0.3002  1.8086
20788SOL     OW62941   8.401   4.109   6.857  0.2789  0.0440  0.3053
20788SOL    HW162942   8.487   4.126   6.818  0.1858 -1.6696 -0.7652
20788SOL    HW262943   8.348   4.185   6.833  1.3295  0.8397  0.4665
20789SOL     OW62944   7.009   7.120   3.438  0.0256 -0.4533  0.1843
20789SOL    HW162945   7.018   7.072   3.521 -0.5606 -0.0109  0.5092
20789SOL    HW262946   7.031   7.211   3.461 -0.7298 -0.2153 -0.0048
20790SOL     OW62947   2.458   0.391   6.830  0.1841 -0.0217  0.1865
20790SOL    HW162948   2.401   0.360   6.760  0.5431  1.3523 -0.7676
20790SOL    HW262949   2.406   0.458   6.875  0.0814 -0.6585  1.0331
20791SOL     OW62950   7.038   8.894   8.152 -0.4116 -0.4097  0.0592
20791SOL    HW162951   6.961   8.939   8.188 -0.3725 -0.6866  0.5021
20791SOL    HW262952   7.095   8.965   8.122 -0.9391 -0.2117 -0.4840
20792SOL     OW62953   2.519   5.757   2.660  0.3524  0.2329  0.5108
20792SOL    HW162954   2.519   5.702   2.581 -3.7733  1.2291 -0.4357
20792SOL    HW262955   2.590   5.819   2.646 -0.2325  0.3697 -2.5042
20793SOL     OW62956   2.537   3.335   6.020 -1.1684 -0.0016  0.2886
20793SOL    HW162957   2.452   3.297   5.996 -0.9022 -1.1586  1.1090
20793SOL    HW262958   2.601   3.283   5.971 -0.8464 -0.0381  0.7458
20794SOL     OW62959   4.227   0.409   7.680 -0.7446  0.5602 -0.6015
20794SOL    HW162960   4.266   0.475   7.623  2.1540 -0.6947 -0.2429
20794SOL    HW262961   4.139   0.395   7.645 -0.3112  2.3699 -2.5512
20795SOL     OW62962   1.448   7.236   1.478  0.4458 -0.0123  0.6739
20795SOL    HW162963   1.386   7.310   1.477 -2.0183 -1.8610  2.4751
20795SOL    HW262964   1.400   7.166   1.523  3.0095 -2.4273 -0.0970
20796SOL     OW62965   4.951   5.464   9.888 -0.4503  0.2675  0.0037
20796SOL    HW162966   5.028   5.435   9.839 -1.0585  0.9461 -1.4071
20796SOL    HW262967   4.883   5.478   9.822 -0.4798  4.0865  0.5923
20797SOL     OW62968   7.839   2.225   6.353  0.2155 -0.0644  0.3229
20797SOL    HW162969   7.879   2.263   6.431  0.2870 -2.2908  1.4680
20797SOL    HW262970   7.750   2.202   6.381 -0.6543  1.4471 -1.0711
20798SOL     OW62971   7.581   7.317   3.880 -0.2914 -0.0083  0.2789
20798SOL    HW162972   7.630   7.398   3.866  0.6170 -0.5214  0.4304
20798SOL    HW262973   7.505   7.325   3.823 -0.9642  1.5706  1.3268
20799SOL     OW62974   9.711   0.791   5.758  0.2109  0.0976 -0.4365
20799SOL    HW162975   9.638   0.851   5.737 -0.0177  0.5441  1.4876
20799SOL    HW262976   9.716   0.734   5.681 -1.2413  0.9517 -1.2387
20800SOL     OW62977   6.373   1.357   9.240 -0.2189  0.0193  0.3899
20800SOL    HW162978   6.429   1.302   9.294  1.5661  0.2602 -1.1008
20800SOL    HW262979   6.387   1.446   9.274  0.0325  0.0272  0.2743
20801SOL     OW62980   8.029   1.440   7.029 -0.3403 -0.4157 -0.0277
20801SOL    HW162981   8.100   1.501   7.047 -0.6399 -0.1895  0.4056
20801SOL    HW262982   8.021   1.389   7.110 -0.5245 -0.5889 -0.1551
20802SOL     OW62983   7.078   6.219   2.760 -0.0742  0.0436  0.7572
20802SOL    HW162984   7.021   6.249   2.832 -0.7976 -0.9539  0.6082
20802SOL    HW262985   7.023   6.162   2.707  0.5058  0.6238 -0.5129
20803SOL     OW62986   3.628   3.003   6.046  0.6692  0.0392 -0.2441
20803SOL    HW162987   3.622   3.058   6.124  1.3454  0.3039 -0.3780
20803SOL    HW262988   3.599   2.916   6.075 -1.6926  0.7359 -0.3394
20804SOL     OW62989   6.557   7.044   5.347 -0.2495 -0.2775  0.0022
20804SOL    HW162990   6.469   7.018   5.321 -0.8921  2.5381 -0.9966
20804SOL    HW262991   6.546   7.083   5.434  0.3889 -1.5614  0.6988
20805SOL     OW62992   3.771   6.398   4.399 -0.0992 -0.4461 -0.4003
20805SOL    HW162993   3.753   6.338   4.472  1.5037 -0.6600 -0.1499
20805SOL    HW262994   3.779   6.484   4.441  0.2722 -0.4830 -0.3939
20806SOL     OW62995   3.245   5.592   3.777  0.5628 -0.0449  0.1106
20806SOL    HW162996   3.230   5.599   3.871  1.0063 -0.1346  0.1919
20806SOL    HW262997   3.284   5.676   3.753 -1.3269  0.7431 -0.3573
20807SOL     OW62998   9.939   9.508   6.307 -0.1061  0.5575  0.4337
20807SOL    HW162999  10.029   9.538   6.315  0.3445  0.1837 -2.2609
20807SOL    HW263000   9.889   9.566   6.364  1.6649  1.5392  1.0628
20808SOL     OW63001   1.858   7.475   7.410 -0.4632 -0.7298  0.0614
20808SOL    HW163002   1.920   7.546   7.399  0.2353 -1.3217  0.1073
20808SOL    HW263003   1.805   7.500   7.486 -0.4151 -0.1342 -0.0978
20809SOL     OW63004   5.547   1.253   0.505 -0.5305  0.0058  0.0277
20809SOL    HW163005   5.634   1.257   0.466 -0.2878  2.2650  0.6203
20809SOL    HW263006   5.489   1.289   0.437 -1.1298 -1.9829 -0.5679
20810SOL     OW63007   5.252   9.358   8.813 -0.2400 -0.1412  0.0280
20810SOL    HW163008   5.267   9.269   8.844  1.3544  0.0629 -0.1099
20810SOL    HW263009   5.337   9.400   8.818 -0.7761  1.0950 -0.8269
20811SOL     OW63010   3.057   9.639   0.514 -0.1163  0.0974  0.3183
20811SOL    HW163011   3.022   9.699   0.580 -1.9506  0.7917 -1.2018
20811SOL    HW263012   3.102   9.696   0.452 -0.7269 -0.2249 -0.4317
20812SOL     OW63013   6.335   4.242   6.569 -0.2988  0.5935 -0.2269
20812SOL    HW163014   6.317   4.260   6.662 -1.2060 -0.9944 -0.0531
20812SOL    HW263015   6.252   4.259   6.525 -0.9229 -1.9402 -0.1899
20813SOL     OW63016   7.820  -0.021   6.210 -0.1368  0.0134 -0.1148
20813SOL    HW163017   7.742  -0.027   6.265  0.8347  0.5369  1.3804
20813SOL    HW263018   7.814   0.065   6.168 -0.3693  0.0498 -0.0067
20814SOL     OW63019   8.542   6.877   2.917 -0.0571 -0.0884 -0.0863
20814SOL    HW163020   8.470   6.933   2.947  0.4585  0.8913 -0.6411
20814SOL    HW263021   8.504   6.789   2.914 -1.6428  0.5817 -1.6618
20815SOL     OW63022   4.866   0.431   2.533  0.3179  0.3773 -0.1226
20815SOL    HW163023   4.873   0.337   2.518 -2.6906 -0.2881  1.9008
20815SOL    HW263024   4.824   0.464   2.453  1.4299  0.0677 -0.8628
20816SOL     OW63025   9.579   5.297   6.495  0.3342  0.6457  0.2662
20816SOL    HW163026   9.613   5.348   6.569 -0.3840  0.3635  0.8120
20816SOL    HW263027   9.492   5.268   6.525  1.2749 -2.1646  0.6076
20817SOL     OW63028   5.690   4.825   3.082 -0.2833  0.7209 -0.0009
20817SOL    HW163029   5.741   4.904   3.064 -2.2959  2.4164  1.2658
20817SOL    HW263030   5.614   4.832   3.025  0.3368 -1.2973 -1.1984
20818SOL     OW63031   0.064   7.404   8.599  0.2220 -0.8468  0.2785
20818SOL    HW163032   0.109   7.330   8.641  0.2568 -0.3413  1.1520
20818SOL    HW263033   0.038   7.370   8.513  1.0334 -1.5916  0.3087
20819SOL     OW63034   1.380   7.283   2.153 -0.3460 -0.3407 -0.1834
20819SOL    HW163035   1.458   7.336   2.141 -0.9101  0.9317  1.3708
20819SOL    HW263036   1.310   7.335   2.113 -1.0434  0.5954  2.0696
20820SOL     OW63037   1.382   5.551   3.402 -0.1289  0.4218  0.0722
20820SOL    HW163038   1.322   5.604   3.350  0.0484 -0.1804 -0.7577
20820SOL    HW263039   1.465   5.598   3.398  0.4130 -0.6046 -1.8572
20821SOL     OW63040   3.601   5.904   5.095 -0.1383 -0.5439  0.1610
20821SOL    HW163041   3.588   5.883   5.003 -0.1023 -0.5477  0.1566
20821SOL    HW263042   3.519   5.945   5.122  0.0740  0.0174 -0.0338
20822SOL     OW63043   4.978   0.211   3.587  0.4508 -0.5492 -0.2279
20822SOL    HW163044   4.896   0.200   3.539  0.1976 -0.2452  0.1353
20822SOL    HW263045   5.012   0.122   3.595  1.4738 -0.4522 -2.6361
20823SOL     OW63046   9.168   0.283   6.410 -0.0266  0.3909 -0.1120
20823SOL    HW163047   9.204   0.361   6.453 -0.3317  0.9890 -0.9161
20823SOL    HW263048   9.135   0.315   6.326  1.1526 -0.8594 -1.1007
20824SOL     OW63049   6.226   0.337   8.418 -0.2111 -0.1096  0.0878
20824SOL    HW163050   6.293   0.328   8.487 -0.6719  1.2169  0.7608
20824SOL    HW263051   6.275   0.333   8.336  0.2366 -2.7101  0.4143
20825SOL     OW63052   4.718   2.010   0.131  0.2296  0.1364  0.0309
20825SOL    HW163053   4.682   1.936   0.081 -1.1221  0.6771  0.1692
20825SOL    HW263054   4.686   2.087   0.085  1.0252  0.6482  0.3179
20826SOL     OW63055   8.168   7.998   2.925  0.3926  0.4700  0.2028
20826SOL    HW163056   8.078   8.027   2.912 -0.1392  0.9924  3.8377
20826SOL    HW263057   8.221   8.071   2.896 -0.4952  1.1941  0.3587
20827SOL     OW63058   9.342   1.481   9.216  0.5113 -0.7265  0.2255
20827SOL    HW163059   9.347   1.508   9.308 -1.3656 -0.5071  0.3046
20827SOL    HW263060   9.406   1.410   9.209 -0.0657 -1.4855  1.9984
20828SOL     OW63061   9.816   5.439   3.136  0.4956  0.4604  0.7524
20828SOL    HW163062   9.857   5.390   3.065 -2.2242 -0.2075 -0.4654
20828SOL    HW263063   9.777   5.515   3.094 -0.2922  0.6020  1.7116
20829SOL     OW63064   3.492   4.337   4.023  0.0191 -0.2706  0.1525
20829SOL    HW163065   3.547   4.392   3.967 -0.6167  0.8575  0.6104
20829SOL    HW263066   3.555   4.289   4.078  0.5792  0.0898 -0.1640
20830SOL     OW63067   8.581   9.290   3.046 -0.3188 -0.3189 -0.2247
20830SOL    HW163068   8.539   9.256   3.125  0.9511 -0.4326  0.4392
20830SOL    HW263069   8.617   9.212   3.003 -1.9341 -0.3925 -1.5291
20831SOL     OW63070   2.754   8.407   4.878 -0.3464 -0.4209 -0.2335
20831SOL    HW163071   2.739   8.313   4.862  1.4649 -0.5857 -1.2056
20831SOL    HW263072   2.729   8.449   4.795  0.0627 -0.1919 -0.2421
20832SOL     OW63073   2.171   8.278   6.131 -0.4229 -0.3885  0.0717
20832SOL    HW163074   2.100   8.323   6.176  0.6002  1.2569  0.1307
20832SOL    HW263075   2.153   8.185   6.144 -1.5809  0.0108  1.6025
20833SOL     OW63076   5.864   9.467   8.434 -0.1398  0.7763 -0.3024
20833SOL    HW163077   5.828   9.391   8.388  2.2561 -0.0819 -0.8945
20833SOL    HW263078   5.818   9.542   8.397 -2.2061 -0.2862 -0.0727
20834SOL     OW63079   8.447   9.534   3.022  0.3061  0.2745 -0.4063
20834SOL    HW163080   8.496   9.567   3.098 -2.8748 -0.3419  2.1486
20834SOL    HW263081   8.475   9.443   3.014 -0.0019  0.0606  0.6972
20835SOL     OW63082   1.032   5.238   5.630  0.0448 -0.2867 -0.2165
20835SOL    HW163083   1.016   5.151   5.667 -2.7027 -0.0541 -0.6036
20835SOL    HW263084   1.113   5.229   5.581  0.6096 -2.2140  0.9671
20836SOL     OW63085   4.970   9.327   0.546 -0.0768  0.6827  0.2563
20836SOL    HW163086   5.032   9.284   0.604 -0.2224 -0.4572 -0.3960
20836SOL    HW263087   5.023   9.386   0.493  0.8027 -1.4964 -1.4569
20837SOL     OW63088   7.442   3.285   0.921  0.5157  0.4036  0.0609
20837SOL    HW163089   7.538   3.285   0.924  0.5738  0.1412 -1.2787
20837SOL    HW263090   7.416   3.200   0.956  0.7672  0.4701  0.4139
20838SOL     OW63091   3.987   7.648   6.354 -0.0424  0.2189 -0.2026
20838SOL    HW163092   3.962   7.615   6.441 -0.7166  2.3985  0.5025
20838SOL    HW263093   4.082   7.651   6.356  0.0054 -0.9592 -0.0406
20839SOL     OW63094   6.623   1.508   1.645 -0.1456 -0.1289  0.0351
20839SOL    HW163095   6.532   1.519   1.616 -0.8432 -0.0099  2.1355
20839SOL    HW263096   6.648   1.594   1.678  0.7818 -0.1542 -0.5478
20840SOL     OW63097   0.829   2.196   1.197 -0.4928  0.5183  0.2709
20840SOL    HW163098   0.792   2.109   1.213 -0.4683  0.4983  0.2201
20840SOL    HW263099   0.883   2.214   1.273  0.3361  0.0476 -0.1896
20841SOL     OW63100   0.705   9.901   7.364 -0.3053  0.1131 -0.2385
20841SOL    HW163101   0.773   9.834   7.364  2.0479  2.3420 -0.4501
20841SOL    HW263102   0.658   9.888   7.282  1.4880 -0.0360 -1.2996
20842SOL     OW63103   1.388   3.015   9.118 -0.4304  0.7416  0.2594
20842SOL    HW163104   1.297   3.000   9.091 -0.7342  1.4108  0.9035
20842SOL    HW263105   1.410   2.939   9.171 -1.4072  1.6594  2.0745
20843SOL     OW63106   1.236   2.412   8.065 -0.4446 -0.0057 -0.3077
20843SOL    HW163107   1.183   2.333   8.077 -0.7792  0.0158 -1.5073
20843SOL    HW263108   1.244   2.420   7.970 -0.6387  1.5605 -0.2069
20844SOL     OW63109   0.602   8.039   9.081 -0.5229  0.3182 -0.3205
20844SOL    HW163110   0.512   8.037   9.048 -0.6185 -0.4164 -0.0392
20844SOL    HW263111   0.640   8.117   9.042 -1.9679  1.9783  1.4170
20845SOL     OW63112   2.895   5.048   3.034 -0.2187  0.1094 -0.1181
20845SOL    HW163113   2.985   5.058   3.064 -1.3315  0.5248  3.6487
20845SOL    HW263114   2.891   4.960   2.998  1.4121 -0.4748  1.0089
20846SOL     OW63115   6.164   9.098   9.222 -0.3289 -0.8911 -0.6362
20846SOL    HW163116   6.248   9.063   9.252  0.0628  0.0653 -0.5547
20846SOL    HW263117   6.099   9.039   9.260  0.0420  0.8585  3.2428
20847SOL     OW63118   5.836   8.134   3.108  0.4512  0.4461 -0.2946
20847SOL    HW163119   5.753   8.180   3.104  0.0122 -0.2612  0.3541
20847SOL    HW263120   5.819   8.049   3.066  0.2094 -0.5803  1.7495
20848SOL     OW63121   1.067   7.551   9.119  0.4980 -0.0336  0.1642
20848SOL    HW163122   1.104   7.631   9.081 -0.1522 -0.1611 -0.7638
20848SOL    HW263123   1.074   7.565   9.214 -0.2863  1.4568  0.0414
20849SOL     OW63124   2.935   9.330   5.306 -0.1044  0.2551 -0.6622
20849SOL    HW163125   2.863   9.277   5.340 -0.3664  0.9580 -0.0672
20849SOL    HW263126   2.915   9.342   5.213 -1.2317  1.1413 -0.3393
20850SOL     OW63127   6.943   9.257   8.821  0.4549 -0.2938  0.9947
20850SOL    HW163128   6.915   9.172   8.785 -2.1224  1.0248 -0.4442
20850SOL    HW263129   6.983   9.235   8.905 -1.2427 -2.8842  1.2688
20851SOL     OW63130   3.894   9.949   2.381  0.0886 -0.5849  0.0833
20851SOL    HW163131   3.913  10.034   2.419 -0.6014  0.2575 -1.3590
20851SOL    HW263132   3.950   9.943   2.304  0.6517 -1.7693  0.5510
20852SOL     OW63133   4.186   7.301   1.359 -0.0832 -0.2381  0.0104
20852SOL    HW163134   4.169   7.212   1.391 -0.8057 -0.2014 -0.2614
20852SOL    HW263135   4.170   7.296   1.265 -0.8606  0.3540  0.1036
20853SOL     OW63136   2.470   1.348   9.735  0.5476 -0.0191 -0.0214
20853SOL    HW163137   2.495   1.327   9.825  1.6562  0.5038 -0.1934
20853SOL    HW263138   2.445   1.440   9.738 -0.6665 -0.3370 -0.0067
20854SOL     OW63139   3.547   9.644   7.737 -0.0571 -0.0467 -0.0526
20854SOL    HW163140   3.484   9.716   7.739  0.4045  0.3665 -0.0160
20854SOL    HW263141   3.611   9.666   7.805 -0.3964 -0.9539  0.5741
20855SOL     OW63142   9.432   2.617   9.466 -0.0501 -0.0527 -0.1245
20855SOL    HW163143   9.420   2.660   9.550  0.2911 -0.7786  0.2990
20855SOL    HW263144   9.383   2.535   9.473 -0.1297 -0.0581 -0.6802
20856SOL     OW63145   3.460   7.166   9.019  0.6466 -0.2608 -0.1143
20856SOL    HW163146   3.442   7.258   9.040  1.6643  0.3045 -1.5850
20856SOL    HW263147   3.464   7.123   9.104 -0.8065  0.8514  0.5657
20857SOL     OW63148   0.251   6.563   6.781  0.0219  0.2760 -0.5517
20857SOL    HW163149   0.179   6.517   6.738  1.0514  0.4302 -2.5613
20857SOL    HW263150   0.297   6.496   6.831 -0.3973 -0.2168 -0.8234
20858SOL     OW63151   6.211   4.883   2.442  0.0320  0.1096  0.0684
20858SOL    HW163152   6.169   4.797   2.431  0.5860 -0.2183  0.4681
20858SOL    HW263153   6.171   4.937   2.374 -0.0587 -0.5642 -0.4332
20859SOL     OW63154   2.027   7.550   8.486  0.0181  0.2047 -0.2101
20859SOL    HW163155   2.060   7.469   8.448  0.5400 -1.3278  3.1054
20859SOL    HW263156   2.067   7.620   8.435  2.8330 -1.6320 -0.7074
20860SOL     OW63157   9.246   5.053   3.429 -0.1363  0.5212  0.1706
20860SOL    HW163158   9.165   5.022   3.468 -0.1965  1.2411  0.6460
20860SOL    HW263159   9.314   4.998   3.470 -0.4589 -0.9597 -1.1810
20861SOL     OW63160   5.522   2.936   4.559  0.0972  0.0405 -0.4890
20861SOL    HW163161   5.591   2.880   4.597 -0.0516  0.2289  0.0779
20861SOL    HW263162   5.460   2.947   4.631 -1.0292 -0.9166 -1.2768
20862SOL     OW63163   6.633   6.369   3.836 -0.0570 -0.3757  0.0433
20862SOL    HW163164   6.577   6.445   3.855 -1.2844 -0.8524 -1.5032
20862SOL    HW263165   6.722   6.402   3.850 -0.5410  1.4084 -0.6982
20863SOL     OW63166   5.011   6.510   9.281 -0.0925  0.0323 -0.6723
20863SOL    HW163167   5.082   6.453   9.250  0.4414  0.8525 -1.0089
20863SOL    HW263168   4.934   6.454   9.282  0.4867 -0.7942 -0.6361
20864SOL     OW63169   7.678   8.446   9.569 -0.2090 -0.0853  0.2040
20864SOL    HW163170   7.724   8.415   9.647 -1.8245 -1.5422  0.6454
20864SOL    HW263171   7.698   8.382   9.502  1.5472  1.4075 -0.7770
20865SOL     OW63172   4.620   9.440   9.503  0.3017 -0.4217 -0.6451
20865SOL    HW163173   4.556   9.374   9.530  1.8229 -1.8420 -0.3726
20865SOL    HW263174   4.610   9.447   9.408 -0.1037 -0.7809 -0.6306
20866SOL     OW63175   3.665   0.797   5.427  0.6246  0.4859  0.3848
20866SOL    HW163176   3.720   0.729   5.387 -0.0949  0.9211 -1.4424
20866SOL    HW263177   3.689   0.795   5.520  0.9981 -1.8952  0.3130
20867SOL     OW63178   6.716   3.862   2.987 -0.4063  0.9676  0.0640
20867SOL    HW163179   6.780   3.931   3.004 -0.1257  0.7757 -0.2128
20867SOL    HW263180   6.732   3.835   2.896 -2.2570  2.3670 -0.7468
20868SOL     OW63181   3.652   7.615   7.819  0.1157 -0.5621  0.0002
20868SOL    HW163182   3.711   7.673   7.771 -1.6236  0.4168 -1.0758
20868SOL    HW263183   3.605   7.674   7.878  1.2837 -1.5601  2.0271
20869SOL     OW63184   8.200   8.330   8.318 -0.2873 -0.1571  0.4902
20869SOL    HW163185   8.169   8.369   8.237 -0.0047  0.6315  0.7498
20869SOL    HW263186   8.120   8.304   8.364 -0.4724 -0.0885  0.2102
20870SOL     OW63187   6.700   2.519   3.474  0.8969 -0.3905  0.2020
20870SOL    HW163188   6.710   2.604   3.430  0.8701 -0.0716  0.8074
20870SOL    HW263189   6.622   2.529   3.529  0.0946 -1.2588 -0.7484
20871SOL     OW63190   3.322   7.024   2.825  0.4339  0.3023  0.3115
20871SOL    HW163191   3.286   6.946   2.867 -0.8243  0.9135  0.4306
20871SOL    HW263192   3.310   7.008   2.731 -0.4260  0.5961  0.3557
20872SOL     OW63193   8.619   0.668   7.685  0.9329  0.9524  0.1564
20872SOL    HW163194   8.684   0.599   7.695 -1.4769 -1.6183 -0.5756
20872SOL    HW263195   8.577   0.649   7.601 -1.2717  1.9856  0.9491
20873SOL     OW63196   1.383   7.787   0.067  0.1686 -0.0737  0.3351
20873SOL    HW163197   1.408   7.794  -0.025  0.9721  1.6758  0.6415
20873SOL    HW263198   1.291   7.813   0.068  0.1467 -0.1253  0.0279
20874SOL     OW63199   0.837   2.681   7.586  0.7258 -0.1296  0.1554
20874SOL    HW163200   0.759   2.732   7.611 -0.4988 -1.4824 -0.7581
20874SOL    HW263201   0.865   2.721   7.503  0.5172 -0.1336  0.0805
20875SOL     OW63202   9.097   0.214   8.783  0.4105  0.4154  0.0680
20875SOL    HW163203   9.107   0.124   8.814  2.9756  1.0069  1.1744
20875SOL    HW263204   9.072   0.264   8.861  0.4271  0.8966 -0.2283
20876SOL     OW63205   9.237   9.592   7.237 -0.5389  0.8210 -0.4049
20876SOL    HW163206   9.237   9.623   7.328 -1.0362  0.8030 -0.3936
20876SOL    HW263207   9.242   9.497   7.244  1.5203  0.8805 -0.4511
20877SOL     OW63208   6.383   9.685   9.764  0.6186 -0.2055  0.2434
20877SOL    HW163209   6.406   9.777   9.756 -0.4841  0.0224 -0.4453
20877SOL    HW263210   6.446   9.650   9.828  2.0136  0.6673 -0.5942
20878SOL     OW63211   0.094   2.742   0.292  0.5553 -0.4751 -0.2644
20878SOL    HW163212   0.130   2.794   0.220 -1.5818  0.1275 -0.9556
20878SOL    HW263213   0.004   2.724   0.266 -0.4304  0.1330  2.4320
20879SOL     OW63214   4.377   2.324   5.955 -0.0311  0.3751  0.6892
20879SOL    HW163215   4.444   2.284   6.011  1.1992  1.9968  0.4709
20879SOL    HW263216   4.338   2.250   5.908  0.6486 -0.7586  1.8278
20880SOL     OW63217   5.789   8.163   1.542 -0.1634 -0.0776 -0.2621
20880SOL    HW163218   5.715   8.140   1.599 -0.5882 -1.1534 -1.2066
20880SOL    HW263219   5.761   8.243   1.498 -0.1170  0.3761  0.5284
20881SOL     OW63220   3.779   8.689   9.299  0.1137 -0.2390 -0.0745
20881SOL    HW163221   3.829   8.732   9.229  1.9317  0.1163  1.3627
20881SOL    HW263222   3.772   8.756   9.367 -0.3476 -1.0245  0.6645
20882SOL     OW63223   6.443   6.971   6.238  0.5188 -0.1306 -0.0480
20882SOL    HW163224   6.408   6.912   6.171  2.3124  1.0060 -2.1478
20882SOL    HW263225   6.480   6.913   6.304 -3.4975 -1.3284  1.3879
20883SOL     OW63226   8.837   9.685   6.756  0.2706 -0.0493 -0.5074
20883SOL    HW163227   8.801   9.771   6.776  2.0686  0.2805  1.7648
20883SOL    HW263228   8.763   9.625   6.761 -0.2231  0.6187  3.6611
20884SOL     OW63229   0.969   1.432   6.865 -0.1516  0.0175 -0.8925
20884SOL    HW163230   1.017   1.397   6.789  0.2884 -0.6017 -0.3434
20884SOL    HW263231   1.036   1.474   6.918 -0.3887  0.0846 -0.6449
20885SOL     OW63232   5.670   8.101   0.653  0.1322 -0.1298  0.1096
20885SOL    HW163233   5.758   8.096   0.691  0.7422 -0.8855 -1.3157
20885SOL    HW263234   5.685   8.098   0.559 -1.4426 -0.4613 -0.1504
20886SOL     OW63235   9.690   1.134   1.120 -0.5503  0.3202  0.1211
20886SOL    HW163236   9.702   1.058   1.177  1.0270 -0.4814 -1.1664
20886SOL    HW263237   9.626   1.106   1.055  0.0730  0.0237 -0.3871
20887SOL     OW63238   9.328   9.998   3.308  0.8463 -0.1722  0.2288
20887SOL    HW163239   9.419  10.009   3.281  1.2513  0.3182  1.7047
20887SOL    HW263240   9.320   9.905   3.328  0.2194 -0.8116 -2.4948
20888SOL     OW63241   5.095   6.039   8.405 -0.1346  0.1809 -0.3561
20888SOL    HW163242   5.002   6.016   8.407  0.0754 -0.6889  0.5233
20888SOL    HW263243   5.116   6.047   8.312 -1.2689  1.2200 -0.5384
20889SOL     OW63244   2.152   7.789   5.364  0.1316 -0.1081 -0.7584
20889SOL    HW163245   2.153   7.806   5.458  1.3867 -1.5177 -0.4609
20889SOL    HW263246   2.171   7.873   5.323 -1.4393  0.7383  0.1754
20890SOL     OW63247   6.864   3.289   3.982 -0.0788  0.0740 -0.2824
20890SOL    HW163248   6.843   3.378   3.952 -0.5592 -0.1120 -0.4974
20890SOL    HW263249   6.898   3.302   4.071  1.7209  0.6596 -1.0122
20891SOL     OW63250   7.931   5.880   8.472 -0.0597  0.0308  0.0854
20891SOL    HW163251   7.959   5.788   8.472 -0.0598  0.0310  0.0306
20891SOL    HW263252   7.851   5.881   8.524  0.8415  0.2595  1.5579
20892SOL     OW63253   8.445   8.526   0.014  0.4953  0.6976  0.3794
20892SOL    HW163254   8.357   8.560   0.029  0.0712 -0.3452  0.3483
20892SOL    HW263255   8.501   8.576   0.073  0.1039  2.3312 -0.5734
20893SOL     OW63256   9.128   5.635   5.674 -0.3482  0.3128  0.3526
20893SOL    HW163257   9.140   5.570   5.743 -1.1046 -0.4246 -0.1820
20893SOL    HW263258   9.097   5.584   5.598 -0.5030  1.2297 -0.2198
20894SOL     OW63259   7.248   2.184   0.620 -0.5576  0.1580  0.4407
20894SOL    HW163260   7.235   2.177   0.525  1.9296  1.4403 -0.0821
20894SOL    HW263261   7.331   2.139   0.636 -0.9137  0.0069  2.0155
20895SOL     OW63262   2.513   4.346   5.199 -0.5006 -0.4367  0.2889
20895SOL    HW163263   2.461   4.295   5.260 -1.5513  0.0670 -0.1515
20895SOL    HW263264   2.541   4.423   5.248 -0.9426 -0.2649  0.2703
20896SOL     OW63265   1.740   4.146   8.928  0.0671 -0.3922  0.2713
20896SOL    HW163266   1.721   4.237   8.905 -0.2576  0.1331  2.4449
20896SOL    HW263267   1.746   4.145   9.023 -1.4373 -2.9291  0.4494
20897SOL     OW63268   3.033   1.365   6.513  0.2659 -0.0113  0.0424
20897SOL    HW163269   3.027   1.422   6.436  1.9582 -1.0542 -0.9058
20897SOL    HW263270   3.126   1.344   6.520 -0.3357 -3.0659  0.0326
20898SOL     OW63271   5.840   0.518   1.544 -0.3460  0.1025  0.6697
20898SOL    HW163272   5.875   0.544   1.629 -0.8837  2.0859  0.3248
20898SOL    HW263273   5.855   0.424   1.540  0.1591  0.0499  2.7331
20899SOL     OW63274   3.600   0.030   1.801  0.1093 -0.6665 -0.2043
20899SOL    HW163275   3.676   0.058   1.750 -0.5886  1.1202 -0.3476
20899SOL    HW263276   3.617   0.066   1.889 -0.2406 -0.8609 -0.0581
20900SOL     OW63277   6.001   3.549   7.041 -0.2845  0.2568 -0.9658
20900SOL    HW163278   5.966   3.528   7.128  0.7982 -0.7060 -0.7531
20900SOL    HW263279   6.096   3.543   7.051 -0.1110  1.1139 -1.9791
20901SOL     OW63280   9.676   7.056   0.761  0.7021  0.4501  0.1274
20901SOL    HW163281   9.727   7.014   0.692  2.5004 -2.3868  2.8813
20901SOL    HW263282   9.586   7.028   0.745  0.9960  0.2864 -1.3456
20902SOL     OW63283   8.223   0.432   9.629  0.2794  0.0614  0.3217
20902SOL    HW163284   8.287   0.362   9.636 -1.4747 -1.7716 -0.9161
20902SOL    HW263285   8.260   0.492   9.564  0.5009 -1.2541 -0.7909
20903SOL     OW63286   5.612   9.419   3.152 -0.0469  0.0953 -0.2783
20903SOL    HW163287   5.639   9.510   3.140 -1.2098  1.0105  2.8579
20903SOL    HW263288   5.672   9.385   3.219 -2.1563  0.0042  1.7072
20904SOL     OW63289   8.517   5.152   0.463  0.3289 -0.3924 -0.4447
20904SOL    HW163290   8.526   5.152   0.368 -0.7296  0.5878 -0.5689
20904SOL    HW263291   8.573   5.080   0.493  0.5695 -0.7949 -1.8119
20905SOL     OW63292   1.166   5.603   4.854 -0.1829 -0.0168  0.1882
20905SOL    HW163293   1.261   5.600   4.866 -0.1391 -0.0634 -0.1626
20905SOL    HW263294   1.148   5.696   4.838 -0.2005 -0.0025  0.2924
20906SOL     OW63295   4.102   0.922   7.240  0.1791  0.5687 -0.3234
20906SOL    HW163296   4.120   1.013   7.263 -1.2265  0.8772 -0.3304
20906SOL    HW263297   4.035   0.927   7.172 -1.3529 -0.4738  1.0243
20907SOL     OW63298   2.267   3.000   9.892 -0.2848 -0.0736 -0.7487
20907SOL    HW163299   2.189   3.049   9.867 -0.0833  0.0358 -1.1696
20907SOL    HW263300   2.236   2.937   9.956 -0.8583 -0.5083 -1.4409
20908SOL     OW63301   3.015   4.599   0.576  0.6744 -0.6723  0.6347
20908SOL    HW163302   2.945   4.534   0.584  0.0133  0.1286  1.6168
20908SOL    HW263303   3.020   4.618   0.482 -1.4283  0.2963  0.6540
20909SOL     OW63304   3.050   8.150   4.533 -0.2385 -0.2291  0.4543
20909SOL    HW163305   3.046   8.182   4.624  1.0598 -1.0334  0.8102
20909SOL    HW263306   3.133   8.103   4.528 -1.0377 -1.5586 -0.7148
20910SOL     OW63307   0.716   8.545   0.580  0.0240  0.1089 -0.4882
20910SOL    HW163308   0.799   8.588   0.558  0.5258 -1.0141 -0.8599
20910SOL    HW263309   0.712   8.469   0.522 -1.2543  0.1200 -0.4462
20911SOL     OW63310   2.342   0.818   5.968 -0.4484 -0.2567 -0.1457
20911SOL    HW163311   2.301   0.892   6.011 -0.1235 -0.6016  0.7746
20911SOL    HW263312   2.381   0.767   6.039  2.3065  0.4659 -0.9921
20912SOL     OW63313   0.777   6.022   9.462  0.0890  0.0130  0.7634
20912SOL    HW163314   0.844   6.068   9.513  1.1558 -0.7918  0.1241
20912SOL    HW263315   0.825   5.979   9.392 -1.0842 -0.7246  0.3773
20913SOL     OW63316   8.020   0.307   6.667 -0.0030 -0.0643  0.2383
20913SOL    HW163317   8.052   0.394   6.643 -0.5249 -0.3090 -1.4661
20913SOL    HW263318   7.940   0.296   6.616  0.1347 -1.6119  0.3122
20914SOL     OW63319   5.276   6.421   9.197  0.6908 -0.0476 -0.1350
20914SOL    HW163320   5.283   6.516   9.205  1.0202 -0.1949  1.6020
20914SOL    HW263321   5.286   6.388   9.286  1.0209 -1.7515 -0.7634
20915SOL     OW63322   5.322   6.371   3.404 -0.4624 -0.5641 -0.3663
20915SOL    HW163323   5.364   6.353   3.488 -0.4682 -0.7275 -0.3981
20915SOL    HW263324   5.372   6.444   3.367 -1.4671  0.6105  0.5120
20916SOL     OW63325   3.668   5.503   4.630  0.2875  0.4761 -0.5562
20916SOL    HW163326   3.763   5.512   4.636  0.1030  2.9551 -0.2642
20916SOL    HW263327   3.649   5.416   4.665  2.2890  0.6554  1.1201
20917SOL     OW63328   2.387   5.004   4.932  0.2742  0.0391  0.2786
20917SOL    HW163329   2.426   5.091   4.943 -1.0298  0.6438  0.3153
20917SOL    HW263330   2.381   4.969   5.021 -1.7492  1.1048  0.6333
20918SOL     OW63331   8.037   3.438   6.179  0.3581 -0.4918  0.2277
20918SOL    HW163332   8.096   3.502   6.139 -0.8580  2.5121  2.7716
20918SOL    HW263333   7.985   3.405   6.106  0.4716  2.1638 -1.1991
20919SOL     OW63334   8.824   9.695   6.256  0.4140 -0.1561  0.2486
20919SOL    HW163335   8.729   9.696   6.241  0.5120 -0.6820 -0.4284
20919SOL    HW263336   8.841   9.609   6.294  0.3747  0.6188  2.1551
20920SOL     OW63337   4.829   7.396   1.829 -0.6390  0.0562 -0.2667
20920SOL    HW163338   4.857   7.476   1.874 -1.2252 -0.4695  1.0889
20920SOL    HW263339   4.824   7.331   1.898 -3.4166 -0.3379 -0.7324
20921SOL     OW63340   7.249   2.349   5.722  0.2753 -0.6388  0.9288
20921SOL    HW163341   7.340   2.368   5.700 -0.2904  0.7651 -0.3810
20921SOL    HW263342   7.228   2.411   5.792  0.3112 -0.9439  1.2124
20922SOL     OW63343   5.331   8.663   9.599 -0.3145 -0.3029 -0.0149
20922SOL    HW163344   5.390   8.601   9.641  0.8754  0.2872 -0.7653
20922SOL    HW263345   5.381   8.699   9.526 -1.6906  0.0522 -0.8260
20923SOL     OW63346  -0.019   5.965   9.717  0.3622  0.1979 -0.1502
20923SOL    HW163347  -0.036   6.032   9.652  1.0989 -1.3145 -1.9899
20923SOL    HW263348   0.074   5.971   9.735  0.1429  0.6951  0.9054
20924SOL     OW63349   2.433   4.856   6.875  0.3868  0.3645 -0.2505
20924SOL    HW163350   2.356   4.826   6.922  2.2156 -3.2274  0.8238
20924SOL    HW263351   2.432   4.807   6.793  0.6767  1.5574 -0.9840
20925SOL     OW63352   1.704   0.444   4.505  0.0083 -0.3072  0.6382
20925SOL    HW163353   1.628   0.440   4.446  0.1970  2.2478  0.0972
20925SOL    HW263354   1.673   0.409   4.588 -1.2775 -0.8251 -0.0452
20926SOL     OW63355   2.615   9.332   5.831 -0.3007 -0.3817  0.5298
20926SOL    HW163356   2.680   9.370   5.771 -1.1772  0.4790  0.1055
20926SOL    HW263357   2.545   9.397   5.836 -0.5123 -0.6888  2.0661
20927SOL     OW63358   6.333   6.190   6.178  0.2407 -0.1648 -0.1688
20927SOL    HW163359   6.391   6.200   6.102  1.1528 -1.1208  0.3793
20927SOL    HW263360   6.344   6.098   6.204  1.4990  0.6196  2.3659
20928SOL     OW63361   2.042   7.715   1.220  0.1522 -0.1163 -0.2874
20928SOL    HW163362   2.111   7.762   1.176  0.3917  1.9690  2.1062
20928SOL    HW263363   1.961   7.754   1.187 -0.0423 -2.3920 -2.9035
20929SOL     OW63364   8.804   3.720   8.491 -0.4215  0.3189 -0.3481
20929SOL    HW163365   8.819   3.626   8.499  0.8576  0.3997 -1.4558
20929SOL    HW263366   8.761   3.745   8.573  1.1490 -0.8560  0.8990
20930SOL     OW63367   2.084   4.928   7.385 -0.4705 -0.1945  0.5235
20930SOL    HW163368   2.152   4.994   7.395  1.3607 -2.1181  1.5063
20930SOL    HW263369   2.005   4.969   7.420  0.1134  2.1375 -0.7339
20931SOL     OW63370   7.523   5.447   6.489  0.0730 -0.3062 -0.0522
20931SOL    HW163371   7.466   5.445   6.566  0.9704  2.6168  0.7951
20931SOL    HW263372   7.464   5.467   6.417 -0.1695  2.0300  0.7156
20932SOL     OW63373   3.520   4.829   0.017 -0.0475  0.0299 -0.4915
20932SOL    HW163374   3.564   4.798  -0.062 -0.1057 -1.1039 -0.0956
20932SOL    HW263375   3.587   4.881   0.063  0.4038 -0.4171 -0.6343
20933SOL     OW63376   1.343   2.808   2.109  0.1011 -0.2416  0.1487
20933SOL    HW163377   1.434   2.778   2.101  0.5998  1.2237  0.1211
20933SOL    HW263378   1.323   2.797   2.202 -0.5903 -2.9242 -0.2170
20934SOL     OW63379   5.462   5.414   9.630  0.4281  0.2668  0.3046
20934SOL    HW163380   5.414   5.496   9.640  0.5318  0.3859 -0.1300
20934SOL    HW263381   5.503   5.422   9.544  1.3731  0.2418  0.7426
20935SOL     OW63382   6.826   0.699   9.428  0.3684  0.2042 -0.4193
20935SOL    HW163383   6.731   0.705   9.431  0.2914 -0.1367 -1.4564
20935SOL    HW263384   6.848   0.720   9.337  1.1207 -1.4296 -0.6624
20936SOL     OW63385   4.500   8.096   2.130 -0.0407 -0.2623 -0.5759
20936SOL    HW163386   4.452   8.176   2.109 -2.6042 -2.0687 -2.1683
20936SOL    HW263387   4.527   8.062   2.045  1.6366 -0.7888  0.1240
20937SOL     OW63388   4.368   7.957   7.752  0.4905 -0.1528 -0.5616
20937SOL    HW163389   4.426   8.021   7.795 -0.3032 -1.8441  3.5605
20937SOL    HW263390   4.419   7.923   7.679  3.5218  0.6874  0.9964
20938SOL     OW63391   1.285   9.481   8.301  0.1711  0.4191 -0.5242
20938SOL    HW163392   1.323   9.393   8.309 -1.9562 -0.5559 -0.6316
20938SOL    HW263393   1.336   9.522   8.231  2.1226 -0.1909  0.4686
20939SOL     OW63394   6.809   0.325   2.856 -0.3520  0.4005  0.3677
20939SOL    HW163395   6.720   0.356   2.843 -0.3179  0.9860  1.4172
20939SOL    HW263396   6.847   0.323   2.768 -1.5567 -0.4009 -0.1606
20940SOL     OW63397   1.091   4.332   1.226 -0.7576  0.7805 -0.4674
20940SOL    HW163398   1.035   4.265   1.186  1.8037 -2.5175  1.0253
20940SOL    HW263399   1.089   4.312   1.320  0.7802  2.2835 -0.0674
20941SOL     OW63400   3.348   6.250   7.877  0.7029 -0.0648 -0.1406
20941SOL    HW163401   3.315   6.325   7.926 -0.0138 -1.1386  1.0917
20941SOL    HW263402   3.371   6.285   7.791 -1.9532  1.1144 -0.4622
20942SOL     OW63403   9.905   3.329   7.175 -0.4606 -0.0585  0.3384
20942SOL    HW163404   9.986   3.305   7.220  1.4110  0.7790 -2.3512
20942SOL    HW263405   9.860   3.245   7.163 -1.0119 -0.3404  3.4524
20943SOL     OW63406   3.739   0.701   1.757 -0.2843  0.4845  0.1429
20943SOL    HW163407   3.762   0.685   1.666  1.5223 -1.0665  0.8075
20943SOL    HW263408   3.710   0.793   1.759 -0.2435  0.5820 -1.9297
20944SOL     OW63409   5.625   0.096   1.472  0.8291  0.6785 -0.1402
20944SOL    HW163410   5.638   0.078   1.565  0.2293  2.6262  0.3748
20944SOL    HW263411   5.613   0.191   1.468  0.7441  0.6205 -2.2047
20945SOL     OW63412   3.773   3.731   4.741  0.5487  0.0318  0.4786
20945SOL    HW163413   3.825   3.773   4.673 -0.2060 -0.8133 -0.6596
20945SOL    HW263414   3.710   3.678   4.694 -0.6328  0.1577  1.8326
20946SOL     OW63415   1.968   0.865   9.563  0.1070 -0.1962 -0.3288
20946SOL    HW163416   1.883   0.902   9.540 -2.1555 -2.9763  2.7265
20946SOL    HW263417   1.971   0.780   9.520  0.7591 -0.6616  0.5843
20947SOL     OW63418   6.261   5.959   1.495  0.1525  0.3593 -0.3186
20947SOL    HW163419   6.168   5.944   1.478 -0.1072  1.2826  0.1972
20947SOL    HW263420   6.306   5.885   1.454 -0.8833 -0.6977  0.3832
20948SOL     OW63421   8.713   8.923   3.914  0.0121  0.2282  0.2009
20948SOL    HW163422   8.710   8.948   4.007 -0.0812  0.0573  0.2444
20948SOL    HW263423   8.629   8.881   3.898  0.0971  0.1030  0.0819
20949SOL     OW63424   3.905   8.998   4.145 -0.2773 -0.3767 -0.1310
20949SOL    HW163425   3.879   9.066   4.083 -1.4164 -1.2634 -0.6570
20949SOL    HW263426   3.977   9.038   4.195 -0.1342  0.7803 -1.2023
20950SOL     OW63427   9.777   5.760   9.751  0.7394  0.1878  0.2658
20950SOL    HW163428   9.824   5.841   9.733  0.9141  0.1287  0.4485
20950SOL    HW263429   9.709   5.785   9.813 -0.0489  0.4493 -0.6821
20951SOL     OW63430   2.642   3.838   4.800 -0.1252  0.0915 -0.3021
20951SOL    HW163431   2.703   3.867   4.732  0.8078  0.2639  0.5911
20951SOL    HW263432   2.698   3.807   4.871 -1.0729  0.4823  0.6440
20952SOL     OW63433   9.026   2.052   6.051  0.2013 -0.0547  0.0621
20952SOL    HW163434   8.937   2.028   6.023  0.4488 -1.6684  0.5360
20952SOL    HW263435   9.013   2.092   6.137 -0.2048  1.3928 -0.6427
20953SOL     OW63436   0.922   2.473   7.331  0.2402  0.2282  0.0136
20953SOL    HW163437   0.955   2.464   7.242 -0.6692  0.1992 -0.3344
20953SOL    HW263438   0.984   2.532   7.374  0.8012  0.0779 -0.5763
20954SOL     OW63439   1.503   7.014   1.026 -0.0762 -0.0646 -0.2158
20954SOL    HW163440   1.568   6.951   1.056 -0.7412 -0.1562  1.1288
20954SOL    HW263441   1.514   7.090   1.084  0.3951  0.8779 -1.5022
20955SOL     OW63442   1.447   9.518   7.781  0.7251  0.1773  0.2706
20955SOL    HW163443   1.531   9.496   7.740 -0.2965 -0.2046 -1.7476
20955SOL    HW263444   1.443   9.614   7.778  0.4687  0.1416 -1.0059
20956SOL     OW63445   4.644   4.513   9.673 -0.0712  0.0343  0.6291
20956SOL    HW163446   4.728   4.558   9.683  0.1889 -0.5778  1.2257
20956SOL    HW263447   4.646   4.443   9.737 -1.1648  0.1831  0.8408
20957SOL     OW63448   8.329   1.306   5.151 -0.6065 -0.4819 -0.2681
20957SOL    HW163449   8.360   1.395   5.171  1.0823 -1.1143  0.0732
20957SOL    HW263450   8.239   1.319   5.119 -0.6909  1.2620  0.5500
20958SOL     OW63451   7.147   6.168   0.888  0.2202  0.0969 -0.2598
20958SOL    HW163452   7.101   6.213   0.817  0.5136 -0.4867 -0.8308
20958SOL    HW263453   7.135   6.074   0.869 -1.0071 -0.0904  1.3106
20959SOL     OW63454   9.214   3.114   3.214  0.2487 -0.0393 -0.0529
20959SOL    HW163455   9.257   3.047   3.266  0.4986  0.4137  0.3254
20959SOL    HW263456   9.218   3.194   3.267 -0.9251  0.0474 -0.0734
20960SOL     OW63457   8.725   2.062   0.712  0.7456 -0.3702  0.2533
20960SOL    HW163458   8.678   2.136   0.673  0.4154 -1.2283 -1.0470
20960SOL    HW263459   8.667   2.029   0.781 -0.2559 -0.9575 -0.8428
20961SOL     OW63460   6.373   4.215   9.638 -0.0413  0.0521 -0.1661
20961SOL    HW163461   6.451   4.182   9.594  0.4225  0.6064  0.2419
20961SOL    HW263462   6.349   4.145   9.699  1.3966  0.7558  1.2694
20962SOL     OW63463   4.351   9.187   2.228 -0.2949  0.3332  0.1166
20962SOL    HW163464   4.310   9.136   2.298 -0.4220  0.9593  0.5036
20962SOL    HW263465   4.281   9.199   2.163  0.0186 -0.8552 -0.4621
20963SOL     OW63466   5.197   9.795   6.993 -0.6323  0.0678  0.0164
20963SOL    HW163467   5.171   9.871   6.942  2.5874  0.4191 -1.3678
20963SOL    HW263468   5.247   9.830   7.066  1.5555 -0.6178 -1.0600
20964SOL     OW63469   5.597  -0.011   2.048 -0.5511  0.7770  0.3251
20964SOL    HW163470   5.506  -0.021   2.078 -0.3405 -1.0130  0.4950
20964SOL    HW263471   5.592   0.056   1.980 -2.1618  0.1082 -0.2711
20965SOL     OW63472   9.451   8.506   8.006 -0.1841  0.0133  0.0843
20965SOL    HW163473   9.398   8.467   7.937 -0.7305 -0.3403  0.6892
20965SOL    HW263474   9.408   8.479   8.087  0.9095 -0.2687  0.5901
20966SOL     OW63475   8.937   2.661   5.054  0.2969 -0.1473 -0.6763
20966SOL    HW163476   9.012   2.606   5.030  0.0906 -0.4383 -0.6545
20966SOL    HW263477   8.911   2.629   5.140  0.3177  0.1393 -0.5605
20967SOL     OW63478   4.609   6.424   3.121 -0.2799 -0.2152 -0.0187
20967SOL    HW163479   4.682   6.367   3.147 -0.5982 -1.9713 -2.5618
20967SOL    HW263480   4.641   6.513   3.136  2.5426 -0.9037 -1.2513
20968SOL     OW63481   0.293   4.755   7.124 -0.0888 -0.0776 -0.3177
20968SOL    HW163482   0.345   4.808   7.185 -1.0215 -0.8181  1.1932
20968SOL    HW263483   0.337   4.766   7.040  1.7778  0.3027  0.6365
20969SOL     OW63484   4.394   4.747   1.250 -0.0106 -0.4038 -0.1384
20969SOL    HW163485   4.384   4.822   1.191  0.5924  0.0409  0.3058
20969SOL    HW263486   4.481   4.711   1.229  0.9048  0.6964  1.4839
20970SOL     OW63487   1.274   0.112   9.043 -0.4727  0.2436  0.0487
20970SOL    HW163488   1.222   0.066   9.109 -1.4609  0.3155 -0.6692
20970SOL    HW263489   1.295   0.196   9.085 -0.2326 -0.1118  0.6553
20971SOL     OW63490   1.869   9.152   8.029 -0.1029 -0.5180 -0.0359
20971SOL    HW163491   1.801   9.122   7.969  2.1389 -2.3292 -1.8396
20971SOL    HW263492   1.933   9.080   8.031  1.1650  0.5452  2.5804
20972SOL     OW63493   4.512   3.446   7.221  0.9363 -0.2794  1.0477
20972SOL    HW163494   4.499   3.478   7.131 -0.6392  0.1208  1.3873
20972SOL    HW263495   4.606   3.457   7.237  1.8649 -3.1235 -1.5530
20973SOL     OW63496   5.468   7.783   2.588  0.4220  0.2997 -0.1335
20973SOL    HW163497   5.560   7.793   2.567  0.3369  0.9984 -0.1950
20973SOL    HW263498   5.427   7.865   2.560 -0.3567 -0.3051 -0.8286
20974SOL     OW63499   1.332   0.975   4.457 -1.2563  0.4538  0.6220
20974SOL    HW163500   1.332   0.886   4.424 -2.8580  0.3335  0.8956
20974SOL    HW263501   1.425   0.998   4.463 -0.8211 -1.1481  0.4625
20975SOL     OW63502   3.310   3.320   4.212 -0.3492  0.1758 -0.5202
20975SOL    HW163503   3.239   3.285   4.266 -0.2317  0.0920 -0.4214
20975SOL    HW263504   3.269   3.332   4.126 -1.2081  2.5693  0.1564
20976SOL     OW63505   6.502   8.229   3.860  0.3125  0.2324  0.1982
20976SOL    HW163506   6.558   8.211   3.935 -2.0634 -2.2602  1.5246
20976SOL    HW263507   6.508   8.149   3.806  1.1702  1.5704 -1.8364
20977SOL     OW63508   6.996   4.532   7.191  0.1202  0.7822  0.0020
20977SOL    HW163509   6.905   4.503   7.189 -0.4561  2.5291 -1.7687
20977SOL    HW263510   6.992   4.625   7.210  1.6325  0.6544  1.1044
20978SOL     OW63511   5.192   4.848   6.193  0.0484  0.2164  0.1665
20978SOL    HW163512   5.287   4.844   6.188  0.1284  0.8745  1.0934
20978SOL    HW263513   5.172   4.857   6.286 -0.8843  0.9636 -0.0910
20979SOL     OW63514   3.981   3.547   6.495  0.4967  0.0689  0.1194
20979SOL    HW163515   3.896   3.552   6.539 -0.1569  0.0340 -1.0852
20979SOL    HW263516   3.968   3.482   6.426  1.6758 -0.3352  0.2660
20980SOL     OW63517   5.371   0.846   7.185 -0.0005  0.1452 -0.0620
20980SOL    HW163518   5.335   0.789   7.252 -1.5796  2.9507  1.6491
20980SOL    HW263519   5.348   0.803   7.102 -3.1746 -0.5996  1.0620
20981SOL     OW63520   1.663   5.827   2.054  0.3361  0.4950 -0.0528
20981SOL    HW163521   1.753   5.859   2.047  1.3871 -2.1801 -0.1929
20981SOL    HW263522   1.635   5.853   2.142  2.5038 -1.3267  1.2910
20982SOL     OW63523   7.870   3.847   3.930 -0.3738 -0.4889 -0.0242
20982SOL    HW163524   7.782   3.816   3.910 -0.2332 -1.7380  1.1262
20982SOL    HW263525   7.925   3.809   3.861 -0.2554 -2.6484  1.1748
20983SOL     OW63526   7.969   5.745   4.023 -0.0632 -0.9514  0.3858
20983SOL    HW163527   7.958   5.807   4.094 -0.9212 -0.9098  0.2302
20983SOL    HW263528   7.891   5.757   3.968  0.2863 -1.4046 -0.2258
20984SOL     OW63529   0.077   4.733   8.212 -0.2930 -0.5266 -0.5695
20984SOL    HW163530   0.172   4.741   8.207 -0.2269 -0.6495  0.3277
20984SOL    HW263531   0.061   4.639   8.218 -0.3958 -0.4555  0.4276
20985SOL     OW63532   8.636   4.457   2.571  0.2516  0.3658 -0.3403
20985SOL    HW163533   8.716   4.406   2.554 -0.8616 -1.4414 -0.3736
20985SOL    HW263534   8.575   4.428   2.504 -0.2376  2.2544 -0.7460
20986SOL     OW63535   7.103   4.598   2.872 -0.5676  0.5315  0.5966
20986SOL    HW163536   7.007   4.595   2.878 -0.6271 -1.0573 -0.3908
20986SOL    HW263537   7.127   4.508   2.850  1.0828  1.1440 -0.1887
20987SOL     OW63538   6.032   2.310   0.200  0.3782  0.1222  0.2311
20987SOL    HW163539   5.956   2.299   0.257  1.8631 -1.7063  2.0140
20987SOL    HW263540   6.079   2.385   0.235  0.0790  0.4780 -0.1089
20988SOL     OW63541   2.169   8.355   4.456 -0.1944  0.0682  0.1380
20988SOL    HW163542   2.112   8.416   4.501 -0.8755  0.6946 -1.5016
20988SOL    HW263543   2.133   8.348   4.368  1.0909 -1.0864 -0.3441
20989SOL     OW63544   5.266   4.566   1.956  0.1892  0.9675  0.3657
20989SOL    HW163545   5.255   4.658   1.933 -0.8420  0.2989 -2.0679
20989SOL    HW263546   5.177   4.531   1.961  0.5957 -0.2819 -0.5993
20990SOL     OW63547   1.387   3.052   2.388 -0.1716  0.6191  0.2898
20990SOL    HW163548   1.478   3.043   2.360  0.0114  0.7718  0.8076
20990SOL    HW263549   1.358   2.962   2.406 -0.8864  0.3088 -2.1123
20991SOL     OW63550   5.472   1.841   7.318  0.1316  0.4162 -0.0290
20991SOL    HW163551   5.561   1.832   7.284  0.3893 -2.4408  1.1537
20991SOL    HW263552   5.420   1.866   7.242  1.5949 -0.0341 -1.2363
20992SOL     OW63553   9.971   8.931   4.168  0.2529  0.4107 -0.5090
20992SOL    HW163554  10.038   8.941   4.235  0.0587 -0.4064 -0.1818
20992SOL    HW263555   9.889   8.953   4.212 -0.1321 -2.0233  0.1177
20993SOL     OW63556   3.146   2.374   9.717  0.0773  0.0627 -0.3378
20993SOL    HW163557   3.152   2.282   9.691 -0.0278 -0.0071 -0.1120
20993SOL    HW263558   3.054   2.396   9.706  0.0027 -0.0099  0.1224
20994SOL     OW63559   8.802   5.103   7.593  0.7134 -0.0989  0.1198
20994SOL    HW163560   8.773   5.190   7.568  1.1064 -0.3724 -1.3846
20994SOL    HW263561   8.752   5.044   7.537  1.8368 -0.7349 -0.2382
20995SOL     OW63562   6.537   5.401   5.821  0.7267  0.1847 -0.3149
20995SOL    HW163563   6.549   5.326   5.763 -0.5116 -0.3669  0.1093
20995SOL    HW263564   6.521   5.363   5.907 -0.6814  0.8773 -0.2353
20996SOL     OW63565   5.383   0.876   0.566 -0.2949  0.5916  0.1276
20996SOL    HW163566   5.456   0.938   0.577 -0.3365  0.7314 -0.3674
20996SOL    HW263567   5.362   0.848   0.655  1.3286 -0.5757  0.1970
20997SOL     OW63568   6.131   6.001   8.547 -0.0755  0.3101  0.1546
20997SOL    HW163569   6.099   6.079   8.591 -0.0542  0.0469  0.6443
20997SOL    HW263570   6.203   6.031   8.492 -1.4500  1.0187 -1.3708
20998SOL     OW63571   6.626   5.890   3.171  0.6474 -0.0264 -0.9320
20998SOL    HW163572   6.680   5.877   3.249  0.3602  1.2247 -0.5100
20998SOL    HW263573   6.538   5.866   3.199  0.6266 -0.0456 -1.0154
20999SOL     OW63574   6.515   5.278   7.873 -0.2201 -0.0843  0.3913
20999SOL    HW163575   6.430   5.258   7.835 -0.0804 -0.9732  0.5253
20999SOL    HW263576   6.500   5.283   7.967 -0.0719 -0.5708  0.4452
21000SOL     OW63577   3.180   0.149   4.949  0.1105 -0.0424 -0.2717
21000SOL    HW163578   3.154   0.060   4.973 -0.4663 -0.4016 -2.0583
21000SOL    HW263579   3.250   0.136   4.885  0.9827  0.8449  0.4661
21001SOL     OW63580   4.260   8.518   4.535 -0.0688 -0.0069  0.4707
21001SOL    HW163581   4.237   8.611   4.539 -0.6133 -0.0416 -1.1317
21001SOL    HW263582   4.338   8.515   4.480  0.4153 -0.4349  1.1718
21002SOL     OW63583   8.435   0.433   5.791  0.2703  0.0459  0.1945
21002SOL    HW163584   8.369   0.461   5.856  1.0431  2.7176 -0.0489
21002SOL    HW263585   8.508   0.402   5.844 -0.5900 -1.5933  0.4862
21003SOL     OW63586   6.743   2.723   1.103  0.7014  0.6973 -0.0544
21003SOL    HW163587   6.719   2.773   1.182 -0.8386  0.3105 -0.2346
21003SOL    HW263588   6.752   2.789   1.035 -2.9101  0.7779 -0.6796
21004SOL     OW63589   8.871   1.866   7.658  0.4393  0.3062 -0.0159
21004SOL    HW163590   8.897   1.789   7.609  1.5645  0.3436  0.4963
21004SOL    HW263591   8.907   1.852   7.745 -1.0671  0.4871  0.6693
21005SOL     OW63592   9.131   6.273   5.694  0.1423 -0.3544 -0.0777
21005SOL    HW163593   9.186   6.228   5.758 -0.0614 -1.5720 -0.7236
21005SOL    HW263594   9.118   6.361   5.730  2.4310 -0.0547  0.1296
21006SOL     OW63595   0.503   3.801   0.878 -0.1356 -0.4014 -0.3618
21006SOL    HW163596   0.456   3.840   0.804 -2.4916 -0.3087  1.0765
21006SOL    HW263597   0.589   3.841   0.876  0.0211 -0.6785 -3.2464
21007SOL     OW63598   9.085   9.253   5.725  0.0702  0.0155  0.5471
21007SOL    HW163599   9.043   9.270   5.641  0.4492 -1.0336  0.1201
21007SOL    HW263600   9.173   9.289   5.716  0.9440 -2.1660 -0.4315
21008SOL     OW63601   1.743   1.935   0.074  0.1472  0.5537  0.1156
21008SOL    HW163602   1.809   1.869   0.054 -0.2804  0.5511 -1.4198
21008SOL    HW263603   1.747   1.946   0.169  0.7857 -1.0819  0.2995
21009SOL     OW63604   4.015   0.302   9.150  0.2281  0.2564  0.2658
21009SOL    HW163605   4.095   0.249   9.151 -0.0297 -0.1363  0.3505
21009SOL    HW263606   3.960   0.264   9.219  0.9989  2.1630  2.0247
21010SOL     OW63607   3.658   1.881   9.754  0.3439 -0.2317 -0.4278
21010SOL    HW163608   3.719   1.939   9.799 -0.4187 -0.0878  0.4647
21010SOL    HW263609   3.664   1.906   9.661 -1.2293  2.5560  0.0950
21011SOL     OW63610   2.430   4.414   7.398 -0.0014  0.0996  0.1155
21011SOL    HW163611   2.469   4.399   7.312 -1.6995 -1.1662 -0.4869
21011SOL    HW263612   2.450   4.505   7.418  2.4571 -0.2279 -0.5183
21012SOL     OW63613   0.928   9.382   6.161  0.8220  0.3399  0.4552
21012SOL    HW163614   0.963   9.323   6.094  1.5208 -0.1401  1.2186
21012SOL    HW263615   0.975   9.464   6.147 -2.0018  1.6932 -2.3075
21013SOL     OW63616   5.729   8.452   2.980  0.1140 -0.0327  0.2484
21013SOL    HW163617   5.692   8.373   2.941 -0.9502  0.8163 -0.5170
21013SOL    HW263618   5.658   8.487   3.035  0.6373  0.2989  0.7290
21014SOL     OW63619   2.091   8.541   7.160 -0.0871 -0.3169  0.2714
21014SOL    HW163620   2.055   8.467   7.209 -1.2340  0.2148  0.2792
21014SOL    HW263621   2.016   8.599   7.146  0.2954 -0.2267 -1.7184
21015SOL     OW63622   5.618   3.315   9.190 -0.3085  0.2848 -0.1348
21015SOL    HW163623   5.567   3.371   9.131  1.6824  1.3334 -0.9681
21015SOL    HW263624   5.660   3.252   9.132  1.7113  1.3592  0.0777
21016SOL     OW63625   5.636   4.756   3.393 -0.0577  0.1448 -0.0290
21016SOL    HW163626   5.646   4.744   3.299 -0.3193 -1.5402  0.1319
21016SOL    HW263627   5.548   4.722   3.412  1.0626 -2.2447  1.2178
21017SOL     OW63628   1.758   7.479   3.831 -0.0614  0.0802  0.0898
21017SOL    HW163629   1.777   7.570   3.807 -1.1597  0.4580  0.5759
21017SOL    HW263630   1.711   7.443   3.755  1.1036 -0.3647 -0.4525
21018SOL     OW63631   3.291   1.684   7.837 -0.0273 -0.1203  0.2218
21018SOL    HW163632   3.350   1.754   7.867  1.2822 -1.0673 -0.0528
21018SOL    HW263633   3.245   1.656   7.917 -2.4314  2.6456 -0.0283
21019SOL     OW63634   5.637   0.896   0.230 -1.1284 -0.2397  0.0648
21019SOL    HW163635   5.706   0.962   0.225  1.2820 -2.6778 -2.4634
21019SOL    HW263636   5.595   0.911   0.315  1.0544  2.7583  0.7582
21020SOL     OW63637   7.761   9.885   7.041  0.0651 -0.3383  0.1066
21020SOL    HW163638   7.826   9.821   7.012 -0.0292 -1.7199  2.6326
21020SOL    HW263639   7.795   9.969   7.012  1.0389 -1.3584 -1.8955
21021SOL     OW63640   9.077   5.334   4.737  0.3660  0.2705  0.2609
21021SOL    HW163641   9.040   5.311   4.822 -0.2677  0.1488 -0.0379
21021SOL    HW263642   9.063   5.256   4.683 -0.4907  0.8262 -0.3490
21022SOL     OW63643   6.939   3.468   4.433  0.0944 -0.3906 -0.7136
21022SOL    HW163644   6.904   3.415   4.362 -0.7140  1.3668 -1.7051
21022SOL    HW263645   6.966   3.550   4.391 -1.1091  1.0134  1.0824
21023SOL     OW63646   2.702   0.894   1.324 -0.3802  0.0468  0.1452
21023SOL    HW163647   2.752   0.875   1.404 -0.1363  0.9564  0.2120
21023SOL    HW263648   2.618   0.850   1.338  0.2869 -1.2968  0.1370
21024SOL     OW63649   5.012   8.005   5.408 -0.7240 -0.3873  0.3987
21024SOL    HW163650   4.987   8.017   5.316  0.7192  1.5597  0.1841
21024SOL    HW263651   4.992   8.089   5.449  2.6976  0.4129  0.7724
21025SOL     OW63652   9.020   1.227   3.062 -0.0032  0.2677 -0.3276
21025SOL    HW163653   8.995   1.238   3.154  1.1617 -0.7637  0.1408
21025SOL    HW263654   9.033   1.316   3.031 -0.0694  0.6223  0.6056
21026SOL     OW63655   5.209   8.408   8.901 -0.3928 -0.0937 -0.5451
21026SOL    HW163656   5.185   8.439   8.989  0.5771  1.1545 -0.6933
21026SOL    HW263657   5.144   8.341   8.881 -1.6308  0.7497  0.4563
21027SOL     OW63658   6.423   5.167   6.421 -0.1491  0.3668  0.1594
21027SOL    HW163659   6.450   5.179   6.512  0.9393 -1.2396  0.0777
21027SOL    HW263660   6.505   5.161   6.372 -0.7024 -0.4656 -0.6887
21028SOL     OW63661   2.296   3.139   4.891 -0.2920 -0.0057 -0.5137
21028SOL    HW163662   2.307   3.224   4.847 -0.0591  0.1806 -0.1047
21028SOL    HW263663   2.355   3.080   4.844 -1.5900 -0.3280 -1.7898
21029SOL     OW63664   9.511   1.362   0.039 -0.9710 -0.1845 -0.0660
21029SOL    HW163665   9.528   1.349  -0.054 -0.3988  1.4088 -0.2211
21029SOL    HW263666   9.422   1.399   0.042 -1.4185 -1.2290  0.1300
21030SOL     OW63667   1.874   5.100   6.315  0.0140 -0.0830 -0.0050
21030SOL    HW163668   1.820   5.135   6.245  0.4889  1.6229  0.4299
21030SOL    HW263669   1.862   5.161   6.388  0.7764 -0.9199  0.8567
21031SOL     OW63670   3.927   8.757   7.462  0.2852  0.2477  0.3589
21031SOL    HW163671   3.858   8.716   7.515  0.2936  0.1664  0.3083
21031SOL    HW263672   3.937   8.698   7.387  1.7307 -0.7786  1.2994
21032SOL     OW63673   7.992   4.872   5.634  0.8215 -0.4952  0.3465
21032SOL    HW163674   7.942   4.834   5.562  1.1725  0.2628 -0.3090
21032SOL    HW263675   7.975   4.814   5.709 -1.0300 -0.2490  0.1459
21033SOL     OW63676   2.241   9.789   4.566 -0.3496  0.4142 -0.0925
21033SOL    HW163677   2.199   9.708   4.596  1.8893 -0.2175  1.6201
21033SOL    HW263678   2.259   9.838   4.647  2.4695  0.4351 -0.6268
21034SOL     OW63679   8.248   6.352   1.531  0.7987  0.6475  0.3383
21034SOL    HW163680   8.200   6.287   1.582  0.2244  0.1696 -0.7771
21034SOL    HW263681   8.327   6.307   1.501  0.9241  0.7920  0.4483
21035SOL     OW63682   9.838   5.294   9.265  0.0007 -0.2777  0.2787
21035SOL    HW163683   9.888   5.357   9.317 -0.3883 -0.2969  0.6792
21035SOL    HW263684   9.775   5.256   9.326  0.5859 -1.4511  0.1805
21036SOL     OW63685   6.551   1.228   0.639  0.6332  0.0007  0.9740
21036SOL    HW163686   6.544   1.312   0.684 -3.3442 -1.2712  3.1982
21036SOL    HW263687   6.490   1.235   0.565  1.5662 -0.3948  0.1468
21037SOL     OW63688   2.641   6.888   3.421  0.2720 -0.3443 -0.2227
21037SOL    HW163689   2.587   6.850   3.490  1.5783 -2.0247 -0.0596
21037SOL    HW263690   2.664   6.815   3.364  1.0320  0.6114 -1.1978
21038SOL     OW63691   2.808   5.267   6.944 -0.0542 -0.0548 -0.0131
21038SOL    HW163692   2.760   5.340   6.982 -0.4687 -2.0279  3.6868
21038SOL    HW263693   2.743   5.197   6.934  1.1173 -1.3431  0.8754
21039SOL     OW63694   1.108   0.669   6.798 -0.7848 -0.2957  0.4222
21039SOL    HW163695   1.070   0.617   6.728  1.1309 -0.5264 -0.5124
21039SOL    HW263696   1.085   0.622   6.878  1.1345 -2.8504 -0.3910
21040SOL     OW63697   3.336   3.886   8.414 -0.0025 -0.5481 -0.2393
21040SOL    HW163698   3.256   3.917   8.457  0.4405 -0.9466  0.9199
21040SOL    HW263699   3.352   3.949   8.344 -0.3331  0.5730  0.6691
21041SOL     OW63700   0.573   7.521   0.411  0.0792  0.4141  0.7560
21041SOL    HW163701   0.613   7.598   0.452  1.4965  0.0212  0.1695
21041SOL    HW263702   0.631   7.449   0.433 -1.1178 -0.4769  1.1135
21042SOL     OW63703   1.311   6.779   1.619 -0.3717 -0.1138  0.2050
21042SOL    HW163704   1.274   6.828   1.546 -0.8219 -1.5736 -0.5923
21042SOL    HW263705   1.298   6.687   1.595 -1.0326 -0.6440  2.3760
21043SOL     OW63706   0.586   0.811   5.715  0.6227  0.4778  0.2391
21043SOL    HW163707   0.670   0.855   5.697 -0.1795  1.9478 -0.0786
21043SOL    HW263708   0.578   0.813   5.810  1.1650 -0.1240  0.3071
21044SOL     OW63709   9.108   2.048   1.318  0.6272  0.3302 -0.1762
21044SOL    HW163710   9.128   2.051   1.412  1.3092  0.8265 -0.3255
21044SOL    HW263711   9.066   1.963   1.305 -0.8079  0.8478  0.8237
21045SOL     OW63712   2.244   1.842   9.839 -0.4221 -0.2551 -0.1036
21045SOL    HW163713   2.338   1.841   9.822 -0.0686 -1.5339  1.5412
21045SOL    HW263714   2.218   1.933   9.828  1.1833  0.2742  0.1888
21046SOL     OW63715   2.895   5.691   9.522  0.1021  0.2871  0.0161
21046SOL    HW163716   2.939   5.738   9.593  0.5329  1.1257 -0.7811
21046SOL    HW263717   2.967   5.656   9.469 -0.2143 -0.0738 -0.1792
21047SOL     OW63718   8.073   9.675   0.844  0.1971 -0.4704 -0.0037
21047SOL    HW163719   7.991   9.629   0.827 -0.7420  1.6852 -1.8182
21047SOL    HW263720   8.139   9.625   0.795 -0.5626 -0.6379 -0.8973
21048SOL     OW63721   8.284   1.762   0.774 -0.5861  0.5781 -0.5143
21048SOL    HW163722   8.196   1.725   0.781 -0.4602  0.3927  0.1411
21048SOL    HW263723   8.293   1.820   0.850  0.3015 -0.3695  0.1333
21049SOL     OW63724   1.386   2.037   0.748 -0.3947 -0.0347  0.3594
21049SOL    HW163725   1.347   2.121   0.773 -0.3210  0.6896 -1.7929
21049SOL    HW263726   1.480   2.050   0.761 -0.5245 -0.6877  2.4076
21050SOL     OW63727   2.285   6.297   8.464  0.1001  0.0952 -0.3529
21050SOL    HW163728   2.268   6.216   8.415  1.9218 -0.8842  0.5159
21050SOL    HW263729   2.313   6.359   8.398  1.3853 -0.8560 -0.7400
21051SOL     OW63730   3.347   4.088   3.288 -0.7001 -0.6309 -0.2792
21051SOL    HW163731   3.363   4.093   3.194 -2.1959  0.7371 -0.4978
21051SOL    HW263732   3.268   4.034   3.296 -0.2886 -1.1829  0.2554
21052SOL     OW63733   4.957   6.072   3.615  0.7241  0.3590  0.3229
21052SOL    HW163734   5.037   6.124   3.603 -0.1122  1.4922 -0.5257
21052SOL    HW263735   4.962   6.004   3.547  0.3896  1.1879 -0.5521
21053SOL     OW63736   9.161   0.488   3.081  0.3949  0.0447 -0.6548
21053SOL    HW163737   9.192   0.413   3.132  0.2622  0.5518  0.1868
21053SOL    HW263738   9.101   0.534   3.140  0.8419  1.0850 -0.9922
21054SOL     OW63739   6.225   5.429   0.068  0.4361 -0.0717  0.1962
21054SOL    HW163740   6.312   5.464   0.089  0.3305  0.2831  0.0479
21054SOL    HW263741   6.243   5.344   0.027  0.6479 -0.7547  1.6400
21055SOL     OW63742   6.003   2.730   4.207  0.2825 -0.7693 -0.2140
21055SOL    HW163743   5.945   2.787   4.156 -1.4838 -1.0153  1.4028
21055SOL    HW263744   6.035   2.666   4.144 -0.0200  0.2527 -1.4575
21056SOL     OW63745   7.710   8.047   1.838  0.1793  0.0179 -0.3669
21056SOL    HW163746   7.763   8.013   1.910  1.5067 -1.2552 -1.8702
21056SOL    HW263747   7.631   7.993   1.839  0.3822 -0.2808 -0.1245
21057SOL     OW63748   1.059   6.359   7.474 -0.5257 -0.2184  0.2784
21057SOL    HW163749   1.096   6.446   7.461 -0.0501 -0.1061  2.0834
21057SOL    HW263750   0.996   6.349   7.403  0.8012  0.7889 -1.1131
21058SOL     OW63751   9.862   3.769   5.040  0.3432 -0.2544 -0.4185
21058SOL    HW163752   9.771   3.763   5.010  0.5107 -0.9650 -0.8028
21058SOL    HW263753   9.855   3.789   5.134 -0.2245 -0.9172 -0.3121
21059SOL     OW63754   6.882   0.906   1.507  0.3257 -0.0927  0.2242
21059SOL    HW163755   6.947   0.976   1.516  0.2923  0.0674 -0.7024
21059SOL    HW263756   6.825   0.917   1.583 -0.0037  1.2503 -0.1827
21060SOL     OW63757   3.206   9.126   3.953 -0.2414 -0.4826 -0.4453
21060SOL    HW163758   3.221   9.053   3.892 -0.3536 -0.7913 -0.1075
21060SOL    HW263759   3.119   9.109   3.990  0.2240 -0.8222  0.5244
21061SOL     OW63760   4.838   1.322   2.129 -0.5223  0.1328 -0.2299
21061SOL    HW163761   4.825   1.382   2.203 -0.2799  0.0792 -0.1435
21061SOL    HW263762   4.897   1.369   2.070  0.5481 -0.4530  0.3504
21062SOL     OW63763   5.381   0.763   6.935 -0.0500 -0.5351 -0.1176
21062SOL    HW163764   5.363   0.833   6.873  1.2431 -0.1155 -0.0391
21062SOL    HW263765   5.307   0.702   6.925 -2.4114  1.8622  1.3848
21063SOL     OW63766   0.102   3.395   5.584 -0.6938 -0.5208 -0.3820
21063SOL    HW163767   0.098   3.350   5.668 -1.8102 -0.5429 -0.4211
21063SOL    HW263768   0.176   3.455   5.591 -0.8827 -0.3951  0.6898
21064SOL     OW63769   9.598   1.807   3.399  0.3274 -0.1846 -0.0037
21064SOL    HW163770   9.519   1.799   3.346  1.0005  1.3826 -1.3664
21064SOL    HW263771   9.651   1.731   3.377  0.9203  0.8046 -2.2870
21065SOL     OW63772   3.036   6.441   7.421 -0.3103  0.0230  0.2862
21065SOL    HW163773   3.050   6.442   7.327 -0.0877 -0.5561  0.3143
21065SOL    HW263774   3.110   6.490   7.457 -1.1032  1.4438  0.0801
21066SOL     OW63775   4.046   4.066   7.146 -0.7198  0.0553  0.6436
21066SOL    HW163776   4.045   4.108   7.060  0.6629  0.0047  0.5818
21066SOL    HW263777   4.093   3.985   7.132  0.3262  0.4711  1.6254
21067SOL     OW63778   4.467   9.022   0.142  0.3542 -0.0852 -0.3444
21067SOL    HW163779   4.544   9.054   0.188 -0.1456  0.2538  0.2838
21067SOL    HW263780   4.496   9.009   0.052  0.5973  2.2341 -0.6653
21068SOL     OW63781   4.451   6.205   8.349 -0.2115  0.0206 -0.1178
21068SOL    HW163782   4.366   6.245   8.368 -0.4636 -0.0907 -0.9762
21068SOL    HW263783   4.513   6.256   8.400 -0.5799  1.2291 -0.8442
21069SOL     OW63784   7.517   7.018   6.687 -0.3358  0.0937  0.1649
21069SOL    HW163785   7.461   7.095   6.701 -1.2479 -0.1066 -2.0369
21069SOL    HW263786   7.497   6.961   6.761 -3.0645  0.0614 -0.4927
21070SOL     OW63787   3.896   1.684   9.726 -0.0279 -0.8480 -0.4092
21070SOL    HW163788   3.888   1.771   9.765 -2.0349 -1.2830  0.2551
21070SOL    HW263789   3.913   1.626   9.800  2.3556 -0.9611 -0.9573
21071SOL     OW63790   7.785   5.495   3.045 -0.1024 -0.1657 -0.3638
21071SOL    HW163791   7.724   5.445   3.100 -0.8913  0.1256 -0.9674
21071SOL    HW263792   7.857   5.433   3.028 -0.1683 -0.4765  0.4317
21072SOL     OW63793   8.891   3.086   2.122 -0.0161  0.4643 -0.5251
21072SOL    HW163794   8.802   3.089   2.089 -0.7456  0.0839  1.2727
21072SOL    HW263795   8.919   2.996   2.109 -0.4616  0.2043  0.2309
21073SOL     OW63796   7.500   6.540   2.305 -0.1937  0.3475 -0.9467
21073SOL    HW163797   7.417   6.577   2.277  0.0051  2.8531  1.4418
21073SOL    HW263798   7.566   6.588   2.256 -0.0415  1.2225  0.0842
21074SOL     OW63799   2.898   9.324   9.004 -0.0272 -0.2828 -0.1860
21074SOL    HW163800   2.863   9.373   8.929 -1.9246 -1.6170 -0.2650
21074SOL    HW263801   2.827   9.264   9.028  0.0739  0.8010  3.3915
21075SOL     OW63802   9.124   7.593   9.451  0.7698 -0.2337  0.1618
21075SOL    HW163803   9.031   7.615   9.454  0.8031  0.6888 -2.5225
21075SOL    HW263804   9.164   7.647   9.520 -0.4797  0.4929  0.3432
21076SOL     OW63805   4.788   0.488   1.012  0.2052 -0.1726  0.9497
21076SOL    HW163806   4.781   0.574   0.971 -0.1353  0.1594  1.6883
21076SOL    HW263807   4.873   0.455   0.983 -0.5447 -0.5058 -1.0384
21077SOL     OW63808   2.607   3.104   2.110  0.1954 -0.0918  0.0142
21077SOL    HW163809   2.605   3.013   2.139 -0.3960 -0.5904 -1.4857
21077SOL    HW263810   2.610   3.098   2.014  2.4304  1.4399 -0.0914
21078SOL     OW63811   4.862   2.041   4.825 -0.0893 -0.3033  0.2218
21078SOL    HW163812   4.829   2.032   4.914 -0.0127  0.8320  0.3879
21078SOL    HW263813   4.935   2.103   4.833  0.4197 -0.8017 -0.5130
21079SOL     OW63814   8.902   2.529   8.925  0.3305  0.3746  0.0832
21079SOL    HW163815   8.818   2.498   8.891  0.4515 -1.8640  1.5792
21079SOL    HW263816   8.882   2.610   8.971 -0.7599  0.5556 -0.6969
21080SOL     OW63817   8.023   1.738   4.905 -0.6474 -0.7269 -0.9340
21080SOL    HW163818   7.996   1.749   4.996  0.3525 -1.3788 -0.5481
21080SOL    HW263819   7.978   1.659   4.876  0.6472 -1.7038 -0.3502
21081SOL     OW63820   4.275   5.326   1.752 -0.1487 -0.3412  0.7381
21081SOL    HW163821   4.228   5.243   1.753  0.5267 -0.7720 -0.3958
21081SOL    HW263822   4.286   5.349   1.844 -3.4166  0.3243  1.0720
21082SOL     OW63823   5.198   2.492   3.401 -0.1163  0.0426  0.1514
21082SOL    HW163824   5.254   2.489   3.479  0.9380  0.4730 -0.5641
21082SOL    HW263825   5.260   2.491   3.328 -1.0285  1.0369 -0.6601
21083SOL     OW63826   7.081   2.856   3.943  0.0644 -0.3889 -0.4551
21083SOL    HW163827   6.997   2.883   3.981  1.5085  2.0157  1.3969
21083SOL    HW263828   7.096   2.768   3.977 -0.7963 -0.0531  0.8758
21084SOL     OW63829   4.872   9.526   1.529 -0.3351  0.2199  0.4596
21084SOL    HW163830   4.923   9.579   1.466  0.4232 -1.2705 -0.2249
21084SOL    HW263831   4.785   9.522   1.491  0.2686 -1.1778 -0.8613
21085SOL     OW63832   6.513   2.764   2.256  0.5249  0.6089  0.6693
21085SOL    HW163833   6.572   2.696   2.289  0.3461 -0.6114 -1.3041
21085SOL    HW263834   6.570   2.839   2.239  1.4227 -0.2643 -0.4102
21086SOL     OW63835   7.247   5.847   7.244 -0.4405  0.2066  0.4045
21086SOL    HW163836   7.309   5.883   7.181 -0.2333 -0.0106  0.4812
21086SOL    HW263837   7.209   5.923   7.287  0.0027  0.3366  0.5769
21087SOL     OW63838   5.697   5.750   5.703  0.1200 -0.6235 -0.0826
21087SOL    HW163839   5.782   5.741   5.661  0.1580 -1.1402  0.0970
21087SOL    HW263840   5.634   5.754   5.630  0.5269  3.8282 -0.4928
21088SOL     OW63841   4.901   2.485   1.322  0.6393  0.0963  0.0324
21088SOL    HW163842   4.941   2.428   1.257 -0.9416 -0.7853 -0.2255
21088SOL    HW263843   4.811   2.452   1.331  0.3134  1.2496  1.4223
21089SOL     OW63844   1.651   2.939   4.117  0.1921  0.0240 -0.3907
21089SOL    HW163845   1.741   2.909   4.130  0.5754 -0.2148 -2.9749
21089SOL    HW263846   1.598   2.860   4.127 -0.1209  0.5517  3.4808
21090SOL     OW63847   5.413   7.614   2.793 -0.6377 -0.3455 -0.0586
21090SOL    HW163848   5.448   7.535   2.751 -0.5703 -0.6074  0.4754
21090SOL    HW263849   5.419   7.681   2.725  0.7689 -0.4159 -0.0500
21091SOL     OW63850   1.843   4.583   8.194 -0.2368 -0.2880 -0.3807
21091SOL    HW163851   1.925   4.534   8.199 -0.3903 -0.4524  0.8182
21091SOL    HW263852   1.835   4.626   8.279  0.2010  2.3714 -1.5975
21092SOL     OW63853   1.925   6.585   2.939 -0.2894  0.2031 -0.1177
21092SOL    HW163854   1.887   6.589   2.851  1.8348  1.7077 -1.0276
21092SOL    HW263855   1.949   6.675   2.960  2.6650 -0.6108  0.4028
21093SOL     OW63856   1.159   4.289   9.889 -0.7157  0.2562  0.6748
21093SOL    HW163857   1.095   4.224   9.917 -0.3547 -0.0523  0.7967
21093SOL    HW263858   1.108   4.367   9.870 -1.3091 -0.4175 -0.6558
21094SOL     OW63859   3.160   7.276   4.464 -0.0329  0.5705 -0.0057
21094SOL    HW163860   3.202   7.217   4.401  1.4464  1.8994 -0.3170
21094SOL    HW263861   3.223   7.283   4.535 -0.3149  1.5433  0.1614
21095SOL     OW63862   7.776   0.795   5.781  0.7700  0.8115 -0.6828
21095SOL    HW163863   7.753   0.810   5.689 -2.2364 -1.1883 -0.3847
21095SOL    HW263864   7.715   0.849   5.830 -0.3873 -1.1444  0.1321
21096SOL     OW63865   8.706   3.406   6.755 -0.3258  0.5486 -0.3799
21096SOL    HW163866   8.696   3.486   6.807 -1.5049  0.1835 -0.0303
21096SOL    HW263867   8.779   3.360   6.797 -0.4205  0.8725  0.1483
21097SOL     OW63868   8.888   9.851   4.129 -0.1277  0.1405 -0.0198
21097SOL    HW163869   8.978   9.859   4.161  0.5948 -1.6810 -1.4753
21097SOL    HW263870   8.881   9.918   4.061 -0.6783  1.8648  1.6296
21098SOL     OW63871   5.272   0.765   0.793 -0.2085 -0.4171  0.5131
21098SOL    HW163872   5.184   0.772   0.828  0.2454 -1.1778  1.8559
21098SOL    HW263873   5.327   0.813   0.855  0.3937 -0.3402 -0.0638
21099SOL     OW63874   0.238   2.912   3.610  0.3608 -0.0368  0.0834
21099SOL    HW163875   0.327   2.914   3.645  0.3181 -0.7259  0.2423
21099SOL    HW263876   0.202   2.999   3.630  0.6563 -0.0985  0.9163
21100SOL     OW63877   2.646   4.040   5.612 -0.0693  0.3681 -0.4726
21100SOL    HW163878   2.638   3.946   5.598  0.5550  0.5759 -2.6847
21100SOL    HW263879   2.741   4.056   5.610 -0.1260  0.9805  0.6630
21101SOL     OW63880   5.607   5.278   9.927  0.1117  0.1539  0.7053
21101SOL    HW163881   5.534   5.319   9.880 -0.2956  0.8893  1.9482
21101SOL    HW263882   5.568   5.246  10.008  1.4941  2.3433  2.3411
21102SOL     OW63883   7.588   5.854   9.751  1.2357 -0.0561  0.0096
21102SOL    HW163884   7.503   5.876   9.791  2.0981  1.4161  1.1156
21102SOL    HW263885   7.613   5.931   9.702  2.8329  0.3127  1.3183
21103SOL     OW63886   3.665   8.160   7.338 -0.2003 -0.6435 -0.0281
21103SOL    HW163887   3.607   8.224   7.297 -0.5883 -1.3983 -0.6807
21103SOL    HW263888   3.753   8.193   7.319 -0.3430 -1.1797 -1.9039
21104SOL     OW63889   5.277   4.778   2.643  0.4220  0.3716 -0.0966
21104SOL    HW163890   5.192   4.812   2.615 -0.5179 -0.6176  1.3995
21104SOL    HW263891   5.310   4.730   2.567  0.4492  2.1131 -1.2524
21105SOL     OW63892   4.370   5.396   2.031  0.5339 -0.0509 -0.1850
21105SOL    HW163893   4.350   5.433   2.117 -1.2898 -0.2055 -0.5159
21105SOL    HW263894   4.413   5.468   1.984  0.1502  0.5288  0.3394
21106SOL     OW63895   5.853   8.416   5.664 -0.1862  0.6153 -1.0949
21106SOL    HW163896   5.859   8.370   5.581 -2.7820  1.2617 -1.7380
21106SOL    HW263897   5.818   8.502   5.641  1.8156  1.9185  0.3856
21107SOL     OW63898   1.462   1.730   6.804  0.5176 -0.5324  0.1392
21107SOL    HW163899   1.549   1.752   6.772  1.1400 -2.5017  0.3737
21107SOL    HW263900   1.410   1.716   6.725  0.4318  0.4670  0.0014
21108SOL     OW63901   2.265   1.698   5.960 -0.0849  0.1866  0.3569
21108SOL    HW163902   2.296   1.761   6.025 -0.0911  0.4390  0.1153
21108SOL    HW263903   2.306   1.726   5.878  2.2784 -1.7715  0.7338
21109SOL     OW63904   0.105   6.632   3.935  0.0784  0.1825  0.7513
21109SOL    HW163905   0.068   6.562   3.881 -0.4859  1.4190 -0.5153
21109SOL    HW263906   0.030   6.685   3.961  0.7388  1.8812 -0.6233
21110SOL     OW63907   5.128   1.232   7.556 -1.0456  0.5426  0.2246
21110SOL    HW163908   5.037   1.249   7.531 -0.9017  0.3625 -0.4347
21110SOL    HW263909   5.124   1.221   7.651 -1.7770  0.1355  0.1578
21111SOL     OW63910   6.749   9.822   6.151 -0.4329 -0.0778 -0.2269
21111SOL    HW163911   6.773   9.897   6.205 -0.2935 -1.0084  1.0632
21111SOL    HW263912   6.831   9.793   6.111  0.3465 -1.9038  2.4260
21112SOL     OW63913   1.305   2.601   6.790 -0.3656  0.1310  0.1580
21112SOL    HW163914   1.375   2.574   6.731  0.0663  0.3186  0.5882
21112SOL    HW263915   1.286   2.692   6.765 -0.5264  0.0508 -0.0202
21113SOL     OW63916   6.654   7.868   9.914 -0.2299 -0.3344  0.5929
21113SOL    HW163917   6.560   7.853   9.917 -0.1902 -0.4840  1.0960
21113SOL    HW263918   6.683   7.862  10.005  0.2399 -0.1249  0.4616
21114SOL     OW63919   9.041   2.262   4.868  0.1917 -0.1001 -0.2553
21114SOL    HW163920   9.103   2.289   4.935  1.9698 -1.9316 -1.0560
21114SOL    HW263921   8.966   2.227   4.917  1.2509 -0.9759  0.7965
21115SOL     OW63922   4.028   6.586   0.545  0.0918  0.8209  0.4284
21115SOL    HW163923   4.038   6.566   0.452  1.0009  0.0994  0.6681
21115SOL    HW263924   3.954   6.647   0.548 -1.7165 -1.1662 -0.5135
21116SOL     OW63925   7.244   0.213   1.029 -0.0849 -0.3534  0.0164
21116SOL    HW163926   7.180   0.144   1.050  0.9403 -1.4821 -0.4266
21116SOL    HW263927   7.195   0.294   1.036 -0.9665 -0.9826  2.1845
21117SOL     OW63928   2.975   9.847   9.144 -0.3489  0.0094 -0.3028
21117SOL    HW163929   2.975   9.840   9.239  1.4497  0.7400 -0.1988
21117SOL    HW263930   3.062   9.814   9.118  0.1990  2.1613 -1.4475
21118SOL     OW63931   2.455   8.658   4.782  0.2865 -0.3652  0.8547
21118SOL    HW163932   2.440   8.594   4.712  1.4945 -0.9189  1.0819
21118SOL    HW263933   2.430   8.742   4.743 -0.1020 -0.8034  0.1329
21119SOL     OW63934   1.975   8.302   2.918 -0.6220  0.4319  0.4163
21119SOL    HW163935   1.968   8.227   2.859  2.0694 -0.2789  0.8434
21119SOL    HW263936   1.910   8.364   2.886 -1.4808 -1.2433 -1.2604
21120SOL     OW63937   3.769   1.793   7.629 -0.1469  0.0168  0.0820
21120SOL    HW163938   3.751   1.747   7.547  1.4135 -1.2777  0.4256
21120SOL    HW263939   3.685   1.792   7.675 -1.0995  0.9230 -1.5317
21121SOL     OW63940   8.638   7.673   0.310  0.2560 -0.3632  0.4901
21121SOL    HW163941   8.725   7.640   0.286 -0.6176 -1.8499 -0.7709
21121SOL    HW263942   8.633   7.758   0.266  0.6487 -0.7797 -0.3850
21122SOL     OW63943   7.332   0.744   4.022  0.1863 -0.0671  0.0247
21122SOL    HW163944   7.353   0.838   4.028  0.8321  0.0680 -2.9560
21122SOL    HW263945   7.406   0.706   3.974 -0.5889 -1.9247  0.2276
21123SOL     OW63946   8.846   4.816   3.732  0.3155 -0.4928  0.1199
21123SOL    HW163947   8.753   4.836   3.736  0.4508 -0.0939  1.9336
21123SOL    HW263948   8.851   4.721   3.740  0.0399 -0.6101 -0.9484
21124SOL     OW63949   7.334   3.838   7.221  0.1531  0.1711 -0.5795
21124SOL    HW163950   7.250   3.838   7.267 -0.2066 -1.3517 -1.1639
21124SOL    HW263951   7.318   3.784   7.143  1.2432  1.1674 -1.5358
21125SOL     OW63952   6.116   1.065   6.323 -0.1909  0.4075 -0.0389
21125SOL    HW163953   6.094   1.085   6.233 -0.2638 -0.7142 -0.2858
21125SOL    HW263954   6.165   0.982   6.318  1.6658  1.3885  0.7468
21126SOL     OW63955   5.044   3.305   7.323  0.4161 -0.0857  0.0412
21126SOL    HW163956   5.109   3.236   7.318 -0.6692 -1.1145 -0.4818
21126SOL    HW263957   5.085   3.381   7.282  1.1571 -0.8075 -0.5727
21127SOL     OW63958   1.390   5.755   1.998  0.4103  0.4753 -0.3079
21127SOL    HW163959   1.324   5.823   2.011 -0.0229  0.1239 -0.6691
21127SOL    HW263960   1.474   5.801   2.008  0.1182  0.8616  0.4575
21128SOL     OW63961   1.459   3.673   3.829  0.0829  0.6421 -0.4735
21128SOL    HW163962   1.510   3.708   3.901 -0.2298 -3.7744  2.3017
21128SOL    HW263963   1.521   3.662   3.757  1.3058  1.7984  0.3763
21129SOL     OW63964   1.856   9.114   4.178 -0.5665  0.2398  0.6967
21129SOL    HW163965   1.878   9.204   4.152  0.2616  0.4085  1.9194
21129SOL    HW263966   1.778   9.093   4.126  0.8909  0.5883 -1.8448
21130SOL     OW63967   2.024   0.447   6.302 -0.0669  0.3793  0.4118
21130SOL    HW163968   2.107   0.399   6.299  0.2885  0.9062  1.3324
21130SOL    HW263969   2.012   0.480   6.213 -0.5158 -1.7058 -0.3612
21131SOL     OW63970   0.161   5.935   5.272  0.4460 -0.0225  0.6380
21131SOL    HW163971   0.145   5.960   5.363  1.7464  1.7916  0.4128
21131SOL    HW263972   0.081   5.959   5.226 -0.6553 -1.9438  1.4171
21132SOL     OW63973   7.393   3.571   2.312 -0.0600  0.1201 -0.3059
21132SOL    HW163974   7.336   3.644   2.336 -0.6552 -0.1249 -0.9225
21132SOL    HW263975   7.416   3.588   2.221  0.0687 -0.2798 -0.3483
21133SOL     OW63976   7.050   7.560   4.269 -0.5115  0.0544 -0.1448
21133SOL    HW163977   7.055   7.496   4.340 -0.2459 -1.0508 -1.1292
21133SOL    HW263978   7.103   7.634   4.300 -0.4698 -0.3652  0.8337
21134SOL     OW63979   7.736   3.798   9.952 -0.1571 -0.0331 -0.3455
21134SOL    HW163980   7.828   3.817   9.968  0.3516 -3.5879  2.2051
21134SOL    HW263981   7.737   3.730   9.884 -0.8680 -0.3314 -0.0643
21135SOL     OW63982   3.358   7.983   2.101  0.6053  0.2034  0.0620
21135SOL    HW163983   3.327   7.893   2.111 -0.8209  0.6983  0.3865
21135SOL    HW263984   3.312   8.016   2.024  0.5974  0.8595  0.3351
21136SOL     OW63985   3.363   4.398   6.928 -0.8820  0.5988  0.4045
21136SOL    HW163986   3.375   4.414   7.021  2.3015 -3.6735  1.0054
21136SOL    HW263987   3.451   4.400   6.891 -1.5665 -1.7303 -1.6359
21137SOL     OW63988   6.390   9.338   0.776  0.1074  0.4461  0.1594
21137SOL    HW163989   6.370   9.367   0.865 -1.8045  0.6071 -0.2936
21137SOL    HW263990   6.354   9.407   0.720  1.8108  0.6553 -0.7645
21138SOL     OW63991   7.729   5.014   7.955  0.3258  0.6599  0.3836
21138SOL    HW163992   7.802   5.064   7.991 -0.4657  1.8638  0.3603
21138SOL    HW263993   7.766   4.969   7.879  1.4454 -0.1036  1.3314
21139SOL     OW63994   9.139   1.520   7.694  0.4334  0.1302 -0.0195
21139SOL    HW163995   9.098   1.434   7.704  1.0983 -0.0905  1.0479
21139SOL    HW263996   9.153   1.550   7.784  0.7028  1.1170 -0.3793
21140SOL     OW63997   9.080   1.922   6.491  0.2611 -0.2166  0.0814
21140SOL    HW163998   9.175   1.933   6.496  0.2144  0.7877 -0.8610
21140SOL    HW263999   9.048   1.944   6.578  0.6732  2.2629 -0.3109
21141SOL     OW64000   2.789   1.969   4.264  0.3477 -0.0105 -0.0888
21141SOL    HW164001   2.719   1.904   4.265 -0.4572  0.8229  0.7737
21141SOL    HW264002   2.860   1.929   4.214 -1.3021 -0.2851 -2.3450
21142SOL     OW64003   9.081   6.134   5.425  0.1287 -0.6244 -0.1188
21142SOL    HW164004   9.000   6.085   5.440 -1.2140  1.7580  1.0986
21142SOL    HW264005   9.107   6.163   5.512  0.2073  1.6704 -0.8366
21143SOL     OW64006   4.026   3.152   9.378 -0.0097  0.0859 -0.7416
21143SOL    HW164007   3.937   3.122   9.397  0.9539 -1.2948  2.2195
21143SOL    HW264008   4.075   3.072   9.359  0.9208  0.6777 -0.9123
21144SOL     OW64009   6.006   5.326   6.270  0.2830  0.3162  0.0214
21144SOL    HW164010   5.925   5.283   6.297  0.7060 -1.1033 -0.8725
21144SOL    HW264011   6.075   5.279   6.318  0.6794  0.5980 -0.2640
21145SOL     OW64012   0.225   8.287   0.264  0.0040  0.3220  0.2748
21145SOL    HW164013   0.202   8.213   0.208  0.9043  0.2626 -0.0287
21145SOL    HW264014   0.150   8.297   0.322 -0.5828 -0.1497 -0.3893
21146SOL     OW64015   1.814   6.496   1.530  0.1957 -0.6531  0.2032
21146SOL    HW164016   1.898   6.472   1.491 -0.1256  0.7793 -1.4672
21146SOL    HW264017   1.749   6.454   1.475 -0.2701  1.4578 -0.9667
21147SOL     OW64018   0.425   8.449   1.027  0.3931  0.1336  0.3289
21147SOL    HW164019   0.359   8.471   0.960  1.0228  0.5050 -0.1834
21147SOL    HW264020   0.477   8.529   1.036  0.9932 -0.2656  0.4684
21148SOL     OW64021   6.919   3.679   4.256 -0.1979 -0.4032  0.1391
21148SOL    HW164022   6.889   3.664   4.166 -1.9564  3.5832 -0.2010
21148SOL    HW264023   7.009   3.710   4.247  0.3070 -1.8651 -0.0031
21149SOL     OW64024   5.032   1.223   2.682  0.1570 -0.6748  0.4893
21149SOL    HW164025   4.999   1.270   2.605  2.2655 -0.5965 -0.4221
21149SOL    HW264026   4.961   1.163   2.705 -0.8611 -0.0916 -0.9813
21150SOL     OW64027   4.336   0.547   7.455  0.6452 -0.2845  0.1709
21150SOL    HW164028   4.332   0.600   7.375 -0.8520 -1.4055 -0.5492
21150SOL    HW264029   4.383   0.468   7.428  1.1275 -0.1974  0.7257
21151SOL     OW64030   7.011   5.584   5.559  0.3591  0.1693 -0.3842
21151SOL    HW164031   7.070   5.602   5.485  0.5311  2.0243  0.1364
21151SOL    HW264032   6.961   5.665   5.569 -0.5383 -0.5033  0.7492
21152SOL     OW64033   2.000   3.262   9.957  0.4424 -0.0646  0.7681
21152SOL    HW164034   1.929   3.313   9.917 -0.5991 -0.0315  2.5612
21152SOL    HW264035   1.993   3.175   9.918  0.7699  0.5121 -0.6158
21153SOL     OW64036   9.090   1.597   7.125  0.0878 -0.0006 -0.0069
21153SOL    HW164037   9.074   1.503   7.126  0.0231 -0.0357  2.3721
21153SOL    HW264038   9.180   1.606   7.157  0.5664  0.7119 -1.4747
21154SOL     OW64039   8.281   0.272   7.275 -0.7295  0.4004 -0.3455
21154SOL    HW164040   8.328   0.314   7.347 -2.8183 -1.5942  2.4155
21154SOL    HW264041   8.283   0.179   7.297  0.0183 -0.5729 -3.8986
21155SOL     OW64042   3.663   7.251   4.841 -0.4206 -0.0612  0.5025
21155SOL    HW164043   3.719   7.309   4.893 -0.4384  1.1941 -0.8190
21155SOL    HW264044   3.723   7.184   4.807  0.1827  0.9060 -0.3805
21156SOL     OW64045   8.497   7.856   8.750 -0.3913 -0.5132 -0.0117
21156SOL    HW164046   8.488   7.944   8.785  1.7553 -0.3128  0.1722
21156SOL    HW264047   8.410   7.816   8.762 -0.7486  0.7491  2.1798
21157SOL     OW64048   9.115   9.293   5.454  0.1406  0.2733  0.4889
21157SOL    HW164049   9.148   9.347   5.382 -1.1835  2.6282  1.5144
21157SOL    HW264050   9.176   9.308   5.526  0.4330 -0.6077  0.4420
21158SOL     OW64051   8.265   5.656   8.865  0.0116 -0.0761 -0.5235
21158SOL    HW164052   8.337   5.694   8.915 -0.0787  1.1137 -1.2526
21158SOL    HW264053   8.210   5.613   8.930  0.2264  0.8919  0.3204
21159SOL     OW64054   3.155   9.169   5.178  0.4507  0.2699  0.1845
21159SOL    HW164055   3.114   9.095   5.133  0.0317  0.4075  0.3334
21159SOL    HW264056   3.085   9.233   5.188  0.7679  0.6176  0.2140
21160SOL     OW64057   8.299   7.360   0.500 -0.2313 -0.5153  0.2344
21160SOL    HW164058   8.378   7.393   0.542 -0.4367 -0.3623  0.5042
21160SOL    HW264059   8.312   7.377   0.406 -0.5366  0.7707  0.4065
21161SOL     OW64060   4.293   9.832   1.667  0.2735 -0.1085 -0.2521
21161SOL    HW164061   4.386   9.855   1.666  0.4417 -0.7736 -0.5324
21161SOL    HW264062   4.263   9.846   1.578 -0.0130  0.5370 -0.0617
21162SOL     OW64063   7.946   5.095   7.699 -0.6642 -0.5934 -0.3142
21162SOL    HW164064   7.941   5.159   7.770  0.6752 -1.1357  0.2879
21162SOL    HW264065   7.882   5.127   7.634 -0.1188  1.2945  0.0096
21163SOL     OW64066   1.212   4.014   4.794 -0.1243  0.1918 -0.1138
21163SOL    HW164067   1.293   4.041   4.836 -0.1032  0.0463 -0.0587
21163SOL    HW264068   1.143   4.054   4.847 -0.1058 -0.2331  0.2358
21164SOL     OW64069   0.567   8.623   5.050  0.2756  0.5033  0.3058
21164SOL    HW164070   0.578   8.705   5.001  0.6618  1.2085  1.5403
21164SOL    HW264071   0.603   8.641   5.137 -2.2165 -0.0324  1.5590
21165SOL     OW64072   5.657   8.673   0.962  0.1912  0.0390  0.2713
21165SOL    HW164073   5.685   8.635   0.879  1.5310 -0.1589  0.7765
21165SOL    HW264074   5.562   8.683   0.954  0.3963  0.8819 -1.6171
21166SOL     OW64075   1.442   0.655   5.524 -0.4290 -0.9516  0.3256
21166SOL    HW164076   1.376   0.640   5.592 -0.8939 -1.1511 -0.1522
21166SOL    HW264077   1.390   0.663   5.443  0.0876 -0.3799  0.0473
21167SOL     OW64078   1.997   3.846   7.312 -0.4437 -0.0041 -0.0727
21167SOL    HW164079   2.079   3.814   7.275 -0.9135  0.1065 -1.2793
21167SOL    HW264080   1.991   3.805   7.398  1.2842  0.6605  0.4143
21168SOL     OW64081   4.079   0.358   8.757  0.2783 -0.2690  0.3359
21168SOL    HW164082   4.009   0.306   8.798 -1.5053 -0.3509 -2.5078
21168SOL    HW264083   4.131   0.294   8.708  0.7317  0.0955  0.3373
21169SOL     OW64084   1.091   6.177   6.968  0.1069  0.1239 -0.2880
21169SOL    HW164085   1.168   6.123   6.953  0.4827  0.4793  0.2923
21169SOL    HW264086   1.126   6.266   6.978 -0.4581  0.4144 -0.8334
21170SOL     OW64087   1.859   0.269   1.899  0.5664 -0.2376  0.0398
21170SOL    HW164088   1.887   0.253   1.989 -0.0167 -0.0905  0.2515
21170SOL    HW264089   1.933   0.315   1.860  0.1763  1.2324  0.9443
21171SOL     OW64090   2.187   8.835   4.369  0.0665 -0.5629  0.0407
21171SOL    HW164091   2.199   8.929   4.356  1.2919 -0.9468 -1.9607
21171SOL    HW264092   2.107   8.814   4.321 -0.2004 -0.5562  0.4768
21172SOL     OW64093   6.760   0.074   0.293 -0.0688  0.4303  0.1566
21172SOL    HW164094   6.711   0.151   0.264  1.0012  1.9935  2.2061
21172SOL    HW264095   6.792   0.034   0.213 -1.2373  1.7062 -1.0104
21173SOL     OW64096   6.848   7.273   9.454 -0.1383 -0.0495 -0.2909
21173SOL    HW164097   6.794   7.201   9.420  0.5292 -0.6320 -0.1315
21173SOL    HW264098   6.887   7.312   9.377  0.3573 -0.5558 -0.3032
21174SOL     OW64099   5.860   2.601   2.566 -0.3138  0.1716  0.6279
21174SOL    HW164100   5.832   2.581   2.476  3.1002 -0.5099 -0.4339
21174SOL    HW264101   5.891   2.692   2.561  1.5870 -0.4375  0.5640
21175SOL     OW64102   8.925   9.514   9.143 -0.8246  0.0580 -0.2915
21175SOL    HW164103   8.862   9.511   9.215 -2.0318 -0.9946 -1.3607
21175SOL    HW264104   8.956   9.424   9.133 -0.0600  0.3363 -0.5931
21176SOL     OW64105   5.197   6.986   1.059  0.4261 -0.2992  0.1219
21176SOL    HW164106   5.196   6.951   1.148 -1.0028  0.7736  0.5794
21176SOL    HW264107   5.180   7.080   1.070 -1.1342 -0.3519 -1.3233
21177SOL     OW64108   7.659   2.076   9.556 -0.5019 -0.5624  0.5700
21177SOL    HW164109   7.596   2.024   9.506  1.6351 -4.5600  1.6486
21177SOL    HW264110   7.739   2.074   9.505  0.1351  0.2296  1.4865
21178SOL     OW64111   1.657   9.866   9.518  0.2141  0.2238  0.2748
21178SOL    HW164112   1.662   9.873   9.423 -0.2008  0.7167  0.2848
21178SOL    HW264113   1.590   9.798   9.533  0.0910  0.3306  0.2142
21179SOL     OW64114   4.255   1.577   5.114  0.2153  0.1112  0.5881
21179SOL    HW164115   4.225   1.651   5.060 -0.1591 -0.5029 -0.0696
21179SOL    HW264116   4.349   1.590   5.123  0.4275 -0.1553 -0.8682
21180SOL     OW64117   6.696   6.835   1.364  0.2207  0.1409 -0.3970
21180SOL    HW164118   6.685   6.822   1.270 -0.4291  2.1700 -0.6516
21180SOL    HW264119   6.649   6.761   1.403 -0.1865 -0.3062 -1.6635
21181SOL     OW64120   1.193   3.387   2.658 -0.1661  0.1078 -0.2175
21181SOL    HW164121   1.213   3.304   2.614  0.6180  0.3868 -0.3896
21181SOL    HW264122   1.135   3.362   2.730  1.8341 -0.9143  1.1394
21182SOL     OW64123   9.683   0.472   2.008 -0.1118 -0.3165 -0.0462
21182SOL    HW164124   9.623   0.474   1.933 -0.7406 -1.6488  0.3863
21182SOL    HW264125   9.627   0.460   2.084  0.5583  0.5615  0.6140
21183SOL     OW64126   7.065   7.913   0.165  0.1144 -0.4248  0.3271
21183SOL    HW164127   7.019   7.891   0.084  0.3712  0.9977 -0.2265
21183SOL    HW264128   7.140   7.965   0.137  0.0546  0.3208  1.4941
21184SOL     OW64129   8.580   5.005   1.529  0.4925  0.4674 -0.2470
21184SOL    HW164130   8.636   5.022   1.606  0.1810 -1.1760  0.3701
21184SOL    HW264131   8.639   4.966   1.465  0.0648 -1.5059  0.4966
21185SOL     OW64132   9.165   6.381   6.101  0.4626  0.0744 -0.0158
21185SOL    HW164133   9.258   6.383   6.078  0.5727  1.5858  0.4469
21185SOL    HW264134   9.154   6.299   6.150  1.4808 -0.2534 -0.3093
21186SOL     OW64135   1.135   3.961   4.349  0.4183 -0.1257 -0.1940
21186SOL    HW164136   1.220   3.955   4.393  0.2834 -0.3356  0.0433
21186SOL    HW264137   1.076   3.995   4.416 -0.0405 -1.5232  0.1588
21187SOL     OW64138   0.516   2.664   1.895 -0.2734 -0.3587  0.4317
21187SOL    HW164139   0.554   2.692   1.812  0.8707  1.2779  1.4245
21187SOL    HW264140   0.443   2.608   1.871  0.6288 -0.7419 -1.6381
21188SOL     OW64141   5.785   8.390   8.744  0.4756  0.3905 -1.0567
21188SOL    HW164142   5.699   8.424   8.768  0.0646 -2.6247  2.6239
21188SOL    HW264143   5.767   8.305   8.704  1.6622 -1.0983  1.3633
21189SOL     OW64144   6.807   3.489   2.841 -0.2074  0.3109 -0.8621
21189SOL    HW164145   6.832   3.481   2.933 -2.2863 -0.5789 -0.3135
21189SOL    HW264146   6.859   3.422   2.797  0.5227  0.4791 -0.2731
21190SOL     OW64147   9.325   7.337   1.923 -0.5224  0.2651 -0.3882
21190SOL    HW164148   9.374   7.255   1.918  2.2363  1.6577  1.2683
21190SOL    HW264149   9.379   7.401   1.875  0.0178  2.1229  2.4527
21191SOL     OW64150   3.291   9.285   6.828 -0.1344 -0.5514  0.7356
21191SOL    HW164151   3.297   9.191   6.811 -1.2685 -0.0242 -3.8881
21191SOL    HW264152   3.205   9.296   6.869 -0.5170 -1.4422  0.2164
21192SOL     OW64153   5.057   3.846   9.310 -0.1503 -0.4580  0.6266
21192SOL    HW164154   5.001   3.838   9.233  0.8320  0.2205 -0.1935
21192SOL    HW264155   5.103   3.762   9.316  0.3399 -0.2471 -0.0112
21193SOL     OW64156   2.481   9.796   6.520  0.3156  0.6909 -0.3117
21193SOL    HW164157   2.431   9.872   6.550  0.3626  0.3625  0.6393
21193SOL    HW264158   2.559   9.795   6.575 -0.3208 -0.8015  0.6377
21194SOL     OW64159   5.258   0.167   9.212  0.5716 -0.7422  0.1963
21194SOL    HW164160   5.227   0.257   9.216  2.4453 -0.0566  0.1146
21194SOL    HW264161   5.240   0.140   9.121 -0.7392 -0.7701  0.4386
21195SOL     OW64162   3.564   6.992   2.946 -0.1365  0.3007  0.0463
21195SOL    HW164163   3.485   7.002   2.893 -0.5312  0.8332  0.7210
21195SOL    HW264164   3.578   7.078   2.985  2.2964  1.0197 -2.0953
21196SOL     OW64165   7.959   7.486   8.102 -0.0330  0.6858 -0.1353
21196SOL    HW164166   7.942   7.450   8.015 -0.4174  1.3707 -0.3503
21196SOL    HW264167   7.898   7.439   8.159  0.6948 -0.2548 -0.1086
21197SOL     OW64168   1.583   2.102   3.503 -0.4563 -0.5460  0.2578
21197SOL    HW164169   1.678   2.095   3.497 -0.3702  0.4829  0.2020
21197SOL    HW264170   1.561   2.059   3.586 -0.0533 -1.5772 -0.1496
21198SOL     OW64171   7.362   4.715   6.392 -0.3324  0.2185  0.6095
21198SOL    HW164172   7.401   4.720   6.305 -0.8039  0.0084  0.3823
21198SOL    HW264173   7.421   4.766   6.448 -0.1300  0.5146  0.1311
21199SOL     OW64174   5.989   0.922   2.238 -0.1798 -0.4468 -0.5056
21199SOL    HW164175   5.970   1.013   2.215  0.2649 -0.8389 -2.6801
21199SOL    HW264176   5.981   0.875   2.155  0.7620 -2.2029  0.3554
21200SOL     OW64177   5.067   4.998   4.273 -0.4043  0.1865 -0.4927
21200SOL    HW164178   4.984   4.954   4.289 -0.7818  0.3611 -1.8983
21200SOL    HW264179   5.112   4.996   4.358 -0.7277 -2.2061 -0.3304
21201SOL     OW64180   9.624   9.386   7.538 -0.8926 -0.4042  0.2780
21201SOL    HW164181   9.619   9.297   7.573  1.5852 -0.2472  1.2108
21201SOL    HW264182   9.600   9.377   7.446 -3.4572 -1.5288  0.9799
21202SOL     OW64183   8.828   0.705   1.605  0.4139  0.0995 -0.0497
21202SOL    HW164184   8.778   0.675   1.680 -0.3591  0.9102 -0.2215
21202SOL    HW264185   8.916   0.722   1.639  0.3010 -0.3741  0.4759
21203SOL     OW64186   9.210   7.467   9.869  0.2952  0.1141  0.2714
21203SOL    HW164187   9.289   7.441   9.917  1.1718  0.6760 -0.8196
21203SOL    HW264188   9.160   7.386   9.858  0.9022 -0.3147  0.6246
21204SOL     OW64189   1.991   9.533   5.773 -0.3798  0.5623  0.4406
21204SOL    HW164190   1.935   9.458   5.753 -0.3080  0.6064  0.0619
21204SOL    HW264191   1.994   9.583   5.691  0.5793  0.3210  0.3104
21205SOL     OW64192   7.776   0.842   0.792  0.7540 -0.4284 -0.2411
21205SOL    HW164193   7.798   0.892   0.714  0.8816 -2.4804 -1.6024
21205SOL    HW264194   7.686   0.867   0.813  0.9183  0.5740 -0.6897
21206SOL     OW64195   3.681   6.372   3.229 -0.5245  0.4617 -0.5528
21206SOL    HW164196   3.759   6.375   3.174  0.8648 -0.1199  1.2810
21206SOL    HW264197   3.706   6.418   3.309 -0.7751 -2.6573  1.5064
21207SOL     OW64198   9.642   3.975   2.283 -0.3671  0.1197 -0.1828
21207SOL    HW164199   9.607   3.969   2.194 -2.4215  1.6942  0.4251
21207SOL    HW264200   9.723   3.924   2.281 -1.2407 -1.3477 -2.4864
21208SOL     OW64201   8.224   8.902   6.846 -0.1610 -0.1283 -0.0426
21208SOL    HW164202   8.191   8.813   6.834  0.7359 -0.4367 -0.3002
21208SOL    HW264203   8.286   8.915   6.774 -0.8134  0.9659 -0.4274
21209SOL     OW64204   3.067   2.668   6.557  0.4937  0.6109  0.6102
21209SOL    HW164205   3.045   2.622   6.639  1.7484  0.8728  1.1182
21209SOL    HW264206   2.995   2.730   6.545  0.3529  0.6605  1.5926
21210SOL     OW64207   3.325   7.154   3.537  0.1120 -0.1605  0.7744
21210SOL    HW164208   3.381   7.230   3.556  1.0071 -0.1410 -1.6611
21210SOL    HW264209   3.327   7.145   3.442 -0.4756 -2.8875  0.9403
21211SOL     OW64210   3.656   9.383   2.385 -0.0669 -0.5233 -0.0770
21211SOL    HW164211   3.722   9.420   2.443 -0.1406 -1.4903  0.6403
21211SOL    HW264212   3.628   9.457   2.331  0.3416  0.2841  0.7835
21212SOL     OW64213   9.390   6.798   4.362 -0.7003 -0.4574  0.2722
21212SOL    HW164214   9.408   6.753   4.280  1.9116  0.3256  0.3160
21212SOL    HW264215   9.373   6.889   4.337 -0.0677 -0.2510  0.5719
21213SOL     OW64216   7.358   9.226   3.373 -0.0833  0.0374 -0.5724
21213SOL    HW164217   7.355   9.321   3.365  0.2423 -0.0057 -1.2955
21213SOL    HW264218   7.283   9.203   3.427 -0.3048  0.6861 -0.6071
21214SOL     OW64219   0.324   0.153   6.456  0.0346  0.1317  0.4199
21214SOL    HW164220   0.267   0.174   6.530 -0.4399 -0.1157  0.1343
21214SOL    HW264221   0.388   0.091   6.491 -1.0421 -1.0883  0.3088
21215SOL     OW64222   1.912   0.221   5.413 -0.5062  0.1391 -0.2696
21215SOL    HW164223   1.933   0.128   5.406  0.0595  0.3060 -0.8961
21215SOL    HW264224   1.884   0.233   5.504 -1.6759 -0.8524 -0.4863
21216SOL     OW64225   3.567   8.960   9.161 -0.1914 -0.2799  0.0096
21216SOL    HW164226   3.508   8.904   9.212 -1.3446 -0.5753 -1.5444
21216SOL    HW264227   3.513   8.990   9.087  1.6065 -0.5633 -1.4968
21217SOL     OW64228   8.169   5.231   2.325  0.0245  0.3799  0.5735
21217SOL    HW164229   8.110   5.158   2.306  0.4758  0.4031 -1.0145
21217SOL    HW264230   8.187   5.223   2.419 -0.6626 -0.9940  0.6115
21218SOL     OW64231   8.138   4.609   6.172 -0.2124  0.0591 -0.3138
21218SOL    HW164232   8.146   4.705   6.173 -1.1948  0.1544 -0.3344
21218SOL    HW264233   8.046   4.593   6.152 -0.3932 -0.8813  1.1108
21219SOL     OW64234   7.451   6.968   3.289  0.2916  0.4245  0.2713
21219SOL    HW164235   7.394   7.024   3.235  1.0464 -0.0482 -1.0782
21219SOL    HW264236   7.445   7.005   3.377  0.0564  2.0732 -0.3981
21220SOL     OW64237   4.031   2.907   3.050 -0.0459  0.5161 -0.1873
21220SOL    HW164238   4.011   2.962   2.974  2.3894  0.9324 -0.5865
21220SOL    HW264239   4.124   2.922   3.068  0.3870 -2.3941  0.5711
21221SOL     OW64240   6.232   4.467   0.564  0.1176  0.5355  0.6850
21221SOL    HW164241   6.239   4.562   0.573 -1.8826  0.6488  1.7269
21221SOL    HW264242   6.177   4.454   0.487 -1.3160  0.3313  1.7053
21222SOL     OW64243   0.880   7.821   1.880 -0.6910  0.3312  0.1644
21222SOL    HW164244   0.845   7.891   1.936  0.9917 -1.3997  3.7642
21222SOL    HW264245   0.803   7.771   1.853 -1.6236  1.4634  0.6467
21223SOL     OW64246   4.197   3.830   7.059 -0.0978  0.0062 -0.5152
21223SOL    HW164247   4.206   3.780   6.978  0.1226 -2.0798  0.7275
21223SOL    HW264248   4.286   3.859   7.078  0.2859 -1.5183  0.1608
21224SOL     OW64249   4.392   8.839   9.678 -0.0731  0.2526  0.2961
21224SOL    HW164250   4.436   8.793   9.749  0.6110  0.6301  0.1223
21224SOL    HW264251   4.299   8.819   9.690 -0.2826  2.1622  2.6984
21225SOL     OW64252   9.374   9.307   6.477 -0.6392 -0.2267 -0.1585
21225SOL    HW164253   9.401   9.325   6.387 -0.2670 -0.6447 -0.1302
21225SOL    HW264254   9.372   9.393   6.519 -0.2023 -0.1017 -0.3950
21226SOL     OW64255   0.656   7.127   8.703  0.0596  0.0293  0.0128
21226SOL    HW164256   0.735   7.076   8.688 -0.1176 -0.2489  0.0225
21226SOL    HW264257   0.667   7.164   8.791  0.4236  0.4416 -0.2030
21227SOL     OW64258   3.243   0.525   0.330  0.6068  0.1703 -0.5856
21227SOL    HW164259   3.170   0.475   0.294  0.0818  0.6202 -0.1701
21227SOL    HW264260   3.240   0.506   0.424  0.1000  1.3612 -0.3540
21228SOL     OW64261   9.068   4.507   6.600  0.5880  0.3917 -0.2517
21228SOL    HW164262   9.097   4.574   6.662 -0.1906  0.4089  0.1073
21228SOL    HW264263   8.983   4.478   6.634  1.3448 -1.4762  0.1489
21229SOL     OW64264   9.036   8.131   2.217  0.0140  0.4264 -0.6386
21229SOL    HW164265   8.966   8.105   2.157  0.8088  0.9373 -1.8455
21229SOL    HW264266   9.103   8.063   2.206  1.0738  1.6073 -2.0040
21230SOL     OW64267   7.862   5.474   3.935 -0.5693  0.3826 -0.0313
21230SOL    HW164268   7.880   5.514   3.850  0.1203  0.1797  0.0130
21230SOL    HW264269   7.869   5.546   3.998  2.9071 -0.0864  0.3399
21231SOL     OW64270   0.356   4.798   5.764  0.6805  0.0126  0.1594
21231SOL    HW164271   0.277   4.850   5.752  0.4604 -0.6097 -1.2315
21231SOL    HW264272   0.425   4.846   5.718  0.4404 -0.9520 -1.2820
21232SOL     OW64273   0.914   6.804   6.109 -0.1067  0.2622  0.5981
21232SOL    HW164274   0.921   6.711   6.127  1.1333  0.5028  1.4826
21232SOL    HW264275   1.002   6.831   6.085 -0.0132  1.5474  2.1696
21233SOL     OW64276   5.731   7.078   4.407  0.6328 -0.9204  0.3122
21233SOL    HW164277   5.807   7.106   4.356 -1.3161  2.8728 -0.9221
21233SOL    HW264278   5.753   7.101   4.497  1.6768 -1.7994  0.3056
21234SOL     OW64279   4.941   1.107   4.194  0.2737 -0.7207  0.4135
21234SOL    HW164280   4.997   1.045   4.148 -1.4706 -2.0736  0.0425
21234SOL    HW264281   4.870   1.127   4.132 -0.7928 -0.6714  1.6036
21235SOL     OW64282   3.253   7.220   1.318  0.4803 -0.4921 -0.4286
21235SOL    HW164283   3.225   7.184   1.234 -0.0502  0.4540 -0.6633
21235SOL    HW264284   3.330   7.273   1.297 -0.3367  0.6969 -0.5226
21236SOL     OW64285   7.804   0.221   9.056 -0.5008 -0.3193 -0.1921
21236SOL    HW164286   7.892   0.198   9.028  0.0817  1.0475  0.4263
21236SOL    HW264287   7.816   0.265   9.140 -1.5801  1.4883 -0.9229
21237SOL     OW64288   0.227   2.674   4.900 -0.0326 -0.0230  0.6291
21237SOL    HW164289   0.311   2.720   4.908 -0.5601  1.3793 -1.0638
21237SOL    HW264290   0.180   2.697   4.980  0.9804 -0.4015  1.3598
21238SOL     OW64291   8.309   3.178   1.463 -0.0641  0.4533 -0.3501
21238SOL    HW164292   8.308   3.123   1.541  1.6788 -1.1324 -1.3634
21238SOL    HW264293   8.383   3.238   1.477  0.8012 -0.4028 -1.0974
21239SOL     OW64294   7.895   1.010   4.875 -0.1970 -0.1591 -0.2449
21239SOL    HW164295   7.872   0.946   4.941 -1.9607  2.1569  1.5527
21239SOL    HW264296   7.895   1.094   4.921  0.1805  1.3870 -2.8375
21240SOL     OW64297   2.182   2.158   1.181  0.7109 -0.5467 -0.2412
21240SOL    HW164298   2.247   2.138   1.113 -0.5387 -0.0653 -1.6260
21240SOL    HW264299   2.175   2.076   1.231  1.3412 -1.0603 -0.9605
21241SOL     OW64300   9.929   9.708   5.221  0.0843 -0.3772  0.2297
21241SOL    HW164301   9.893   9.675   5.139  0.1049 -0.3651  0.2157
21241SOL    HW264302   9.912   9.803   5.218 -0.9862 -0.5348  0.7765
21242SOL     OW64303   2.110   6.146   6.133  0.0071  0.6905  0.2822
21242SOL    HW164304   2.041   6.084   6.160  0.8947 -0.9144 -0.9109
21242SOL    HW264305   2.097   6.155   6.039 -0.8172  3.3202  0.5845
21243SOL     OW64306   1.773   7.737   4.912 -0.1364 -0.4649  0.2614
21243SOL    HW164307   1.747   7.652   4.946 -0.6039  0.0330  1.1905
21243SOL    HW264308   1.742   7.800   4.977  0.0240  0.4359 -0.5009
21244SOL     OW64309   9.604   4.232   2.378 -0.0113 -0.8914 -0.5393
21244SOL    HW164310   9.624   4.139   2.366  2.8851 -0.2670 -1.5881
21244SOL    HW264311   9.630   4.273   2.295  1.8939  1.2195  0.9614
21245SOL     OW64312   2.438   3.742   8.653 -0.1423 -0.0097  0.0633
21245SOL    HW164313   2.434   3.777   8.564  0.3139  0.2871  0.1572
21245SOL    HW264314   2.527   3.762   8.683 -0.1283 -0.5570  0.4005
21246SOL     OW64315   5.922   9.542   3.852  0.0302 -0.2501  0.1424
21246SOL    HW164316   5.828   9.557   3.865 -0.0559  1.2403 -1.7509
21246SOL    HW264317   5.963   9.625   3.875  0.6135 -0.1268 -1.2453
21247SOL     OW64318   7.468   8.811   9.953  0.0751 -0.5698  0.0861
21247SOL    HW164319   7.557   8.777   9.940  0.2371  0.3205 -1.2434
21247SOL    HW264320   7.471   8.852  10.040  1.4627  0.8642 -0.5791
21248SOL     OW64321   8.889   7.301   1.121 -0.1211  0.1666 -0.1454
21248SOL    HW164322   8.827   7.313   1.048  1.2476 -0.6354 -1.4821
21248SOL    HW264323   8.940   7.224   1.097  2.7489  1.9085 -0.1102
21249SOL     OW64324   1.596   3.096   8.965  0.1103  0.8017 -0.4524
21249SOL    HW164325   1.653   3.088   9.041 -0.1522  0.3529 -0.3005
21249SOL    HW264326   1.508   3.104   9.000  0.2556  5.1126 -0.5074
21250SOL     OW64327   4.292   5.583   6.847 -0.2956  0.7958 -0.4883
21250SOL    HW164328   4.320   5.545   6.930 -0.5570  0.0955 -0.7104
21250SOL    HW264329   4.232   5.653   6.871 -1.4401 -0.2868 -0.1048
21251SOL     OW64330   4.812   6.746   8.983  0.6128 -0.6219  0.3406
21251SOL    HW164331   4.789   6.694   9.060  3.5430 -2.0835  0.3687
21251SOL    HW264332   4.880   6.695   8.939  1.6591  1.9252 -1.2143
21252SOL     OW64333   3.220   0.061   6.931 -0.1784  0.1278  0.4562
21252SOL    HW164334   3.225   0.006   7.009 -1.8500  0.3450  0.7438
21252SOL    HW264335   3.295   0.120   6.939  1.1957 -1.5504  0.5270
21253SOL     OW64336   2.224   7.538   2.402  0.2014  0.6573 -0.6338
21253SOL    HW164337   2.199   7.483   2.327 -0.9200 -0.5326  0.5572
21253SOL    HW264338   2.207   7.628   2.372  2.5016  0.4970 -2.7852
21254SOL     OW64339   7.038   8.972   1.411  0.2573  0.1074  0.2997
21254SOL    HW164340   6.950   9.004   1.429 -0.2183 -0.7821 -0.3763
21254SOL    HW264341   7.076   9.039   1.353 -0.6202 -0.3678 -0.8618
21255SOL     OW64342   4.676   7.790   4.478  0.0217 -0.5421  0.0389
21255SOL    HW164343   4.698   7.834   4.560  1.4892  0.1155 -0.6748
21255SOL    HW264344   4.645   7.703   4.505 -1.4105  0.3400  1.3712
21256SOL     OW64345   4.822   2.348   6.234  0.6520  0.2379  0.2987
21256SOL    HW164346   4.865   2.350   6.149 -1.9815  1.9190 -1.1176
21256SOL    HW264347   4.827   2.438   6.267  1.0391 -0.2417  1.6364
21257SOL     OW64348   7.824   8.303   9.749 -0.0460 -0.1694  0.1691
21257SOL    HW164349   7.746   8.279   9.798  0.0275 -0.4801  0.1387
21257SOL    HW264350   7.835   8.232   9.685 -0.7622  0.7790 -1.0386
21258SOL     OW64351   9.393   1.871   4.118 -0.0994 -0.1888  0.5712
21258SOL    HW164352   9.408   1.825   4.036  1.3348  2.6707 -0.9097
21258SOL    HW264353   9.477   1.868   4.163 -0.2913  0.0684  0.9550
21259SOL     OW64354   3.230   0.397   5.565 -0.3164  0.0259 -0.2197
21259SOL    HW164355   3.266   0.474   5.521 -0.6012 -0.2795 -1.0181
21259SOL    HW264356   3.146   0.425   5.598  0.5626  0.7072  1.5433
21260SOL     OW64357   5.836   5.763   0.666  0.4131 -0.4737 -0.5292
21260SOL    HW164358   5.895   5.815   0.611  1.3425 -0.1911  0.6885
21260SOL    HW264359   5.799   5.698   0.607  0.9928  0.1373 -1.5945
21261SOL     OW64360   2.497   1.962   6.958 -0.8924  0.5270 -0.4049
21261SOL    HW164361   2.526   1.900   7.025 -1.2983 -0.8223 -1.4382
21261SOL    HW264362   2.534   2.046   6.986  1.5231 -0.5513 -0.0892
21262SOL     OW64363   7.558   8.155   9.798  0.5529 -0.4424 -0.0268
21262SOL    HW164364   7.526   8.227   9.853  1.9969 -1.3726  2.1802
21262SOL    HW264365   7.480   8.118   9.758 -0.3533  1.4938 -0.1826
21263SOL     OW64366   9.779   1.697   9.107  0.0123 -0.3989 -0.4476
21263SOL    HW164367   9.847   1.761   9.085 -0.5582 -0.3795 -2.3033
21263SOL    HW264368   9.705   1.751   9.134 -0.7688 -0.1301 -2.8502
21264SOL     OW64369   3.620   3.248   5.277  0.1948 -0.4756 -0.2661
21264SOL    HW164370   3.655   3.165   5.243 -1.0970 -1.2158  0.1197
21264SOL    HW264371   3.697   3.298   5.302  1.0571 -1.1193 -1.4919
21265SOL     OW64372   0.194   6.025   0.639  0.3661 -0.0687  0.0787
21265SOL    HW164373   0.187   6.059   0.549  0.2955 -1.2624 -0.3955
21265SOL    HW264374   0.118   6.061   0.684  1.5101  2.2578  0.2905
21266SOL     OW64375   6.190   0.474   7.848  0.1453  0.1113  0.2558
21266SOL    HW164376   6.156   0.409   7.787 -1.7438 -0.1812  1.5407
21266SOL    HW264377   6.119   0.538   7.857  0.7939  0.7065  1.3344
21267SOL     OW64378   7.214   0.804   6.943 -0.0119 -0.7942 -0.0872
21267SOL    HW164379   7.202   0.770   6.855  0.0034 -1.9003  0.3202
21267SOL    HW264380   7.253   0.731   6.992  1.7301  0.3886  0.3895
21268SOL     OW64381   1.008   4.074   4.971 -0.0842  0.0070 -0.1970
21268SOL    HW164382   0.952   4.110   4.903 -1.3939  0.5713  1.1122
21268SOL    HW264383   0.999   4.135   5.044  0.5067 -1.0727  0.8117
21269SOL     OW64384   2.186   7.672   3.423  0.1246 -0.0638  0.2208
21269SOL    HW164385   2.262   7.673   3.366 -0.4079  0.5550 -0.5021
21269SOL    HW264386   2.151   7.583   3.416  0.6129 -0.2646  0.3345
21270SOL     OW64387   3.253   2.552   7.423 -0.0166 -0.3775  0.2191
21270SOL    HW164388   3.272   2.580   7.333  0.7152 -0.7760  0.2419
21270SOL    HW264389   3.163   2.519   7.420 -0.1326 -0.0267 -0.2794
21271SOL     OW64390   9.363   7.928   2.391 -0.5365 -0.2463  0.1266
21271SOL    HW164391   9.390   7.908   2.481 -1.5913 -0.1162  0.4787
21271SOL    HW264392   9.340   7.842   2.354 -0.7390 -0.2212  0.1941
21272SOL     OW64393   6.926   5.141   0.919  0.4940 -0.5095 -0.2808
21272SOL    HW164394   6.867   5.101   0.855  0.3080 -0.4851 -0.1294
21272SOL    HW264395   6.888   5.116   1.004  0.4408 -0.1094 -0.1843
21273SOL     OW64396   5.231   0.586   4.492 -0.2132  0.2894  0.6202
21273SOL    HW164397   5.143   0.555   4.514 -0.7283  1.5681  0.4369
21273SOL    HW264398   5.256   0.642   4.566  0.1659  0.4743  0.3548
21274SOL     OW64399   5.465   8.278   8.229  0.1822 -0.5268  0.1316
21274SOL    HW164400   5.442   8.236   8.312 -1.9122 -0.7554 -0.4912
21274SOL    HW264401   5.421   8.224   8.162  3.2114 -1.3793 -1.3455
21275SOL     OW64402   8.181   2.211   2.809 -0.2662  0.0342  0.3267
21275SOL    HW164403   8.101   2.261   2.793 -1.0083 -0.6258  1.7548
21275SOL    HW264404   8.202   2.227   2.901  1.4705  0.4747 -0.1067
21276SOL     OW64405   8.565   9.002   7.883  0.2021  0.1136 -0.1645
21276SOL    HW164406   8.654   9.018   7.853 -0.7578  3.3398 -1.7212
21276SOL    HW264407   8.541   8.918   7.842  2.7821 -1.4352  1.2258
21277SOL     OW64408   0.366   6.344   9.386  0.0279  0.0250 -0.1648
21277SOL    HW164409   0.381   6.347   9.291  2.9192  1.2867  0.2306
21277SOL    HW264410   0.426   6.277   9.418 -1.4218 -0.8873  0.7495
21278SOL     OW64411   2.979   3.771   4.812  0.6619 -0.0566 -0.5054
21278SOL    HW164412   2.933   3.742   4.891  0.0387  0.5494 -0.6377
21278SOL    HW264413   2.939   3.855   4.791  2.3285  0.8659 -0.2014
21279SOL     OW64414   4.570   7.695   3.709 -0.2588  0.6186 -0.3581
21279SOL    HW164415   4.537   7.738   3.630 -0.7392  1.9444  0.5390
21279SOL    HW264416   4.497   7.699   3.771 -0.0220 -0.7690  0.0436
21280SOL     OW64417   6.370   9.866   6.885 -0.0837  0.0392 -0.0335
21280SOL    HW164418   6.280   9.888   6.862  0.5811  2.2635 -0.7519
21280SOL    HW264419   6.423   9.910   6.819  1.5870  0.0265  1.2398
21281SOL     OW64420   9.238   9.292   4.707  0.4420 -0.3261  0.1030
21281SOL    HW164421   9.242   9.252   4.793  0.0824  2.1167  1.3376
21281SOL    HW264422   9.325   9.327   4.692  1.2081 -2.6946 -1.6402
21282SOL     OW64423   1.934   9.607   3.474 -0.1903  0.1102  0.1839
21282SOL    HW164424   1.865   9.547   3.444 -0.9132  0.8184  0.3877
21282SOL    HW264425   1.935   9.599   3.569  1.4564 -1.4320  0.0779
21283SOL     OW64426   2.621   8.725   7.587 -0.0704 -0.7625 -0.7816
21283SOL    HW164427   2.604   8.793   7.522 -1.6247 -1.2003 -0.8710
21283SOL    HW264428   2.703   8.684   7.558  0.1498  0.1499 -1.4945
21284SOL     OW64429   3.088   5.492   6.871 -0.1600 -0.5887 -0.7137
21284SOL    HW164430   3.007   5.537   6.848 -0.5968 -0.8922  0.1735
21284SOL    HW264431   3.110   5.525   6.959  0.9546 -0.1383 -1.1379
21285SOL     OW64432   1.513   7.534   3.333 -0.0201 -0.5717  0.5125
21285SOL    HW164433   1.598   7.511   3.296 -0.3239 -2.7899  1.0062
21285SOL    HW264434   1.529   7.545   3.426 -0.4039 -2.1925  0.8118
21286SOL     OW64435   6.961   6.128   9.872  0.0993  0.0587 -0.1770
21286SOL    HW164436   6.965   6.207   9.925 -2.5409  0.3169 -0.2356
21286SOL    HW264437   6.869   6.102   9.875  0.5029 -1.7942 -1.9323
21287SOL     OW64438   8.572   3.758   7.342  0.0538  0.1100 -0.5303
21287SOL    HW164439   8.649   3.781   7.290  0.4854  0.7865  0.3898
21287SOL    HW264440   8.606   3.734   7.428 -0.5626 -2.0151 -0.8209
21288SOL     OW64441   5.256   6.049   9.611 -0.0619  0.9274 -0.3751
21288SOL    HW164442   5.246   5.990   9.686 -0.6036  0.9671 -0.4132
21288SOL    HW264443   5.294   6.129   9.649 -1.4709  1.4075  0.0843
21289SOL     OW64444   2.080   4.913   1.320 -0.3046  0.5818  0.7118
21289SOL    HW164445   2.108   4.948   1.405 -0.4314 -0.5036  1.2165
21289SOL    HW264446   2.081   4.989   1.262  0.4058  1.2231  1.5257
21290SOL     OW64447   1.237   8.188   6.723 -0.4382 -0.1596 -0.4153
21290SOL    HW164448   1.255   8.268   6.675 -2.6521  1.4631  1.2414
21290SOL    HW264449   1.160   8.151   6.680 -0.3185 -0.5945 -0.2644
21291SOL     OW64450   5.162   3.845   4.916  0.3669  0.6009 -0.0722
21291SOL    HW164451   5.172   3.866   5.009 -3.3725 -0.8246  0.8257
21291SOL    HW264452   5.224   3.773   4.901 -0.2047 -0.3816  1.8699
21292SOL     OW64453   3.222   1.390   2.548 -0.2730 -0.4341  0.3452
21292SOL    HW164454   3.158   1.449   2.589  1.3663  0.9085  1.1279
21292SOL    HW264455   3.239   1.428   2.462  1.0868  0.5290  1.0071
21293SOL     OW64456   8.076   0.426   3.891  0.4199  0.4139 -0.0757
21293SOL    HW164457   8.050   0.450   3.980 -0.0739 -0.4343  0.0140
21293SOL    HW264458   8.090   0.332   3.894 -0.1569  0.2855 -1.0406
21294SOL     OW64459   6.998   2.553   1.451  0.2564 -0.2206  0.1768
21294SOL    HW164460   7.036   2.533   1.366  1.1040 -1.1305  0.7513
21294SOL    HW264461   6.986   2.468   1.493 -0.2840  0.2021  0.9220
21295SOL     OW64462   8.101   8.121   5.760  0.2148 -0.7433  0.3644
21295SOL    HW164463   8.195   8.118   5.742  0.3702  0.6494  0.8192
21295SOL    HW264464   8.079   8.214   5.759 -1.2803 -1.0580 -0.2774
21296SOL     OW64465   6.558   1.884   9.526  0.7836  0.2547  0.3594
21296SOL    HW164466   6.513   1.825   9.587  0.3994  0.8788  0.6898
21296SOL    HW264467   6.487   1.928   9.480  1.0653 -0.5669 -0.9052
21297SOL     OW64468   1.099   2.526   9.901  0.0109 -0.4994 -0.0501
21297SOL    HW164469   1.076   2.523   9.808  1.7362 -0.5693 -0.5021
21297SOL    HW264470   1.015   2.532   9.946 -0.8235  0.9475 -1.6686
21298SOL     OW64471   5.699   0.632   1.151 -0.2517 -0.1296  0.4001
21298SOL    HW164472   5.706   0.540   1.127  1.1892 -0.0046  0.2668
21298SOL    HW264473   5.781   0.671   1.121 -1.5801  1.5963 -1.2317
21299SOL     OW64474   9.258   8.134   9.251  0.1098 -0.3838  0.0806
21299SOL    HW164475   9.242   8.086   9.170 -0.1138  0.0828 -0.1526
21299SOL    HW264476   9.178   8.183   9.267  0.8496  1.0734 -0.4819
21300SOL     OW64477   2.669   3.859   7.016  0.0857  0.4305  0.3106
21300SOL    HW164478   2.698   3.896   7.100  1.0573 -0.1194  0.2279
21300SOL    HW264479   2.697   3.923   6.951 -0.1174  0.5550  0.3419
21301SOL     OW64480   7.472   2.196   8.309 -0.2100  0.4464 -0.5174
21301SOL    HW164481   7.563   2.225   8.301 -0.0097 -0.5923 -2.6776
21301SOL    HW264482   7.430   2.228   8.229 -1.7691  0.8971  0.4515
21302SOL     OW64483   2.549   7.013   1.265 -0.4549 -0.2206 -0.1882
21302SOL    HW164484   2.628   7.053   1.229 -0.4201 -0.1366 -0.0176
21302SOL    HW264485   2.512   7.080   1.322  0.7228 -1.1248  1.7545
21303SOL     OW64486   7.292   7.875   6.701  0.6601 -0.2548 -0.3519
21303SOL    HW164487   7.199   7.878   6.679  1.1277 -0.1952 -2.5544
21303SOL    HW264488   7.328   7.957   6.666  1.8962 -1.2483 -1.5284
21304SOL     OW64489   4.560   0.202   5.345 -0.1011  0.3491  0.2030
21304SOL    HW164490   4.481   0.207   5.290 -1.3929  1.2118  2.0236
21304SOL    HW264491   4.574   0.291   5.375  0.7528 -0.0424  1.0247
21305SOL     OW64492   5.543   3.656   5.014  0.4499 -0.3688 -0.6121
21305SOL    HW164493   5.638   3.655   5.004  0.6143  0.0066  0.7215
21305SOL    HW264494   5.524   3.741   5.054 -0.5225 -0.1964 -1.3759
21306SOL     OW64495   5.752   0.370   5.093  0.5753  0.3855 -0.2685
21306SOL    HW164496   5.778   0.449   5.046 -0.0175  1.0895  0.5470
21306SOL    HW264497   5.667   0.347   5.055  1.2971 -0.5838 -1.3470
21307SOL     OW64498   9.418   6.059   7.729 -0.2524 -0.0623  0.5668
21307SOL    HW164499   9.397   6.027   7.817 -3.3144  0.3238  0.0659
21307SOL    HW264500   9.404   6.154   7.734 -0.4557 -0.0386 -0.3467
21308SOL     OW64501   4.803   8.967   0.881 -0.1513  0.2171  0.0992
21308SOL    HW164502   4.800   8.871   0.889  1.1877  0.2403  1.3283
21308SOL    HW264503   4.891   8.990   0.910 -0.2395  1.7913 -0.7931
21309SOL     OW64504   8.817   3.204   3.654 -0.0577  0.3283 -0.0361
21309SOL    HW164505   8.878   3.135   3.682  1.5545  1.3601 -0.8453
21309SOL    HW264506   8.754   3.158   3.597  0.5499 -0.6005  0.0152
21310SOL     OW64507   0.713   4.435   6.744  0.0995  0.6515 -0.6685
21310SOL    HW164508   0.787   4.495   6.756  1.3502 -0.9850  0.4695
21310SOL    HW264509   0.745   4.371   6.680 -0.0064 -0.4963  0.3845
21311SOL     OW64510   9.109   4.390   3.989 -0.6237  0.0964  0.7344
21311SOL    HW164511   9.183   4.334   4.012 -0.6812  0.4118  1.7093
21311SOL    HW264512   9.083   4.432   4.071 -2.7736 -1.0678  0.7405
21312SOL     OW64513   0.183   7.469   2.468  0.1801  0.2086 -0.0150
21312SOL    HW164514   0.232   7.427   2.538  0.7162  1.0920  0.1468
21312SOL    HW264515   0.137   7.397   2.425  3.1612 -1.0115 -1.4602
21313SOL     OW64516   0.060   5.336   5.040 -0.5192 -0.4611  0.4874
21313SOL    HW164517   0.030   5.320   4.950 -1.2240  0.6664  0.5031
21313SOL    HW264518  -0.019   5.365   5.086 -0.2477 -1.4314  1.5799
21314SOL     OW64519   1.774   4.599   2.468  0.2029  0.2916  0.5221
21314SOL    HW164520   1.778   4.621   2.375  1.4390  0.1539  0.5220
21314SOL    HW264521   1.756   4.682   2.512 -0.6725  0.3061  0.1491
21315SOL     OW64522   2.975   8.776   6.197  0.0238  0.3609  0.2419
21315SOL    HW164523   2.880   8.778   6.196 -0.0159  1.9394  1.9395
21315SOL    HW264524   3.000   8.843   6.260  2.3005  0.8071 -1.0184
21316SOL     OW64525   9.731   8.801   9.117  0.3529 -0.0472  0.5385
21316SOL    HW164526   9.698   8.750   9.191 -0.7945 -0.4207 -0.2009
21316SOL    HW264527   9.672   8.876   9.111 -0.4951 -0.7761 -0.8699
21317SOL     OW64528   7.839   8.479   5.704  0.2526 -0.0660 -0.1397
21317SOL    HW164529   7.931   8.493   5.726  0.0942 -0.8645  1.1581
21317SOL    HW264530   7.839   8.466   5.609  1.2141  1.8253 -0.4439
21318SOL     OW64531   6.380   9.561   6.294  0.3220  0.5668  0.5458
21318SOL    HW164532   6.430   9.550   6.375 -0.1418 -0.4305  0.7164
21318SOL    HW264533   6.446   9.562   6.225  0.5853 -1.3817  0.7157
21319SOL     OW64534   1.141   7.156   9.691 -0.1276 -0.5320 -0.2625
21319SOL    HW164535   1.137   7.186   9.782  2.0066 -0.1745 -0.2308
21319SOL    HW264536   1.185   7.071   9.695 -1.0594 -1.0615 -0.8793
21320SOL     OW64537   0.639   6.130   3.566 -0.7087 -0.1188  0.0477
21320SOL    HW164538   0.577   6.095   3.502 -0.0863 -1.9179  0.3818
21320SOL    HW264539   0.591   6.199   3.611 -1.5958  0.2819 -1.4505
21321SOL     OW64540   2.150   6.485   8.625  0.6411  0.5051  0.1459
21321SOL    HW164541   2.067   6.452   8.591  1.1572  1.0278 -1.7744
21321SOL    HW264542   2.204   6.407   8.638  0.3874  0.2741 -0.1818
21322SOL     OW64543   7.015   2.594   5.714 -0.0000 -0.3545 -0.3304
21322SOL    HW164544   7.061   2.596   5.797  1.7856 -1.5684 -1.2447
21322SOL    HW264545   6.965   2.513   5.715 -0.7255  0.0851 -0.0806
21323SOL     OW64546   3.218   3.864   6.907  0.4284  0.1688 -0.0289
21323SOL    HW164547   3.302   3.836   6.943 -0.4357 -1.5210  0.7618
21323SOL    HW264548   3.166   3.887   6.983 -0.4961 -0.7546 -0.3630
21324SOL     OW64549   7.429   5.020   6.921 -0.1429 -0.0913 -0.0782
21324SOL    HW164550   7.472   4.935   6.934  0.2934 -0.0113 -0.9392
21324SOL    HW264551   7.391   5.041   7.006 -0.3388 -1.1975  0.1208
21325SOL     OW64552   1.338   0.189   9.589  0.5926 -0.5079  0.0937
21325SOL    HW164553   1.310   0.272   9.627 -2.4468 -1.2629 -0.2562
21325SOL    HW264554   1.358   0.134   9.665  0.2524 -0.2071  0.4076
21326SOL     OW64555   1.196   1.574   9.155  0.7314 -0.1530  0.1044
21326SOL    HW164556   1.166   1.483   9.163 -0.0437 -0.0723 -1.3840
21326SOL    HW264557   1.250   1.574   9.076 -0.3621  0.9120 -0.6846
21327SOL     OW64558   0.996   6.933   7.153 -0.3393  0.2425  0.6787
21327SOL    HW164559   0.945   6.908   7.230 -1.1296 -0.7740 -0.1207
21327SOL    HW264560   0.984   6.859   7.093 -1.0342  1.6581 -1.0131
21328SOL     OW64561   3.668   8.192   3.834 -0.2804 -0.0550 -0.1523
21328SOL    HW164562   3.748   8.184   3.781 -0.7418  1.5085 -1.1391
21328SOL    HW264563   3.629   8.105   3.830  0.6470 -0.4681 -0.8448
21329SOL     OW64564   1.031   3.496   8.141 -0.1530 -0.4209  0.8415
21329SOL    HW164565   1.029   3.565   8.207  1.4157  1.7870 -1.2560
21329SOL    HW264566   1.115   3.451   8.156  0.6525  0.6993 -0.1806
21330SOL     OW64567   7.047   0.300   4.524  0.1409 -0.2420  0.2228
21330SOL    HW164568   7.091   0.372   4.569  2.2277 -0.2600 -1.6348
21330SOL    HW264569   6.960   0.296   4.565  0.9548  1.4528  2.3148
21331SOL     OW64570   9.002   8.226   2.780 -0.8219  0.1414 -0.1786
21331SOL    HW164571   9.091   8.221   2.815 -1.1706 -0.6504  0.6505
21331SOL    HW264572   8.988   8.319   2.764 -0.1499  0.3780  0.5202
21332SOL     OW64573   6.183   8.033   2.512  0.0130  0.4532 -0.2720
21332SOL    HW164574   6.102   8.023   2.461 -0.4867 -0.1585  0.6054
21332SOL    HW264575   6.250   7.992   2.458 -0.5065 -0.1954 -0.4463
21333SOL     OW64576   3.630   7.287   1.675 -0.3621 -0.2766  0.0992
21333SOL    HW164577   3.608   7.238   1.596  1.3300 -0.4381 -0.3118
21333SOL    HW264578   3.560   7.351   1.684 -0.8999 -0.6519 -1.1897
21334SOL     OW64579   6.848   3.444   1.805 -0.0615  0.3978 -0.0005
21334SOL    HW164580   6.866   3.377   1.740 -1.0200  0.4761 -0.3642
21334SOL    HW264581   6.799   3.511   1.757 -0.4308  0.6401  0.7039
21335SOL     OW64582   0.197   2.739   0.997 -0.0148  0.3532 -0.4764
21335SOL    HW164583   0.180   2.833   1.000  0.2518  0.3737  1.0864
21335SOL    HW264584   0.268   2.729   0.933  2.7944  1.7270  2.1607
21336SOL     OW64585   3.252   6.632   2.255 -0.4075 -0.1534  0.1910
21336SOL    HW164586   3.186   6.630   2.325  0.1062 -0.0814  0.6834
21336SOL    HW264587   3.321   6.689   2.289  0.4624 -1.1665  0.1720
21337SOL     OW64588   1.614   4.459   8.177 -0.1081  0.0011 -0.0292
21337SOL    HW164589   1.646   4.369   8.167 -2.6342 -1.0934  1.0268
21337SOL    HW264590   1.692   4.510   8.199  1.9954 -1.2636 -3.5821
21338SOL     OW64591   5.963   8.284   0.338  0.5188 -0.3519 -0.5692
21338SOL    HW164592   6.024   8.348   0.300  1.7641 -1.3824 -0.3611
21338SOL    HW264593   5.972   8.295   0.432 -0.7075  0.4656 -0.5221
21339SOL     OW64594   6.223   7.591   7.849 -0.7204  0.4190  0.2602
21339SOL    HW164595   6.213   7.527   7.920 -4.0284  0.2667 -0.1753
21339SOL    HW264596   6.249   7.539   7.773 -2.3580 -0.3121  0.1605
21340SOL     OW64597   6.329   8.995   7.874  0.4034  0.2856  0.2418
21340SOL    HW164598   6.276   8.929   7.830  0.1329  0.2139  0.6720
21340SOL    HW264599   6.406   8.947   7.905  0.4541  0.2775  0.1046
21341SOL     OW64600   3.117   1.251   9.124 -0.0171  0.0768 -0.5592
21341SOL    HW164601   3.192   1.279   9.176 -0.6434 -0.8534  0.8950
21341SOL    HW264602   3.089   1.169   9.165 -1.8411  0.4162 -1.0731
21342SOL     OW64603   1.113   8.395   7.723  0.2858 -0.2659  0.4193
21342SOL    HW164604   1.077   8.470   7.771  1.1568  0.8780 -0.6528
21342SOL    HW264605   1.067   8.396   7.639  0.7254 -0.5729  0.1715
21343SOL     OW64606   6.118   5.090   3.941  0.4193 -0.2156 -0.1867
21343SOL    HW164607   6.069   5.107   4.022  1.7992 -0.0442  0.6610
21343SOL    HW264608   6.176   5.018   3.964  0.5395 -0.4442 -1.1718
21344SOL     OW64609   6.738   6.505   9.252  0.6052 -0.4267 -0.5841
21344SOL    HW164610   6.741   6.497   9.347  0.9119 -0.6940 -0.6161
21344SOL    HW264611   6.667   6.447   9.225  0.1882  0.0323 -0.4753
21345SOL     OW64612   3.539   9.715   2.756  0.2491  0.1921  0.2301
21345SOL    HW164613   3.600   9.729   2.829  0.1409  0.1931  0.3208
21345SOL    HW264614   3.580   9.758   2.681 -1.1612  3.1784  1.0102
21346SOL     OW64615   4.327   8.075   3.622 -0.2848  1.2543 -0.3965
21346SOL    HW164616   4.376   8.065   3.703 -0.9783 -0.5374 -0.1484
21346SOL    HW264617   4.261   8.141   3.642 -0.6446  0.6083  0.6187
21347SOL     OW64618   6.610   5.663   9.513 -0.0192 -0.1748 -0.0697
21347SOL    HW164619   6.559   5.681   9.592 -0.0492 -1.2167  0.1679
21347SOL    HW264620   6.646   5.576   9.528 -0.0728 -0.4106 -1.2366
21348SOL     OW64621   9.133   5.134   4.066  0.4748 -0.3457  0.0078
21348SOL    HW164622   9.069   5.138   3.996 -1.4741 -0.0372  1.7226
21348SOL    HW264623   9.216   5.113   4.022 -0.6661 -0.1927 -2.3342
21349SOL     OW64624   3.390   3.314   5.936  0.4457  0.6053  0.3227
21349SOL    HW164625   3.473   3.358   5.923  0.1525  0.8011 -0.9993
21349SOL    HW264626   3.407   3.251   6.007  1.2537  1.7868  1.2091
21350SOL     OW64627   6.655   8.227   9.827  0.6446  0.3490 -0.0245
21350SOL    HW164628   6.672   8.196   9.917  0.1862  1.2901  0.3945
21350SOL    HW264629   6.739   8.216   9.782  0.5897 -1.1684  0.1979
21351SOL     OW64630   3.893   2.461   0.460 -0.2671  0.3068  0.2300
21351SOL    HW164631   3.924   2.447   0.370 -0.7799 -0.9435  0.2250
21351SOL    HW264632   3.909   2.554   0.476 -0.6323  0.6768 -1.3289
21352SOL     OW64633   9.835   9.886   7.799 -0.3629  0.1647 -0.0390
21352SOL    HW164634   9.861   9.796   7.780 -0.9215 -0.0799  0.3263
21352SOL    HW264635   9.875   9.938   7.729 -1.5082 -0.5787 -1.2955
21353SOL     OW64636   1.098   4.703   0.893  0.1198 -0.2420 -0.1517
21353SOL    HW164637   1.121   4.610   0.903  0.5025 -0.2085 -0.7398
21353SOL    HW264638   1.007   4.702   0.863  0.4439 -0.4560 -1.1476
21354SOL     OW64639   1.843   2.278   8.435 -0.0303  0.3291 -0.6733
21354SOL    HW164640   1.760   2.237   8.409  0.5364 -0.5370 -1.1746
21354SOL    HW264641   1.910   2.227   8.390  0.8856  0.0304  0.9659
21355SOL     OW64642   0.029   2.525   8.706 -0.4626 -0.2143 -0.4251
21355SOL    HW164643   0.024   2.483   8.620  0.8629 -0.4852 -0.3974
21355SOL    HW264644  -0.044   2.586   8.707  0.1620  0.6396 -2.2292
21356SOL     OW64645   6.520   5.760   4.603 -0.3440  0.1371 -0.0267
21356SOL    HW164646   6.567   5.751   4.686 -1.6358  1.6213  0.9143
21356SOL    HW264647   6.579   5.721   4.538  1.6530  0.8435  1.2596
21357SOL     OW64648   8.480   2.985   0.207  0.2905 -0.4453  0.7479
21357SOL    HW164649   8.436   2.972   0.292 -0.1378  0.2188  0.6302
21357SOL    HW264650   8.424   3.046   0.160  0.5451 -0.7828 -0.0104
21358SOL     OW64651   8.198   9.278   8.157  0.1845  0.4643 -0.3942
21358SOL    HW164652   8.188   9.210   8.224  0.0991 -0.6720 -1.5082
21358SOL    HW264653   8.267   9.244   8.099  1.5961  2.2832  0.1274
21359SOL     OW64654   2.519   2.246   2.412 -0.4072 -0.0609  0.3353
21359SOL    HW164655   2.556   2.325   2.450  1.1852 -1.2732  1.4417
21359SOL    HW264656   2.584   2.216   2.349 -1.5687  0.1633 -1.0241
21360SOL     OW64657   1.000   0.037   0.492  0.5770 -0.2634 -0.0508
21360SOL    HW164658   1.070   0.062   0.433  0.1870 -2.0919 -1.3797
21360SOL    HW264659   0.972   0.119   0.532  1.5772  0.8875 -1.5881
21361SOL     OW64660   4.751   1.063   5.268 -0.1642 -0.0218 -0.8363
21361SOL    HW164661   4.682   1.128   5.258 -0.4158 -0.1220  0.1512
21361SOL    HW264662   4.811   1.080   5.196  0.0203  1.6268 -0.3248
21362SOL     OW64663   4.064   9.190   1.829  0.0140 -0.1469 -0.6435
21362SOL    HW164664   4.009   9.162   1.902  0.1682 -0.5329 -0.6720
21362SOL    HW264665   4.154   9.176   1.861  0.1701  2.0200  0.0355
21363SOL     OW64666   5.183   5.509   0.335  0.4208 -0.3020 -0.2682
21363SOL    HW164667   5.161   5.424   0.297 -0.0049  0.4276 -1.7473
21363SOL    HW264668   5.272   5.498   0.369 -0.3141 -1.8697  1.3361
21364SOL     OW64669   2.009   8.505   5.757  0.0029 -0.3688  0.1896
21364SOL    HW164670   1.963   8.505   5.674 -1.2485 -0.2458  0.8671
21364SOL    HW264671   2.045   8.594   5.765  2.2485 -1.0399 -1.3124
21365SOL     OW64672   4.315   0.505   1.565  0.4799 -0.2710 -0.0727
21365SOL    HW164673   4.394   0.459   1.537 -0.3910 -1.4708 -0.6506
21365SOL    HW264674   4.263   0.515   1.485  0.1037  0.6419  0.2711
21366SOL     OW64675   4.152   9.106   4.274 -0.3747 -0.4971  0.4524
21366SOL    HW164676   4.218   9.147   4.331 -0.0892 -2.9870  2.1002
21366SOL    HW264677   4.184   9.122   4.185  1.3178  0.1819  1.1234
21367SOL     OW64678   3.766   7.091   7.354  0.3014 -0.3242  0.2855
21367SOL    HW164679   3.808   7.079   7.439  1.3750  1.7822  0.1205
21367SOL    HW264680   3.692   7.150   7.372  0.2460 -0.2518 -0.1740
21368SOL     OW64681   0.088   3.163   6.073 -0.5678 -0.2097 -0.3370
21368SOL    HW164682   0.169   3.144   6.026 -0.9568  0.5304 -1.3413
21368SOL    HW264683   0.117   3.199   6.157  0.1782  1.5771 -1.3055
21369SOL     OW64684   6.414   6.064   9.692 -1.2276  0.3614 -0.4563
21369SOL    HW164685   6.341   6.106   9.737  1.2254  1.4768  2.8776
21369SOL    HW264686   6.373   5.998   9.636 -4.7232 -1.2022  3.4308
21370SOL     OW64687   1.925   0.891   3.438  0.0882 -0.2579 -0.0435
21370SOL    HW164688   1.925   0.888   3.534 -0.1841  0.9185  0.0120
21370SOL    HW264689   1.897   0.803   3.411 -0.8861 -0.2905  0.9888
21371SOL     OW64690   3.381   4.583   8.363  0.1469  0.1892  0.7375
21371SOL    HW164691   3.378   4.677   8.343 -1.3494  0.2147  0.9727
21371SOL    HW264692   3.376   4.540   8.278  0.7310  0.3082  0.6361
21372SOL     OW64693   1.963   9.968   8.936  0.3440  0.5298  0.0754
21372SOL    HW164694   2.015   9.992   8.859  0.1469  0.8574  0.0423
21372SOL    HW264695   1.873   9.961   8.902  0.7997 -4.6238 -0.9818
21373SOL     OW64696   5.941   2.397   8.755 -0.0046  0.6124 -0.1678
21373SOL    HW164697   6.011   2.340   8.788  2.3639  3.0952 -0.5550
21373SOL    HW264698   5.925   2.367   8.666  0.7424  0.1264 -0.1486
21374SOL     OW64699   6.645   6.385   2.622 -0.2506 -0.7554 -0.1173
21374SOL    HW164700   6.703   6.430   2.683  0.7587  0.6687 -2.0018
21374SOL    HW264701   6.559   6.425   2.635  0.2625  0.5460 -0.5672
21375SOL     OW64702   9.459   5.539   7.871 -0.0309 -0.0195  0.2225
21375SOL    HW164703   9.388   5.597   7.844  1.3297  1.4481 -0.3041
21375SOL    HW264704   9.538   5.590   7.860  1.4241 -2.4859 -1.8815
21376SOL     OW64705   4.371   4.404   4.426  0.5201  0.3847  0.6805
21376SOL    HW164706   4.426   4.356   4.487  0.7175 -0.0324  0.1757
21376SOL    HW264707   4.424   4.411   4.346 -0.6631 -1.2190 -0.2901
21377SOL     OW64708   4.393   5.592   1.363 -0.2662 -0.0329  0.0303
21377SOL    HW164709   4.388   5.647   1.442 -0.4498  0.9688 -0.6586
21377SOL    HW264710   4.306   5.554   1.355 -0.9253  1.5601 -0.8466
21378SOL     OW64711   1.713   4.359   0.522  0.9652 -0.5289 -0.1893
21378SOL    HW164712   1.801   4.376   0.489  1.2040 -0.2887  0.5602
21378SOL    HW264713   1.704   4.264   0.517  1.3415 -0.5731 -0.0815
21379SOL     OW64714   2.236   7.374   2.610  0.0076  0.6118 -0.0730
21379SOL    HW164715   2.256   7.441   2.544 -0.4327  1.4912  0.6577
21379SOL    HW264716   2.290   7.399   2.686  0.8914 -0.6722 -0.2467
21380SOL     OW64717   8.554   1.960   9.791  0.7742  0.6217  0.3530
21380SOL    HW164718   8.546   1.977   9.885 -2.0713 -1.9612  0.7238
21380SOL    HW264719   8.482   2.010   9.752  0.0535 -0.6954 -0.0391
21381SOL     OW64720   2.859   9.807   0.659  0.2047  0.2263 -0.5076
21381SOL    HW164721   2.814   9.816   0.743  1.8500  1.8993  0.2664
21381SOL    HW264722   2.809   9.863   0.599 -1.0496 -1.0712 -0.7227
21382SOL     OW64723   3.832   6.326   7.841 -0.1386 -0.3502 -0.6995
21382SOL    HW164724   3.915   6.280   7.847  0.8340  1.0238 -2.4828
21382SOL    HW264725   3.785   6.303   7.921  2.0697 -0.9445  0.4924
21383SOL     OW64726   5.854   2.509   8.095  0.8263 -0.3935  0.5769
21383SOL    HW164727   5.803   2.439   8.136  1.3671 -0.0050  1.9591
21383SOL    HW264728   5.928   2.464   8.054  0.4450 -0.7579  0.2761
21384SOL     OW64729   0.653   4.562   3.970 -0.2191  0.1937  0.2758
21384SOL    HW164730   0.607   4.508   3.906  2.1503 -1.3561 -0.2344
21384SOL    HW264731   0.622   4.531   4.055  0.1115 -1.0803 -0.0485
21385SOL     OW64732   5.189   9.064   5.440 -0.2991  0.0851 -0.2471
21385SOL    HW164733   5.161   8.978   5.472  0.1213 -0.4451 -1.2650
21385SOL    HW264734   5.124   9.087   5.374 -1.1735  1.1822  0.9387
21386SOL     OW64735   4.954   7.345   1.043  0.9948 -0.3096 -0.0932
21386SOL    HW164736   4.953   7.291   1.123  1.7355 -1.0376 -0.5697
21386SOL    HW264737   4.918   7.429   1.072 -2.2084 -1.6292  0.2447
21387SOL     OW64738   6.106   9.675   9.536 -0.0797 -0.4669 -0.4146
21387SOL    HW164739   6.031   9.679   9.596  0.3625  0.8099  0.1071
21387SOL    HW264740   6.177   9.715   9.586  0.8198 -1.2009 -1.0919
21388SOL     OW64741   3.162   6.687   8.023  0.1147  0.2926  0.2914
21388SOL    HW164742   3.152   6.685   7.928  0.1558 -0.0712  0.2936
21388SOL    HW264743   3.080   6.724   8.055 -0.3564 -0.6142  0.1793
21389SOL     OW64744   6.650   5.694   1.058 -0.6282  0.2546  0.3798
21389SOL    HW164745   6.676   5.675   1.148 -1.5543 -1.5560  0.3092
21389SOL    HW264746   6.558   5.720   1.064 -0.5890  0.5076 -0.0226
21390SOL     OW64747   2.421   7.837   3.930 -0.3752  0.0993 -0.0536
21390SOL    HW164748   2.358   7.775   3.891  0.6662 -1.0706  0.0562
21390SOL    HW264749   2.504   7.791   3.927  0.5421  1.7085 -0.3813
21391SOL     OW64750   4.631   4.363   2.443  0.2515 -0.5242 -0.0753
21391SOL    HW164751   4.560   4.426   2.457  0.6364  0.5279 -2.4407
21391SOL    HW264752   4.607   4.288   2.498 -1.8979  0.3882  0.3397
21392SOL     OW64753   0.995   6.474   5.528 -0.5675  0.6170  0.3151
21392SOL    HW164754   1.075   6.423   5.535 -0.7052  0.4894  1.0615
21392SOL    HW264755   1.011   6.552   5.581 -1.2061  0.2227  1.1224
21393SOL     OW64756   6.940   7.749   8.468  0.5932 -0.2208  0.6129
21393SOL    HW164757   6.999   7.820   8.442 -0.5838  0.1379 -1.3236
21393SOL    HW264758   6.871   7.750   8.401 -2.4620  0.3643  3.5062
21394SOL     OW64759   0.918   4.230   5.169  0.4299 -0.4279  0.5494
21394SOL    HW164760   0.828   4.197   5.164  0.3071 -0.0497 -3.9269
21394SOL    HW264761   0.909   4.323   5.189 -0.8710  0.8186 -4.3705
21395SOL     OW64762   7.058   1.830   1.898  0.3693 -0.8733  0.0844
21395SOL    HW164763   7.125   1.824   1.830  1.9101 -0.9000  1.5254
21395SOL    HW264764   7.089   1.770   1.967 -0.5744 -0.0803  1.2368
21396SOL     OW64765   3.799   5.407   9.010 -0.1184  0.2919 -0.0939
21396SOL    HW164766   3.774   5.497   8.990 -0.4644 -0.1225 -1.6891
21396SOL    HW264767   3.882   5.416   9.057 -0.2406  1.4441 -0.0564
21397SOL     OW64768   2.598   7.942   7.527 -0.2246  0.2512  0.4846
21397SOL    HW164769   2.551   7.984   7.599  0.1921  0.7284  0.4903
21397SOL    HW264770   2.561   7.982   7.448 -1.1509 -0.7557  0.3852
21398SOL     OW64771   2.045   8.418   2.345 -0.0937  0.1096 -0.4252
21398SOL    HW164772   2.131   8.452   2.320 -0.7446  2.0678 -0.1187
21398SOL    HW264773   1.995   8.495   2.370 -1.7935 -1.0555 -0.0999
21399SOL     OW64774   6.184   6.733   1.179 -0.4406 -0.6001  0.7582
21399SOL    HW164775   6.277   6.719   1.194 -0.1813  0.6788  0.4129
21399SOL    HW264776   6.148   6.747   1.266 -0.2307 -0.6057  0.8473
21400SOL     OW64777   4.693   3.684   4.212  0.2828 -0.0931  0.2965
21400SOL    HW164778   4.668   3.750   4.146  1.1554 -0.0712 -0.0221
21400SOL    HW264779   4.631   3.698   4.283 -0.3886  0.1939 -0.3255
21401SOL     OW64780   3.422   4.483   9.854 -0.2064 -0.2984  0.1890
21401SOL    HW164781   3.348   4.518   9.904  0.2477  0.8004  0.1116
21401SOL    HW264782   3.389   4.400   9.819 -1.5279  0.3145 -0.1205
21402SOL     OW64783   0.202   8.445   4.943  0.0508  0.1902 -0.3430
21402SOL    HW164784   0.160   8.492   4.871 -0.0128  0.5259 -0.0892
21402SOL    HW264785   0.197   8.505   5.018 -1.5387 -0.8461  0.4436
21403SOL     OW64786   0.056   3.429   5.121  0.3496  0.0584  0.2218
21403SOL    HW164787   0.037   3.454   5.211  0.1217  2.2866 -0.3936
21403SOL    HW264788  -0.025   3.387   5.091  0.3389 -0.4737  0.9568
21404SOL     OW64789   7.608   5.756   6.820 -0.0589  0.2432 -0.8265
21404SOL    HW164790   7.678   5.699   6.788 -0.4473  0.0114 -1.2727
21404SOL    HW264791   7.633   5.843   6.789  1.3659  0.6278  1.1944
21405SOL     OW64792   4.529   4.070   8.548 -0.2162 -0.4042 -0.0179
21405SOL    HW164793   4.622   4.053   8.567  0.7079  1.3510 -2.4139
21405SOL    HW264794   4.521   4.059   8.453 -2.6446 -1.1488  0.2151
21406SOL     OW64795   0.669   2.709   9.616 -0.4016  0.9821  0.5858
21406SOL    HW164796   0.594   2.654   9.639  0.5127 -1.0573 -1.0102
21406SOL    HW264797   0.655   2.730   9.523  1.8681 -1.0250 -0.2910
21407SOL     OW64798   8.115   2.275   0.060 -0.1784  0.0554  0.2712
21407SOL    HW164799   8.082   2.193   0.024 -0.6716 -0.1946  1.2534
21407SOL    HW264800   8.209   2.261   0.071 -0.3834 -0.6728  1.1726
21408SOL     OW64801   6.007   3.829   4.860  0.3989  0.0365 -0.0004
21408SOL    HW164802   5.941   3.887   4.898 -0.2879 -0.3884 -0.5305
21408SOL    HW264803   5.963   3.745   4.852 -0.1343  0.5024 -3.3774
21409SOL     OW64804   0.695   1.180   0.235  0.2315  0.3169  0.1907
21409SOL    HW164805   0.731   1.189   0.147 -1.7260 -1.7141 -0.9120
21409SOL    HW264806   0.764   1.134   0.284  0.8718  0.4212 -0.5913
21410SOL     OW64807   0.811   9.033   2.633  0.1044 -0.1022 -0.4618
21410SOL    HW164808   0.895   9.025   2.587 -0.6879  2.1374 -2.4801
21410SOL    HW264809   0.828   9.095   2.704  0.6674 -1.5370  0.7351
21411SOL     OW64810   9.629   8.906   9.511  0.1845 -0.1075 -0.3905
21411SOL    HW164811   9.560   8.842   9.532  0.7885 -0.8130 -0.5133
21411SOL    HW264812   9.656   8.940   9.596  0.5624 -0.7687 -0.2389
21412SOL     OW64813   3.750   4.436   2.985  0.6095 -0.3488 -0.4238
21412SOL    HW164814   3.841   4.456   2.961  1.3035  0.0161  2.1296
21412SOL    HW264815   3.698   4.501   2.938  1.8807  0.7063 -0.4528
21413SOL     OW64816   5.621   8.080   5.763  0.3425 -0.1246  0.1509
21413SOL    HW164817   5.532   8.053   5.784 -0.0043  0.6441 -0.3259
21413SOL    HW264818   5.630   8.062   5.669  0.5526  0.1894  0.1116
21414SOL     OW64819   0.554   0.031   1.635 -0.5433 -0.0735 -0.6949
21414SOL    HW164820   0.609  -0.047   1.633  0.4897  0.5879  0.5927
21414SOL    HW264821   0.611   0.100   1.670 -2.3558  0.4596  1.4260
21415SOL     OW64822   2.559   6.926   8.245 -0.0114 -0.2517 -0.2575
21415SOL    HW164823   2.464   6.933   8.240 -0.3142 -1.9197  1.9342
21415SOL    HW264824   2.578   6.835   8.221  0.9914 -0.0456 -0.2908
21416SOL     OW64825   6.629   7.886   6.527 -0.0838  0.3472 -0.9137
21416SOL    HW164826   6.688   7.923   6.461  0.1141  1.1494 -0.2984
21416SOL    HW264827   6.555   7.852   6.476  0.1360  0.8197 -1.5609
21417SOL     OW64828   0.025   3.673   6.820 -0.1401 -0.5981 -0.2312
21417SOL    HW164829  -0.035   3.615   6.867  1.3623 -0.0480  2.5944
21417SOL    HW264830   0.107   3.624   6.815  0.4548  0.3424  0.0411
21418SOL     OW64831   5.266   6.697   9.121 -0.3291  0.3373 -0.1672
21418SOL    HW164832   5.345   6.699   9.067  0.1061  2.4071  0.4443
21418SOL    HW264833   5.237   6.788   9.123 -1.8431 -0.1380  0.9188
21419SOL     OW64834   4.721   1.377   0.224  0.5712 -0.6393 -0.1229
21419SOL    HW164835   4.720   1.341   0.135  1.8894 -0.0108 -0.4152
21419SOL    HW264836   4.641   1.343   0.264 -0.1572 -0.7853 -1.6071
21420SOL     OW64837   1.425   8.148   5.693  0.1310  0.2073 -0.9524
21420SOL    HW164838   1.345   8.099   5.711 -0.8437  1.9031 -0.4695
21420SOL    HW264839   1.404   8.201   5.616  1.0853  0.0569 -1.3358
21421SOL     OW64840   5.462   7.976   0.278 -0.2976 -0.0262 -0.0208
21421SOL    HW164841   5.534   7.976   0.215  0.3662 -0.2004  0.7330
21421SOL    HW264842   5.484   7.906   0.340 -1.5422 -0.6550 -0.2623
21422SOL     OW64843   1.837   5.322   6.499  0.5795  0.4933  0.0765
21422SOL    HW164844   1.801   5.379   6.431  1.0470  2.2971  1.2681
21422SOL    HW264845   1.781   5.339   6.576  2.3865  1.4841  1.2480
21423SOL     OW64846   2.410   5.885   6.515  0.7397 -0.5031  0.1303
21423SOL    HW164847   2.368   5.948   6.457  2.4109  0.2751 -0.2960
21423SOL    HW264848   2.504   5.906   6.510  1.3101 -2.7065  0.3523
21424SOL     OW64849   4.336   3.854   2.819  0.6821 -0.6274 -0.0060
21424SOL    HW164850   4.322   3.934   2.768 -0.3471  0.3223  1.6558
21424SOL    HW264851   4.313   3.783   2.759  0.1043  0.3972 -1.0538
21425SOL     OW64852   8.086   8.392   5.861 -0.3136  0.3748  0.0975
21425SOL    HW164853   8.155   8.416   5.923 -0.6407 -0.1340  0.6632
21425SOL    HW264854   8.113   8.432   5.778  1.8100 -1.6700 -0.2806
21426SOL     OW64855   3.255   5.739   3.489 -0.1819  0.5388 -0.4478
21426SOL    HW164856   3.271   5.806   3.555 -0.1459  1.9028 -1.7757
21426SOL    HW264857   3.329   5.746   3.429  0.7463 -1.9267  0.2915
21427SOL     OW64858   2.188   0.266   2.845 -0.1702 -1.3291 -0.0564
21427SOL    HW164859   2.120   0.271   2.778  0.5477 -0.7166 -0.7520
21427SOL    HW264860   2.140   0.278   2.928 -0.6591  1.6868 -0.6629
21428SOL     OW64861   0.968   7.815   8.974 -0.0015  0.2295 -0.3889
21428SOL    HW164862   0.883   7.782   8.946 -1.0066  1.8028  0.6546
21428SOL    HW264863   1.029   7.784   8.907 -1.7158  0.8022 -2.3169
21429SOL     OW64864   2.271   0.415   3.326  0.3176 -0.3637 -0.0190
21429SOL    HW164865   2.299   0.335   3.282 -0.6395 -0.7349  0.0198
21429SOL    HW264866   2.322   0.417   3.407  2.5924  0.6733 -1.3798
21430SOL     OW64867   8.272   2.585   9.006 -0.0974 -0.0357 -0.1047
21430SOL    HW164868   8.270   2.635   8.925 -0.0722 -1.1910 -0.8317
21430SOL    HW264869   8.346   2.622   9.055  0.1952  0.3404 -0.8163
21431SOL     OW64870   9.115   6.909   2.937 -0.0796 -0.3065  0.2100
21431SOL    HW164871   9.043   6.901   2.875  0.8985  2.2288 -1.4369
21431SOL    HW264872   9.171   6.833   2.920 -1.9244 -1.9562  1.0720
21432SOL     OW64873   7.987   5.626   8.442  0.4808  0.3965 -0.0765
21432SOL    HW164874   7.987   5.548   8.498 -3.7690  0.9622  1.0387
21432SOL    HW264875   7.998   5.592   8.353 -1.7376 -1.6289  0.3318
21433SOL     OW64876   7.734   9.679   2.631  0.1538 -1.0518 -0.3332
21433SOL    HW164877   7.720   9.651   2.722  1.0405 -0.7507 -0.0846
21433SOL    HW264878   7.817   9.728   2.635 -1.2752  1.5557 -0.7614
21434SOL     OW64879   6.100   5.465   1.330  0.5647  0.7459 -0.3015
21434SOL    HW164880   6.143   5.420   1.403  0.6211  1.8098  0.3503
21434SOL    HW264881   6.031   5.517   1.372 -0.3553  0.2481 -1.1699
21435SOL     OW64882   0.412   9.709   5.705 -0.0044  0.6849  0.3299
21435SOL    HW164883   0.499   9.733   5.737 -0.7840  2.7031  1.0912
21435SOL    HW264884   0.389   9.779   5.643 -1.1900  0.3222  0.3384
21436SOL     OW64885   8.911   2.048   5.069  0.0972 -0.2510  0.5060
21436SOL    HW164886   8.849   2.031   5.140 -0.0504 -1.4054  0.1143
21436SOL    HW264887   8.989   1.997   5.093 -0.8522 -2.7722 -1.3814
21437SOL     OW64888   4.126   4.579   6.902 -0.0279 -0.4064  0.1697
21437SOL    HW164889   4.175   4.618   6.973 -3.4946  0.9880  2.0362
21437SOL    HW264890   4.073   4.650   6.866 -0.3975 -1.6644 -2.0054
21438SOL     OW64891   0.891   7.823   0.707 -0.1819 -0.0438  0.1540
21438SOL    HW164892   0.833   7.825   0.631  0.0151 -0.9505 -0.0414
21438SOL    HW264893   0.968   7.774   0.677  1.2348  2.1077  0.0436
21439SOL     OW64894   6.293   6.813   7.396  0.4779  0.2099  0.0731
21439SOL    HW164895   6.344   6.732   7.399  0.8750  0.4650  0.6672
21439SOL    HW264896   6.346   6.873   7.343 -0.5088 -0.3559 -1.6057
21440SOL     OW64897   6.091   1.494   1.546  0.2468 -0.3205  0.2247
21440SOL    HW164898   6.079   1.399   1.534 -1.2955  0.1498 -2.7254
21440SOL    HW264899   6.003   1.528   1.558  0.5173  0.9712 -1.1823
21441SOL     OW64900   6.243   2.700   6.079 -0.0359 -0.4333 -0.0745
21441SOL    HW164901   6.279   2.612   6.071  0.5517 -0.1553 -0.5306
21441SOL    HW264902   6.194   2.713   5.998 -0.8827 -0.6737  0.3843
21442SOL     OW64903   3.335   1.765   4.553  0.1497 -0.1457 -0.0225
21442SOL    HW164904   3.363   1.682   4.592  0.4301 -0.6418 -1.2455
21442SOL    HW264905   3.313   1.820   4.629  1.1542 -0.9008  0.8556
21443SOL     OW64906   9.255   1.685   5.793 -0.4279 -0.1057  0.0095
21443SOL    HW164907   9.247   1.776   5.824  1.2582  0.2881 -0.6290
21443SOL    HW264908   9.240   1.691   5.699 -0.6902 -0.5636  0.0193
21444SOL     OW64909   0.288   4.308   8.644  0.4536  0.0056 -0.0754
21444SOL    HW164910   0.339   4.353   8.711 -0.3408  0.3776  0.3000
21444SOL    HW264911   0.309   4.354   8.562  2.3748 -1.2279 -0.3342
21445SOL     OW64912   1.641   9.614   2.178  0.4007  0.4028 -0.6098
21445SOL    HW164913   1.560   9.599   2.227  1.2565 -0.4926  0.5839
21445SOL    HW264914   1.633   9.559   2.100  1.2335 -2.4200  1.1498
21446SOL     OW64915   1.458   5.362   2.512  0.1334 -0.0326  0.0318
21446SOL    HW164916   1.401   5.344   2.437 -0.3516 -0.0010  0.3937
21446SOL    HW264917   1.513   5.284   2.520  0.6043  0.1983 -0.7218
21447SOL     OW64918   3.470   3.953   5.567 -0.4606  0.4424 -0.8596
21447SOL    HW164919   3.466   3.937   5.661  0.0175  1.0025 -0.7420
21447SOL    HW264920   3.423   4.035   5.553  0.2349  0.8251 -0.9903
21448SOL     OW64921   1.702   4.858   7.636  0.5182 -0.6402 -0.0828
21448SOL    HW164922   1.659   4.782   7.599  1.1406  0.2655 -2.8944
21448SOL    HW264923   1.636   4.927   7.633  0.3828 -0.6961  1.1612
21449SOL     OW64924   8.237   8.151   6.833  0.4030  0.1297  0.3741
21449SOL    HW164925   8.173   8.128   6.900  0.9564  1.0944  1.2604
21449SOL    HW264926   8.308   8.088   6.844  0.1913 -0.1274  0.2574
21450SOL     OW64927   2.371   1.677   6.520 -0.1852 -0.1364 -0.2161
21450SOL    HW164928   2.296   1.707   6.571  0.5598  2.1516 -0.3669
21450SOL    HW264929   2.429   1.637   6.585  0.0087  1.2768  0.5287
21451SOL     OW64930   2.087   0.570   8.552 -0.7189 -0.1651  0.5332
21451SOL    HW164931   2.019   0.552   8.618 -2.0356  0.7987 -0.5060
21451SOL    HW264932   2.134   0.646   8.588  0.5530 -1.4816  1.7637
21452SOL     OW64933   0.673   6.936   6.141 -0.1618  0.1596  0.5210
21452SOL    HW164934   0.739   6.867   6.136  0.6142  0.9635 -1.8782
21452SOL    HW264935   0.702   6.992   6.213 -0.2115 -1.3732  1.7855
21453SOL     OW64936   4.371   6.041   3.445  0.0349  0.0348 -0.7626
21453SOL    HW164937   4.349   5.963   3.394  0.9435  0.1524 -1.3488
21453SOL    HW264938   4.343   6.019   3.534 -0.3302 -0.7014 -1.0441
21454SOL     OW64939   8.862   2.300   1.027  0.3880 -0.0773  0.0171
21454SOL    HW164940   8.867   2.387   1.067 -1.0740 -0.1542  0.4043
21454SOL    HW264941   8.951   2.266   1.034  0.3006  0.0824  2.8432
21455SOL     OW64942   4.163   1.630   1.696 -0.1747  0.0323  0.2969
21455SOL    HW164943   4.101   1.611   1.765  0.2349 -2.8513  0.0092
21455SOL    HW264944   4.225   1.557   1.699  1.2769  1.0957 -1.5308
21456SOL     OW64945   8.611   6.874   4.748  0.5541 -0.2832  0.1276
21456SOL    HW164946   8.687   6.854   4.693 -0.8331 -1.9723 -1.3109
21456SOL    HW264947   8.561   6.792   4.751 -0.5925  0.4177  2.0621
21457SOL     OW64948   5.889   3.340   4.141  0.6392 -0.1057 -0.2197
21457SOL    HW164949   5.852   3.286   4.070  0.2717 -0.6063  0.3427
21457SOL    HW264950   5.830   3.326   4.215  0.9053  0.5729  0.1295
21458SOL     OW64951   6.938   9.455   4.685 -0.5632  0.0690 -0.4256
21458SOL    HW164952   6.917   9.523   4.749 -1.8789  0.4044 -1.1838
21458SOL    HW264953   7.033   9.446   4.689 -0.5828  0.4335  1.2076
21459SOL     OW64954   8.481   7.991   7.748  0.3908 -0.5638  0.1424
21459SOL    HW164955   8.564   8.016   7.788 -0.3019  2.6271 -0.1713
21459SOL    HW264956   8.416   8.048   7.788 -1.4104 -1.7939 -0.8642
21460SOL     OW64957   7.157   7.867   9.195 -0.2530  0.0037 -0.0826
21460SOL    HW164958   7.244   7.906   9.199  0.1104 -0.3241 -2.9302
21460SOL    HW264959   7.171   7.780   9.158 -1.8000 -0.0711 -0.5636
21461SOL     OW64960   4.882   3.918   2.576 -0.0133  0.3709 -0.3925
21461SOL    HW164961   4.920   4.001   2.608 -0.0453  0.6664 -1.1005
21461SOL    HW264962   4.909   3.853   2.641  3.7722  0.0825 -1.9418
21462SOL     OW64963   3.921   6.207   9.652 -0.9073 -0.2604  0.2532
21462SOL    HW164964   3.895   6.291   9.615  1.6838  0.9956  1.0520
21462SOL    HW264965   3.937   6.224   9.744 -0.8734 -1.7738  0.5670
21463SOL     OW64966   9.924   0.682   1.277  0.4862 -0.6045 -0.1811
21463SOL    HW164967   9.920   0.603   1.224  0.3374 -2.0301  1.8441
21463SOL    HW264968   9.843   0.729   1.258  0.0883 -1.4659 -0.6415
21464SOL     OW64969   8.550   5.647   9.517 -0.1074 -0.5679  0.5666
21464SOL    HW164970   8.501   5.596   9.452  0.1737  0.7171 -0.7034
21464SOL    HW264971   8.483   5.695   9.565 -0.1623  1.0046 -1.0085
21465SOL     OW64972   6.072   9.557   1.311  0.0178 -0.0902  0.3232
21465SOL    HW164973   6.058   9.481   1.254  1.5558  0.4821 -0.8819
21465SOL    HW264974   6.073   9.520   1.399  2.3475 -1.8097 -0.2967
21466SOL     OW64975   6.907   8.980   3.367  0.3634  0.5056  0.3370
21466SOL    HW164976   6.848   9.002   3.439 -0.3826 -0.0537 -0.0843
21466SOL    HW264977   6.964   8.912   3.403 -0.6558 -0.4872  0.1189
21467SOL     OW64978   3.825   3.352   7.085 -0.0162 -0.0931  0.9740
21467SOL    HW164979   3.908   3.351   7.131 -0.3616 -2.4642  1.6746
21467SOL    HW264980   3.833   3.282   7.020 -1.5648 -0.6208  1.3097
21468SOL     OW64981   0.578   1.852   9.080  0.0131  0.2947  1.0475
21468SOL    HW164982   0.584   1.945   9.062 -0.1079  0.1756  0.3592
21468SOL    HW264983   0.552   1.847   9.173 -0.0098  0.9378  1.0812
21469SOL     OW64984   7.113   3.543   1.542 -0.2168 -0.1232  0.7678
21469SOL    HW164985   7.138   3.582   1.626 -0.3218 -0.3001  0.8802
21469SOL    HW264986   7.115   3.449   1.557 -0.1844 -0.1573  0.5569
21470SOL     OW64987   7.521   7.863   0.602 -0.5015  0.6376  0.1707
21470SOL    HW164988   7.533   7.943   0.653  0.9839  0.8751 -0.4968
21470SOL    HW264989   7.452   7.815   0.647 -2.7416  3.1037 -0.4008
21471SOL     OW64990   3.141   4.722   1.281  0.0796  0.1163  0.3807
21471SOL    HW164991   3.133   4.756   1.370  0.1092 -0.2756  0.5390
21471SOL    HW264992   3.093   4.639   1.283 -0.0918  0.2058 -0.0225
21472SOL     OW64993   5.272   7.060   6.346 -0.0240 -0.6450 -0.4055
21472SOL    HW164994   5.180   7.085   6.340 -0.1454 -1.0685 -0.3182
21472SOL    HW264995   5.281   6.987   6.285  0.2566 -0.5981 -0.4215
21473SOL     OW64996   4.424   6.299   3.338 -0.5624 -0.3524 -0.4368
21473SOL    HW164997   4.408   6.220   3.390 -0.5320 -0.2347 -0.2465
21473SOL    HW264998   4.507   6.282   3.294 -0.1508 -0.1033  0.2260
21474SOL     OW64999   5.777   6.553   4.486  0.3539 -0.3458  0.4783
21474SOL    HW165000   5.735   6.637   4.468  3.1228  1.3062  1.2517
21474SOL    HW265001   5.851   6.549   4.425  1.0103 -1.6434  1.3032
21475SOL     OW65002   3.919   5.972   8.742  0.0069 -0.1708 -0.3038
21475SOL    HW165003   3.827   5.995   8.756 -1.0230 -4.4608  1.5490
21475SOL    HW265004   3.959   5.982   8.829  0.3784 -1.6737 -0.2871
21476SOL     OW65005   1.482   1.230   0.947  0.1456 -0.1508  0.3873
21476SOL    HW165006   1.489   1.272   0.861 -0.1118 -1.8518 -0.5107
21476SOL    HW265007   1.567   1.187   0.960 -0.7013 -2.1310 -0.2821
21477SOL     OW65008   2.018   1.618   7.383 -0.4413 -0.1692  0.5012
21477SOL    HW165009   2.060   1.631   7.468 -0.8906  0.3547  0.6459
21477SOL    HW265010   1.978   1.703   7.362  0.7115  0.0960 -0.8106
21478SOL     OW65011   0.694   4.266   0.703 -0.0229 -0.7273  0.0469
21478SOL    HW165012   0.645   4.347   0.687 -1.7373 -1.5321  1.0063
21478SOL    HW265013   0.757   4.262   0.631  0.8503  1.9850  0.5641
21479SOL     OW65014   5.672   0.382   1.167  0.0571 -0.1962  0.2785
21479SOL    HW165015   5.663   0.299   1.120 -0.8003 -0.0643  0.1912
21479SOL    HW265016   5.728   0.362   1.242  2.5207 -0.1395 -1.4223
21480SOL     OW65017   5.087   5.684   3.770  0.2510 -0.1810  0.5752
21480SOL    HW165018   5.095   5.601   3.817 -1.8906 -1.9016 -1.8320
21480SOL    HW265019   5.026   5.736   3.823  0.1919 -0.8620  1.1861
21481SOL     OW65020   8.211   6.295   3.221  0.1825 -0.2198 -0.3095
21481SOL    HW165021   8.297   6.287   3.179  1.0556  1.2659  1.0874
21481SOL    HW265022   8.223   6.259   3.308 -0.3190  0.9255  0.2512
21482SOL     OW65023   5.416   8.219   8.899 -0.0654  0.7734 -0.2144
21482SOL    HW165024   5.342   8.270   8.932 -0.1305  0.3961  0.2404
21482SOL    HW265025   5.386   8.186   8.814 -0.6824  0.0771  0.2607
21483SOL     OW65026   0.270   7.128   2.199 -0.1916 -0.2655  0.0380
21483SOL    HW165027   0.236   7.144   2.287  1.5054 -0.1977  0.7107
21483SOL    HW265028   0.239   7.203   2.148  0.3535  0.6729  1.0434
21484SOL     OW65029   8.934   3.793   2.229  0.2807  0.0059 -0.7579
21484SOL    HW165030   9.015   3.747   2.251 -1.1159 -1.6470  1.2893
21484SOL    HW265031   8.901   3.747   2.152  1.5666  1.1357 -2.0392
21485SOL     OW65032   8.985   8.060   2.563  0.6546 -0.1393 -0.0703
21485SOL    HW165033   8.927   7.984   2.557  0.8119 -0.1785 -1.3415
21485SOL    HW265034   8.975   8.091   2.653  0.9177 -1.9277  0.6124
21486SOL     OW65035   6.858   4.708   5.062  0.1540  0.0632 -0.1780
21486SOL    HW165036   6.917   4.644   5.022 -0.0054  0.7313 -1.5465
21486SOL    HW265037   6.777   4.660   5.077  0.5462 -0.4616  0.2941
21487SOL     OW65038   2.773   5.323   4.092 -0.1722  0.0951  0.3971
21487SOL    HW165039   2.734   5.296   4.175  0.1454  1.0503  0.8763
21487SOL    HW265040   2.744   5.257   4.028 -1.6277  0.1715  0.9619
21488SOL     OW65041   7.991   8.252   4.856  0.1425  0.0316  0.6514
21488SOL    HW165042   8.009   8.192   4.929 -0.7439  0.6621  1.4186
21488SOL    HW265043   8.040   8.332   4.878 -0.1703  0.2416  0.5880
21489SOL     OW65044   4.755   0.091   4.998 -0.0377 -0.0200 -0.2486
21489SOL    HW165045   4.683   0.062   5.053  0.0987 -3.5538 -1.7044
21489SOL    HW265046   4.723   0.083   4.908  2.2545 -2.4086 -0.9738
21490SOL     OW65047   6.311   0.758   2.822 -0.2442 -0.6544  0.3697
21490SOL    HW165048   6.298   0.687   2.759  2.4045 -1.4870  0.6372
21490SOL    HW265049   6.307   0.715   2.907 -2.7158  0.2884  0.8089
21491SOL     OW65050   0.948   7.424   5.461 -0.3969 -0.2382  0.4031
21491SOL    HW165051   0.890   7.357   5.424  1.8146 -1.5408 -0.9374
21491SOL    HW265052   0.907   7.447   5.544 -2.3787 -1.6711 -0.0861
21492SOL     OW65053   6.727   0.349   0.179  0.7309 -0.6513 -0.2127
21492SOL    HW165054   6.684   0.388   0.255 -1.2973  0.0729 -1.6279
21492SOL    HW265055   6.779   0.421   0.142  0.3795 -0.5045 -0.4301
21493SOL     OW65056   2.122   2.090   5.135 -0.4299  0.6568 -0.7043
21493SOL    HW165057   2.160   2.166   5.178  0.6487  0.5796 -1.4835
21493SOL    HW265058   2.062   2.126   5.070 -0.4024  0.8296 -0.6342
21494SOL     OW65059   0.343   3.948   1.979  0.1745 -0.3255 -0.1597
21494SOL    HW165060   0.311   3.973   1.892 -0.8694 -1.6975 -0.1923
21494SOL    HW265061   0.339   4.030   2.030  0.7524  0.4807 -1.3641
21495SOL     OW65062   2.851   0.419   7.328 -0.1200 -0.0468  0.3703
21495SOL    HW165063   2.788   0.354   7.359  0.5873 -0.3232  1.2818
21495SOL    HW265064   2.933   0.370   7.320 -0.6258 -0.5378 -4.0065
21496SOL     OW65065   7.513   3.563   2.893  0.1374 -0.2060 -0.7359
21496SOL    HW165066   7.469   3.482   2.921 -0.6216  0.7410  0.9293
21496SOL    HW265067   7.565   3.589   2.969 -0.0550  1.1708 -1.0660
21497SOL     OW65068   4.242   8.414   5.278  0.6798  0.8373 -0.6980
21497SOL    HW165069   4.278   8.341   5.228 -1.3163 -1.0655  0.4845
21497SOL    HW265070   4.267   8.395   5.369 -2.9945 -0.5681  0.1808
21498SOL     OW65071   5.004   0.943   8.265 -0.6655  0.2668 -0.6262
21498SOL    HW165072   5.072   1.008   8.244  0.6494 -0.5866  0.7970
21498SOL    HW265073   4.942   0.990   8.320  0.0767  0.4612  0.0728
21499SOL     OW65074   5.831   6.991   6.657  0.0511  0.0205  0.1764
21499SOL    HW165075   5.856   7.029   6.573 -0.0130 -0.8771 -0.2582
21499SOL    HW265076   5.806   7.067   6.711  0.9760  0.6809 -0.3021
21500SOL     OW65077   5.897   4.990   9.729 -0.2351  1.0660  0.4599
21500SOL    HW165078   5.868   5.080   9.743  1.7487  1.8670 -0.2609
21500SOL    HW265079   5.906   4.982   9.634 -1.4424 -0.2671  0.4341
21501SOL     OW65080   4.575   7.121   3.415  0.0201 -0.3216 -0.1726
21501SOL    HW165081   4.636   7.095   3.484 -0.7819  0.2233  0.7513
21501SOL    HW265082   4.593   7.214   3.401 -1.1182  0.0354  0.6544
21502SOL     OW65083   9.881   5.633   7.378  0.0214 -0.1843  0.4929
21502SOL    HW165084   9.840   5.576   7.443 -0.6896 -0.1581  0.0748
21502SOL    HW265085   9.808   5.681   7.338  0.4492 -0.2007 -0.3258
21503SOL     OW65086   8.726   6.615   7.107 -0.6660 -0.2397 -0.4914
21503SOL    HW165087   8.818   6.598   7.088 -1.1375 -0.7884 -2.5252
21503SOL    HW265088   8.727   6.682   7.176  1.2286 -0.2900 -0.4372
21504SOL     OW65089   2.691   9.312   6.118  0.0253  0.5100  0.4126
21504SOL    HW165090   2.643   9.310   6.034 -2.0264 -0.0708  1.5235
21504SOL    HW265091   2.783   9.304   6.093 -0.6304 -1.6475 -1.7353
21505SOL     OW65092   4.434   4.521   2.483 -0.4664 -0.3306 -0.3220
21505SOL    HW165093   4.382   4.511   2.403 -1.5042  0.7610  0.1734
21505SOL    HW265094   4.377   4.571   2.542  0.8735  0.2525  0.5322
21506SOL     OW65095   8.059   9.786   0.028  0.0274 -0.0022  0.1682
21506SOL    HW165096   8.127   9.851   0.014 -0.4958  0.3148 -1.0548
21506SOL    HW265097   8.104   9.702   0.023  0.9638  0.2069  3.1620
21507SOL     OW65098   8.220   1.146   4.076 -0.3554 -0.0768  0.0891
21507SOL    HW165099   8.253   1.204   4.008  0.3395  0.4883  0.8921
21507SOL    HW265100   8.273   1.066   4.067 -1.6474 -0.8328 -1.3396
21508SOL     OW65101   3.844   2.345   1.760 -0.3030  0.0138  0.2072
21508SOL    HW165102   3.755   2.379   1.759 -0.6504 -0.8702  0.5562
21508SOL    HW265103   3.844   2.273   1.697  0.0649 -0.2110  0.4587
21509SOL     OW65104   5.936   5.728   3.282 -0.6048  0.0698 -0.4673
21509SOL    HW165105   6.017   5.780   3.280 -1.9357  2.2677 -0.7012
21509SOL    HW265106   5.912   5.719   3.190 -1.8502  1.5596 -0.3279
21510SOL     OW65107   1.764   9.175   9.198 -0.1570 -0.3539 -0.4496
21510SOL    HW165108   1.753   9.202   9.106  0.6671 -1.7141 -0.9876
21510SOL    HW265109   1.838   9.226   9.230 -1.8260  1.7917  0.2055
21511SOL     OW65110   2.004   3.604   5.362  0.5706 -0.0795  0.1648
21511SOL    HW165111   2.029   3.696   5.358  0.4774 -0.0211  0.9250
21511SOL    HW265112   1.982   3.588   5.454 -2.8687  0.0559 -0.4897
21512SOL     OW65113   2.411   1.416   9.460 -0.3338 -0.3984  0.1188
21512SOL    HW165114   2.354   1.489   9.483 -0.8142 -1.0648  1.0781
21512SOL    HW265115   2.458   1.395   9.541  0.8594 -0.2433 -0.5004
21513SOL     OW65116   9.535   0.349   3.350  0.0254 -0.0982  0.4687
21513SOL    HW165117   9.564   0.259   3.333  2.5817  1.0682 -2.1441
21513SOL    HW265118   9.562   0.366   3.440  0.4029 -1.6212  0.6706
21514SOL     OW65119   1.548   4.911   4.457  0.0696 -0.3346 -0.3863
21514SOL    HW165120   1.516   4.976   4.394  2.4668  0.1604 -1.2060
21514SOL    HW265121   1.642   4.907   4.442  0.5395 -1.3005  2.1940
21515SOL     OW65122   2.332   7.622   8.431  0.4110  0.4379 -0.3662
21515SOL    HW165123   2.341   7.619   8.336  3.4466  2.4430 -0.2882
21515SOL    HW265124   2.294   7.708   8.449  2.1710  1.1429  0.2372
21516SOL     OW65125   7.932   7.016   3.691 -0.0704 -0.6418 -0.3618
21516SOL    HW165126   7.925   6.934   3.741  1.7269 -0.8098 -0.3281
21516SOL    HW265127   7.971   7.078   3.751 -1.4717  0.3019 -0.3755
21517SOL     OW65128   7.259   6.049   4.578 -0.1228  0.3846  0.1429
21517SOL    HW165129   7.353   6.059   4.595  0.0430  1.0868 -1.0856
21517SOL    HW265130   7.218   6.066   4.663  0.7981  1.2250  0.4448
21518SOL     OW65131   7.597   9.624   5.085 -0.0563  0.6316 -0.0313
21518SOL    HW165132   7.687   9.629   5.053 -0.1597 -0.1096 -0.4674
21518SOL    HW265133   7.606   9.595   5.176  0.2180  2.3369  0.5166
21519SOL     OW65134   6.136   3.356   6.168  0.2336  0.0849  0.2391
21519SOL    HW165135   6.174   3.427   6.219  0.5192  1.9333 -2.3111
21519SOL    HW265136   6.208   3.326   6.112 -0.6622 -0.0651 -0.8686
21520SOL     OW65137   2.246   9.441   2.118 -0.2219 -0.0994  0.1888
21520SOL    HW165138   2.163   9.415   2.079 -1.1157  0.8966  1.3653
21520SOL    HW265139   2.276   9.515   2.065 -0.5979  0.1935  0.3855
21521SOL     OW65140   4.883   1.677   4.204  0.1651  0.1492  0.2350
21521SOL    HW165141   4.811   1.614   4.208 -0.6389  1.0801  0.7766
21521SOL    HW265142   4.918   1.679   4.293  1.2509 -0.7176 -0.1491
21522SOL     OW65143   5.233   6.251   1.033 -0.7869  0.0713 -0.0618
21522SOL    HW165144   5.146   6.274   1.001 -1.5619 -1.7307  0.6314
21522SOL    HW265145   5.221   6.237   1.127 -0.4290 -3.0434 -0.3898
21523SOL     OW65146   4.334   6.827   7.632  0.0591 -0.1027  0.3343
21523SOL    HW165147   4.379   6.766   7.574 -0.3400  1.5823 -1.9228
21523SOL    HW265148   4.373   6.813   7.718  4.6302  0.8298 -1.2731
21524SOL     OW65149   8.550   6.798   8.278  0.6838  0.2876 -0.2048
21524SOL    HW165150   8.590   6.729   8.226  1.6134  0.4182  0.3079
21524SOL    HW265151   8.509   6.856   8.213 -1.0802 -1.2865 -0.5829
21525SOL     OW65152   5.510   1.591   1.673  0.1943  0.4518 -0.4246
21525SOL    HW165153   5.552   1.676   1.658  1.6139  0.1412  1.4372
21525SOL    HW265154   5.574   1.541   1.723 -0.5094 -1.8463 -1.6851
21526SOL     OW65155   2.521   5.222   6.026  0.2773 -0.7547  0.3589
21526SOL    HW165156   2.530   5.296   6.086  1.0255 -0.4029 -0.1744
21526SOL    HW265157   2.443   5.176   6.057  0.2189 -0.1596  1.1425
21527SOL     OW65158   0.307   2.810   9.368 -0.4898 -0.6065 -0.2172
21527SOL    HW165159   0.228   2.759   9.351 -1.0672  0.1726  0.0444
21527SOL    HW265160   0.275   2.899   9.383  0.2083 -0.6675  2.0428
21528SOL     OW65161   3.772   8.800   5.149  0.1558 -0.8482 -0.3453
21528SOL    HW165162   3.811   8.848   5.223  0.8179 -0.6404 -0.8209
21528SOL    HW265163   3.768   8.864   5.078  0.9035 -1.4425 -0.9426
21529SOL     OW65164   6.251   7.161   2.851 -1.0274  0.2374 -0.2140
21529SOL    HW165165   6.212   7.075   2.870  0.4754 -0.0773  1.7692
21529SOL    HW265166   6.204   7.222   2.909 -0.5525  0.3555  0.0495
21530SOL     OW65167   8.806   2.797   1.891 -0.4512  0.1744 -0.4461
21530SOL    HW165168   8.861   2.836   1.824  1.4703 -1.6999 -0.0495
21530SOL    HW265169   8.866   2.770   1.960 -2.0747 -0.2902  0.8700
21531SOL     OW65170   8.723   8.395   5.385  0.3397  0.0537  0.3388
21531SOL    HW165171   8.816   8.383   5.403  0.3179 -1.2457 -0.3068
21531SOL    HW265172   8.679   8.353   5.459  0.2777 -2.3200 -0.9544
21532SOL     OW65173   4.533   3.471   7.494  0.7317  0.1103  0.0868
21532SOL    HW165174   4.612   3.493   7.444  0.5324  1.8666  0.4985
21532SOL    HW265175   4.461   3.491   7.435  0.5355  1.0279  0.6130
21533SOL     OW65176   7.083   0.118   1.948  0.1347  0.1147 -0.6881
21533SOL    HW165177   7.172   0.085   1.960  0.2452  0.5307 -0.3674
21533SOL    HW265178   7.035   0.044   1.910 -0.3760 -1.4610  2.6471
21534SOL     OW65179   1.418   4.274   8.061  0.1706 -0.3678 -0.1663
21534SOL    HW165180   1.427   4.361   8.100 -1.8883  0.4223 -1.2821
21534SOL    HW265181   1.478   4.275   7.986  2.0585 -0.9005  1.2488
21535SOL     OW65182   4.031   4.274   7.456  0.2262  0.2481  0.2918
21535SOL    HW165183   3.940   4.292   7.482  0.5413  1.7476  0.4396
21535SOL    HW265184   4.046   4.333   7.382  0.2422 -1.9472 -1.5634
21536SOL     OW65185   5.824   1.079   7.574  0.6749 -0.8421  0.2964
21536SOL    HW165186   5.755   1.026   7.536 -0.3271  1.3908 -1.1655
21536SOL    HW265187   5.818   1.061   7.668 -1.9782 -0.6713  0.2401
21537SOL     OW65188   1.671   7.382   4.320 -0.0998 -0.4312  0.0125
21537SOL    HW165189   1.686   7.363   4.227 -0.8997 -2.4648  0.2462
21537SOL    HW265190   1.710   7.307   4.366 -0.1546  0.3041  1.2942
21538SOL     OW65191   0.631   5.780   6.501 -0.5539 -0.1661 -0.3397
21538SOL    HW165192   0.684   5.712   6.544 -0.9105 -1.8305 -2.3458
21538SOL    HW265193   0.619   5.847   6.567  2.1797 -0.7630  0.8888
21539SOL     OW65194   6.125   9.060   5.217  0.3300 -0.2722  0.0325
21539SOL    HW165195   6.038   9.052   5.178  0.0497  1.0609  0.3120
21539SOL    HW265196   6.108   9.065   5.311  0.4345  2.3095  0.0054
21540SOL     OW65197   8.277   3.059   0.411  0.1592  0.6438  0.0743
21540SOL    HW165198   8.210   3.082   0.476  0.6223  0.0764  0.7665
21540SOL    HW265199   8.264   3.122   0.340 -0.3138  1.3272  0.7479
21541SOL     OW65200   0.191   1.086   2.101 -0.0453 -0.0702  0.2824
21541SOL    HW165201   0.179   1.175   2.135  0.7837 -0.0203  0.4627
21541SOL    HW265202   0.275   1.089   2.056 -0.4510 -0.5176 -0.5385
21542SOL     OW65203   0.256   5.308   9.797 -0.0145 -0.0903  0.1959
21542SOL    HW165204   0.269   5.246   9.725  1.5297  1.7862 -1.2558
21542SOL    HW265205   0.269   5.256   9.877  1.3625 -1.6014 -0.9627
21543SOL     OW65206   3.358   8.547   8.574  0.6241 -0.5060  0.1747
21543SOL    HW165207   3.435   8.538   8.518  1.1245 -0.4336  0.8383
21543SOL    HW265208   3.360   8.639   8.602 -1.2184  0.2698 -1.9485
21544SOL     OW65209   1.114   1.118   6.237  0.2332  0.4174 -0.2261
21544SOL    HW165210   1.067   1.085   6.314  0.6853  1.1152  0.3691
21544SOL    HW265211   1.132   1.040   6.184 -0.4073 -0.0247  0.1983
21545SOL     OW65212   8.200   5.240   2.599  0.6607  0.2213  0.2834
21545SOL    HW165213   8.177   5.333   2.603  0.0166  0.0657  0.3804
21545SOL    HW265214   8.206   5.212   2.690  2.0153  0.4306  0.2766
21546SOL     OW65215   2.650   0.214   1.119 -0.0412 -0.0531  0.1229
21546SOL    HW165216   2.657   0.139   1.060  0.5953  0.4330 -0.4315
21546SOL    HW265217   2.702   0.189   1.195 -0.9791 -0.7387  0.5458
21547SOL     OW65218   5.484   5.493   2.426 -0.1383 -0.5946  0.0391
21547SOL    HW165219   5.578   5.479   2.418 -0.3710 -1.2567 -2.6219
21547SOL    HW265220   5.467   5.570   2.371 -1.0824 -0.1561  0.9257
21548SOL     OW65221   6.410   0.118   5.706  0.2798  0.3659  0.3191
21548SOL    HW165222   6.404   0.186   5.772  1.2480 -1.9780  3.0433
21548SOL    HW265223   6.326   0.071   5.713  0.6878 -0.3597  0.4760
21549SOL     OW65224   0.717   3.999   2.659 -0.1402 -0.0041  0.2175
21549SOL    HW165225   0.761   3.995   2.574  0.4141 -1.1089  0.5377
21549SOL    HW265226   0.742   3.917   2.702 -1.9631 -0.3600  0.6733
21550SOL     OW65227   7.981   0.533   8.641 -0.3403  0.0315  0.0243
21550SOL    HW165228   7.908   0.577   8.684 -0.8195 -1.4726  0.8339
21550SOL    HW265229   7.946   0.506   8.556 -0.2345  0.6620 -0.2226
21551SOL     OW65230   5.653   8.061   6.089 -0.2453 -0.3399 -0.0601
21551SOL    HW165231   5.677   8.150   6.116 -0.7755 -0.7429  1.9124
21551SOL    HW265232   5.635   8.068   5.995  3.4341  0.8359 -0.8743
21552SOL     OW65233   2.848   5.493   5.881 -0.6123 -0.0501  0.1557
21552SOL    HW165234   2.933   5.509   5.839 -1.0164  1.2267 -0.2057
21552SOL    HW265235   2.814   5.415   5.838 -1.2476  1.4917 -2.3182
21553SOL     OW65236   9.319   8.924   9.597 -0.1644 -0.2679 -0.1873
21553SOL    HW165237   9.335   8.954   9.508  2.3837  1.1027  0.6379
21553SOL    HW265238   9.256   8.986   9.633 -0.0776  0.0495 -0.5796
21554SOL     OW65239   6.324   3.341   2.361  0.2575  0.2045  0.5517
21554SOL    HW165240   6.380   3.264   2.356  0.2185  0.1239  1.3298
21554SOL    HW265241   6.278   3.342   2.277 -0.0276 -0.8316  0.6843
21555SOL     OW65242   1.669   0.395   7.125 -0.2178 -0.5476 -0.2357
21555SOL    HW165243   1.652   0.372   7.034  0.0675 -0.8416 -0.2165
21555SOL    HW265244   1.592   0.363   7.173 -0.3509 -0.4252 -0.3674
21556SOL     OW65245   9.211   5.029   6.666  0.1288  0.1886 -0.0111
21556SOL    HW165246   9.241   5.009   6.755  0.7576  0.5382 -0.1355
21556SOL    HW265247   9.191   5.123   6.668  3.3661  1.0247 -1.0706
21557SOL     OW65248   1.195   6.794   1.864 -0.2583  0.0798 -0.2868
21557SOL    HW165249   1.153   6.879   1.855  0.0977  0.4298  1.1802
21557SOL    HW265250   1.257   6.790   1.791  0.2682  1.3987  0.0779
21558SOL     OW65251   1.883   6.472   4.533  0.4597 -0.5025  0.5538
21558SOL    HW165252   1.895   6.488   4.439 -0.0090  0.2436  0.6126
21558SOL    HW265253   1.949   6.527   4.575  0.8911 -1.0911  0.6550
21559SOL     OW65254   3.152   6.963   4.667 -0.0257  0.0464  0.4501
21559SOL    HW165255   3.232   6.964   4.614 -0.4849  1.7677 -0.3011
21559SOL    HW265256   3.178   7.001   4.751  0.2954 -0.9905  0.8387
21560SOL     OW65257   1.613   5.870   8.876  0.1453  0.2300  0.5414
21560SOL    HW165258   1.535   5.827   8.910 -1.6920  1.1795 -2.1326
21560SOL    HW265259   1.656   5.803   8.823 -1.1226  0.7582 -1.2421
21561SOL     OW65260   4.252   8.015   5.023 -0.0630  0.1008 -0.2912
21561SOL    HW165261   4.181   7.952   5.029  1.9180 -2.4760 -1.8480
21561SOL    HW265262   4.276   8.017   4.931  2.4377  0.1557  0.2750
21562SOL     OW65263   8.642   9.601   3.228 -0.1216 -0.6218  0.2871
21562SOL    HW165264   8.697   9.547   3.172 -0.7057 -1.1886  0.2374
21562SOL    HW265265   8.627   9.547   3.306  0.9530  0.2806  1.1558
21563SOL     OW65266   0.540   1.000   9.722 -0.4269  0.0382 -0.0882
21563SOL    HW165267   0.539   1.075   9.662 -0.8237  0.6726  0.6936
21563SOL    HW265268   0.557   0.925   9.666  1.2960  0.8557 -0.7178
21564SOL     OW65269   3.285   8.619   2.698  0.0496 -0.3647  0.1141
21564SOL    HW165270   3.380   8.609   2.705  0.0444  0.0306  0.8211
21564SOL    HW265271   3.270   8.713   2.696 -0.3619 -0.4125  0.5905
21565SOL     OW65272   4.376   0.832   5.932 -0.5683  0.0070  0.1303
21565SOL    HW165273   4.452   0.774   5.927  0.9165  1.8744  0.1027
21565SOL    HW265274   4.315   0.797   5.866  0.3540 -1.3651 -0.0351
21566SOL     OW65275   9.530   8.458   2.233 -0.1755 -0.2073  0.2389
21566SOL    HW165276   9.567   8.379   2.193  0.5927 -0.0541  0.6256
21566SOL    HW265277   9.435   8.443   2.232  0.0262 -1.9949  2.0477
21567SOL     OW65278   9.620   9.199   5.770  0.3227  0.2598  0.4810
21567SOL    HW165279   9.585   9.253   5.698  0.3973 -0.6164 -0.2275
21567SOL    HW265280   9.610   9.254   5.848  2.9063  2.4483 -0.5583
21568SOL     OW65281   6.914   1.917   6.598 -0.0134  0.4836 -0.6929
21568SOL    HW165282   6.976   1.973   6.551  1.0146 -0.1221 -0.0715
21568SOL    HW265283   6.829   1.961   6.587  0.6078  1.6054 -1.0885
21569SOL     OW65284   2.848   8.663   7.370  0.0072  0.2949 -0.2074
21569SOL    HW165285   2.918   8.608   7.336  0.2725  0.3631  0.2255
21569SOL    HW265286   2.877   8.753   7.354 -0.5469  0.3296 -1.1621
21570SOL     OW65287   8.402   8.285   6.379  0.2599 -0.1522  0.0008
21570SOL    HW165288   8.382   8.262   6.470  1.0563 -1.9851 -0.2347
21570SOL    HW265289   8.473   8.225   6.354  0.0491  0.2924 -1.8321
21571SOL     OW65290   6.458   1.297   1.305  0.6913 -0.4652  0.4235
21571SOL    HW165291   6.469   1.293   1.400  0.7117 -1.0907  0.3934
21571SOL    HW265292   6.396   1.369   1.292  1.3192  0.1761  0.8558
21572SOL     OW65293   5.077   0.417   9.900 -0.0256  0.2657  0.4613
21572SOL    HW165294   5.051   0.505   9.926  0.7586  0.5133  0.4019
21572SOL    HW265295   5.028   0.360   9.961  0.4601  0.7840  1.3624
21573SOL     OW65296   6.631   4.174   5.369  0.3826 -0.8070  0.1182
21573SOL    HW165297   6.697   4.108   5.347  0.4349 -0.4090 -0.9917
21573SOL    HW265298   6.682   4.253   5.388  0.3541 -1.2044  2.0143
21574SOL     OW65299   2.529   2.630   8.734  0.3732 -0.0315  0.1071
21574SOL    HW165300   2.611   2.582   8.750  1.4680  2.1140  1.3237
21574SOL    HW265301   2.506   2.607   8.645  1.3495 -2.0474  0.3048
21575SOL     OW65302   3.419   1.932   2.566  0.0435  0.4649  0.0921
21575SOL    HW165303   3.354   1.984   2.612 -0.2032 -0.6458  1.0665
21575SOL    HW265304   3.381   1.845   2.560  0.5200  0.3177 -1.3300
21576SOL     OW65305   7.684   6.636   3.764 -0.0890  0.3388  0.3455
21576SOL    HW165306   7.772   6.672   3.778  0.7147 -1.7987  1.2502
21576SOL    HW265307   7.648   6.688   3.691  2.0599  1.0216 -0.3097
21577SOL     OW65308   5.978   0.836   1.990 -0.1014  0.3364 -0.2427
21577SOL    HW165309   5.927   0.756   1.978  1.9854 -1.1143 -0.1086
21577SOL    HW265310   5.967   0.885   1.909 -1.8120  0.1904 -0.1288
21578SOL     OW65311   7.812   6.656   6.455 -0.0909  0.0386 -0.7170
21578SOL    HW165312   7.773   6.597   6.391  0.1276  0.0530 -0.8657
21578SOL    HW265313   7.906   6.654   6.435  0.1518 -0.9659  0.4255
21579SOL     OW65314   3.610   8.924   7.284 -0.1231  0.0830  0.1886
21579SOL    HW165315   3.573   9.009   7.260  0.4108 -0.3037 -2.2335
21579SOL    HW265316   3.545   8.860   7.256  1.8281 -0.5680 -3.5039
21580SOL     OW65317   5.201   8.437   6.227  0.1876  0.6701  0.1582
21580SOL    HW165318   5.202   8.397   6.314 -0.9148  1.5764  0.6032
21580SOL    HW265319   5.135   8.506   6.232 -2.3979 -1.3320 -2.3288
21581SOL     OW65320   2.304   6.143   0.946 -0.5374  0.3356 -0.4780
21581SOL    HW165321   2.308   6.188   1.031 -1.0634  1.4676 -1.0340
21581SOL    HW265322   2.386   6.094   0.941 -0.6621 -0.0416  0.8430
21582SOL     OW65323   4.359   5.342   1.108 -0.5450  0.0896 -0.2285
21582SOL    HW165324   4.353   5.370   1.017 -1.2088 -1.3686 -0.6709
21582SOL    HW265325   4.450   5.359   1.133 -0.2236  0.0500 -1.3296
21583SOL     OW65326   6.747   0.020   7.455  0.5091 -0.3576 -0.1648
21583SOL    HW165327   6.786  -0.068   7.456 -0.2091 -0.6855 -0.2972
21583SOL    HW265328   6.790   0.064   7.382  0.4766 -0.7865 -0.4463
21584SOL     OW65329   6.272   7.419   5.881  0.3872 -0.3742 -0.1219
21584SOL    HW165330   6.317   7.504   5.874  3.0360 -1.7594 -1.6127
21584SOL    HW265331   6.270   7.401   5.975  1.8604  0.3541  0.0839
21585SOL     OW65332   4.878   6.307   6.989  0.0596 -0.3036 -0.2185
21585SOL    HW165333   4.908   6.327   7.078 -1.3933  1.5445 -0.0769
21585SOL    HW265334   4.925   6.227   6.965  0.9851 -0.4806  1.9496
21586SOL     OW65335   8.642   9.103   1.283  0.2319 -0.1187 -0.0797
21586SOL    HW165336   8.622   9.043   1.354  1.2573 -0.1665  0.1918
21586SOL    HW265337   8.618   9.189   1.317  1.6180 -0.0140  0.7398
21587SOL     OW65338   4.608   6.404   3.571 -0.1682 -0.3479 -0.3277
21587SOL    HW165339   4.610   6.482   3.515  0.8250  1.3999  1.9607
21587SOL    HW265340   4.540   6.348   3.533  0.9489  0.3373 -3.6608
21588SOL     OW65341   4.407   6.682   1.258 -0.0446  0.1822 -0.4173
21588SOL    HW165342   4.315   6.672   1.284 -0.1436 -0.0392 -0.8479
21588SOL    HW265343   4.412   6.640   1.172  0.5534 -0.1845 -0.2090
21589SOL     OW65344   8.170   4.247   2.160  0.1402 -0.5619  0.2528
21589SOL    HW165345   8.205   4.300   2.089  0.1378 -1.5514 -0.5121
21589SOL    HW265346   8.159   4.308   2.233 -1.2319  0.7990 -1.0264
21590SOL     OW65347   4.570   0.509   9.392  0.1398  0.3936  0.7833
21590SOL    HW165348   4.604   0.552   9.314 -0.5131  1.9625  1.3278
21590SOL    HW265349   4.491   0.559   9.414  0.5073  0.2198  2.6569
21591SOL     OW65350   4.277   6.875   9.675 -0.1145 -0.4111 -0.2067
21591SOL    HW165351   4.354   6.859   9.730 -0.9648 -1.2250  0.7960
21591SOL    HW265352   4.306   6.853   9.586  0.4810 -1.9665  0.3292
21592SOL     OW65353   3.954   9.249   4.760 -0.2386 -0.0483  0.2048
21592SOL    HW165354   3.969   9.203   4.678  0.4213 -0.5164  0.5747
21592SOL    HW265355   3.918   9.183   4.818  0.1460  0.0480  0.5596
21593SOL     OW65356   7.197   8.584   6.116 -0.0467  0.5295 -0.6731
21593SOL    HW165357   7.220   8.539   6.034  1.3083  0.4901 -0.2864
21593SOL    HW265358   7.135   8.652   6.088 -2.4658 -1.7066 -1.2303
21594SOL     OW65359   9.441   5.290   4.567  0.1984 -0.0565 -0.6333
21594SOL    HW165360   9.451   5.203   4.527 -1.4115 -0.8666  0.5925
21594SOL    HW265361   9.528   5.329   4.563  1.3568 -2.3721  0.1802
21595SOL     OW65362   7.833   3.106   2.096 -0.1206 -0.5079 -0.4578
21595SOL    HW165363   7.908   3.158   2.124  0.2321 -1.7186  0.9997
21595SOL    HW265364   7.758   3.145   2.140 -0.1318 -0.1841 -0.7597
21596SOL     OW65365   6.935   4.500   1.120 -0.1453 -0.1942  0.4595
21596SOL    HW165366   6.927   4.413   1.160  1.1212 -1.0426 -1.0088
21596SOL    HW265367   6.848   4.518   1.082 -0.9747  0.0607  2.3837
21597SOL     OW65368   3.318   7.658   2.891  0.2641 -0.3054 -0.2851
21597SOL    HW165369   3.295   7.709   2.813  2.6226  0.5000 -0.5323
21597SOL    HW265370   3.385   7.710   2.935 -0.3860 -1.1566  1.8459
21598SOL     OW65371   6.030   6.231   3.440  0.0128 -0.1076  0.6219
21598SOL    HW165372   6.037   6.242   3.534  2.8029  2.3453  0.2690
21598SOL    HW265373   6.081   6.153   3.420  0.9054  0.3740  0.9995
21599SOL     OW65374   1.119   6.090   0.937  0.2381 -0.2824 -0.3855
21599SOL    HW165375   1.133   6.024   1.004  0.1197  0.7988  0.7381
21599SOL    HW265376   1.028   6.079   0.911 -0.5674  1.0240  1.6346
21600SOL     OW65377   9.334   2.852   5.001 -0.3562  0.3935 -0.1229
21600SOL    HW165378   9.292   2.784   4.948 -1.2410  0.6892  0.1869
21600SOL    HW265379   9.397   2.804   5.055  0.6789  0.1053 -1.5258
21601SOL     OW65380   5.340   0.009   4.021  0.3155  0.0590 -0.0506
21601SOL    HW165381   5.257   0.005   4.067  0.5947 -0.6716  0.4102
21601SOL    HW265382   5.352   0.101   3.999 -1.0428  0.0534 -0.9119
21602SOL     OW65383   3.936   2.205   9.822 -0.6153 -0.0160 -0.3085
21602SOL    HW165384   3.931   2.222   9.728 -0.3357  1.4042 -0.0877
21602SOL    HW265385   4.005   2.264   9.853  1.0166 -2.1751  0.4152
21603SOL     OW65386   2.123   3.455   4.469  0.2778  0.4651  0.3697
21603SOL    HW165387   2.175   3.375   4.461  3.8410  2.3772  2.1359
21603SOL    HW265388   2.086   3.469   4.381  1.6067 -1.7631 -0.6266
21604SOL     OW65389   0.825   4.905   2.858  0.1574 -0.2362 -0.2484
21604SOL    HW165390   0.883   4.933   2.929  0.9711 -0.6837 -0.7140
21604SOL    HW265391   0.742   4.950   2.875  0.2372 -0.5769  1.1470
21605SOL     OW65392   8.480   1.133   8.133 -0.3105  0.3142  0.0024
21605SOL    HW165393   8.436   1.092   8.059  0.8536 -1.9980  0.5045
21605SOL    HW265394   8.412   1.147   8.198 -1.1318  1.3479 -1.0322
21606SOL     OW65395   6.816   5.528   3.493  0.5517  0.0698 -0.3835
21606SOL    HW165396   6.783   5.438   3.495 -1.1143  0.6452  1.2187
21606SOL    HW265397   6.846   5.544   3.583  1.3630  0.9468 -0.8005
21607SOL     OW65398   0.863   1.671   6.448 -0.5933  0.6792  0.1331
21607SOL    HW165399   0.854   1.596   6.389  0.3489  0.7134 -0.0733
21607SOL    HW265400   0.836   1.746   6.395 -0.6464  0.5947  0.0392
21608SOL     OW65401   4.444   0.924   6.659 -0.0885 -0.1283 -0.1800
21608SOL    HW165402   4.507   0.872   6.609  0.1311 -0.3063  0.2749
21608SOL    HW265403   4.405   0.983   6.595  0.2222 -0.3219 -0.5498
21609SOL     OW65404   4.404   1.446   5.474 -0.4883 -0.8249  0.4569
21609SOL    HW165405   4.318   1.484   5.455  0.0186  0.6304  0.9896
21609SOL    HW265406   4.442   1.503   5.540  1.6907 -0.2814 -1.1559
21610SOL     OW65407   8.307   0.932   0.042 -0.1697  0.4352  0.3435
21610SOL    HW165408   8.383   0.979   0.007  0.9329 -1.0385  0.6531
21610SOL    HW265409   8.313   0.945   0.137  1.0818 -1.5533  0.6013
21611SOL     OW65410   0.284   4.415   2.377  0.1122 -0.0734  0.4438
21611SOL    HW165411   0.380   4.421   2.378  0.2005 -1.0967  1.4071
21611SOL    HW265412   0.259   4.428   2.469 -0.3708 -3.0368  0.8469
21612SOL     OW65413   5.502   5.361   5.536  0.2479 -0.1931  0.0174
21612SOL    HW165414   5.571   5.301   5.562 -0.3662 -0.8611  0.1309
21612SOL    HW265415   5.516   5.439   5.590  0.2776 -0.7312  0.8045
21613SOL     OW65416   2.735   1.029   2.644  0.1122 -0.1071  0.7334
21613SOL    HW165417   2.728   0.934   2.636 -2.6496  0.0383  0.4440
21613SOL    HW265418   2.658   1.054   2.695  1.0202  1.9546  1.1716
21614SOL     OW65419   7.281   7.936   6.973 -0.0070 -0.3673 -0.0756
21614SOL    HW165420   7.281   7.954   6.879  0.1459 -0.9492 -0.1932
21614SOL    HW265421   7.326   8.010   7.012 -1.4956  0.6958 -0.2873
21615SOL     OW65422   6.153   8.600   3.867 -0.5191  0.7861 -0.4385
21615SOL    HW165423   6.134   8.672   3.927  0.7272  0.9211 -0.1654
21615SOL    HW265424   6.120   8.631   3.782 -0.8380  1.2851 -0.1400
21616SOL     OW65425   6.376   1.522   8.777 -0.0911 -0.0607  0.1967
21616SOL    HW165426   6.343   1.435   8.797  0.7972 -0.6543 -0.8500
21616SOL    HW265427   6.426   1.547   8.855  1.3819 -1.3674 -0.2844
21617SOL     OW65428   6.162   7.021   6.552 -0.2283 -0.3887  0.5572
21617SOL    HW165429   6.209   6.939   6.568 -0.5267 -0.6219  0.2763
21617SOL    HW265430   6.070   6.998   6.566 -0.4373 -0.4341 -0.7467
21618SOL     OW65431   4.148   1.979   7.386  0.7181  0.1959  0.0911
21618SOL    HW165432   4.221   2.040   7.379 -1.6156  3.1266 -0.6475
21618SOL    HW265433   4.160   1.918   7.312  1.7356  1.4069 -0.7781
21619SOL     OW65434   0.042   2.788   9.077  0.0244 -0.2381 -0.7172
21619SOL    HW165435   0.063   2.705   9.119  5.6343  1.7023  1.2425
21619SOL    HW265436   0.078   2.781   8.989  2.1725  0.5105  0.0349
21620SOL     OW65437   7.892   0.995   7.462 -0.1377  0.4249 -0.0981
21620SOL    HW165438   7.881   1.080   7.419 -1.6450  0.5484  0.4677
21620SOL    HW265439   7.870   1.011   7.554 -3.5569 -1.1268 -0.4844
21621SOL     OW65440   7.168   8.762   0.174  0.0774 -0.3183  0.3399
21621SOL    HW165441   7.190   8.842   0.128  1.8608 -1.4226 -0.8633
21621SOL    HW265442   7.103   8.719   0.118  0.9296 -0.8225 -0.2926
21622SOL     OW65443   9.361   9.641   3.092  0.3752  0.5993  0.9342
21622SOL    HW165444   9.408   9.639   3.008  0.3328 -0.7211  0.9185
21622SOL    HW265445   9.280   9.595   3.074 -0.0356  1.0965  1.4897
21623SOL     OW65446   9.743   6.249   3.638 -0.6676  0.1165  0.5999
21623SOL    HW165447   9.726   6.217   3.726 -0.4527 -1.5551  0.0555
21623SOL    HW265448   9.833   6.222   3.619 -0.2082  1.6856  0.3700
21624SOL     OW65449   4.238   5.208   9.211  0.2275 -0.1041  0.1963
21624SOL    HW165450   4.275   5.202   9.299  1.0178  2.7355  0.1510
21624SOL    HW265451   4.312   5.228   9.155 -0.2780 -1.8408 -1.1642
21625SOL     OW65452   2.900   3.315   8.741 -0.6952 -0.4749  0.0863
21625SOL    HW165453   2.966   3.307   8.810 -0.2731 -3.2035 -0.5348
21625SOL    HW265454   2.934   3.384   8.683 -0.4808  1.0322  1.9167
21626SOL     OW65455   2.270   9.836   9.355  0.8923 -0.8572 -0.5527
21626SOL    HW165456   2.229   9.815   9.439  1.9541  0.5123  0.3616
21626SOL    HW265457   2.225   9.916   9.327  0.9384 -0.9906 -1.0178
21627SOL     OW65458   7.948   5.940   2.474 -0.8511  0.4999 -0.2047
21627SOL    HW165459   8.017   6.006   2.468 -0.6831  0.3035 -0.3960
21627SOL    HW265460   7.898   5.966   2.552 -0.4657  0.5482  0.0300
21628SOL     OW65461   0.390   6.912   2.550 -0.4432 -0.0091 -0.0653
21628SOL    HW165462   0.306   6.876   2.580  0.8550 -1.2965  2.2620
21628SOL    HW265463   0.451   6.838   2.554  1.2127  1.3100  0.0434
21629SOL     OW65464   6.467   2.696   3.569 -0.2652 -0.0540  0.7816
21629SOL    HW165465   6.523   2.755   3.519  1.6258 -1.7990  0.7242
21629SOL    HW265466   6.408   2.658   3.504  0.0870  0.0160  0.4187
21630SOL     OW65467   8.208   6.949   7.464  0.2444 -0.4334  0.4731
21630SOL    HW165468   8.210   6.914   7.553  0.6379  2.9132  1.9638
21630SOL    HW265469   8.127   7.001   7.461 -0.5906 -1.7404 -1.7460
21631SOL     OW65470   4.254   1.933   2.383  0.0725  0.1242 -0.0971
21631SOL    HW165471   4.348   1.915   2.379 -0.1084 -0.7483 -0.6997
21631SOL    HW265472   4.233   1.972   2.298 -0.0775  0.5115  0.1136
21632SOL     OW65473   2.331   6.177   7.173  0.2754  0.2346  0.0993
21632SOL    HW165474   2.269   6.188   7.101  0.3968  2.0111  0.2368
21632SOL    HW265475   2.338   6.264   7.213  0.7525 -0.5540  1.8226
21633SOL     OW65476   0.165   6.130   7.197 -0.2048  0.8717  0.0861
21633SOL    HW165477   0.169   6.192   7.270 -1.6667  0.7235  0.3235
21633SOL    HW265478   0.076   6.095   7.201  0.3028 -0.5391 -0.6239
21634SOL     OW65479   4.179   3.927   9.880 -0.0745 -0.3056  0.3037
21634SOL    HW165480   4.150   4.018   9.889  0.8659  0.0725 -0.2423
21634SOL    HW265481   4.176   3.892   9.968 -1.3805 -0.0519  0.3815
21635SOL     OW65482   8.523   2.260   4.538 -0.2904  0.2533  0.0031
21635SOL    HW165483   8.480   2.188   4.493  0.1492 -0.3027  0.4619
21635SOL    HW265484   8.501   2.248   4.631 -1.7417  1.7583 -0.0935
21636SOL     OW65485   2.690   6.476   4.125  0.7341  0.1666  0.2466
21636SOL    HW165486   2.655   6.387   4.119 -0.1177  0.5813 -1.7187
21636SOL    HW265487   2.624   6.524   4.175  0.9634 -0.1769  0.8954
21637SOL     OW65488   0.281   6.952   6.035 -0.0851 -0.0379  0.4191
21637SOL    HW165489   0.219   6.953   5.962  0.7959 -1.4944 -0.4098
21637SOL    HW265490   0.314   7.042   6.041 -0.4723  0.1938 -0.7252
21638SOL     OW65491   3.041   5.100   6.929  0.5671 -0.1251  0.0706
21638SOL    HW165492   2.951   5.134   6.932  0.6262 -0.0387  1.1162
21638SOL    HW265493   3.088   5.161   6.872  0.7175  1.6843  2.0399
21639SOL     OW65494   3.647   2.239   3.285 -0.0982 -0.0292  0.0672
21639SOL    HW165495   3.609   2.290   3.214 -0.7353  1.9278  1.7011
21639SOL    HW265496   3.634   2.294   3.363  0.2141 -2.2390  1.7666
21640SOL     OW65497   3.828   4.759   2.771 -0.0337 -0.8373 -0.4391
21640SOL    HW165498   3.813   4.681   2.719 -1.4790 -2.6013  2.3492
21640SOL    HW265499   3.865   4.726   2.853  1.6536  1.7119 -0.0560
21641SOL     OW65500   1.688   4.375   1.129 -0.2573 -0.0222  0.1177
21641SOL    HW165501   1.710   4.286   1.155  1.5905  0.0504 -1.0070
21641SOL    HW265502   1.605   4.367   1.083  0.4948 -1.3963 -1.0871
21642SOL     OW65503   2.468   7.456   2.051  0.0429 -0.0025  0.1750
21642SOL    HW165504   2.503   7.428   2.136  0.6126  0.9623  0.2726
21642SOL    HW265505   2.531   7.521   2.020 -0.2785 -0.1898 -0.8936
21643SOL     OW65506   9.500   7.511   5.289 -0.1401 -0.0560 -0.2011
21643SOL    HW165507   9.559   7.450   5.333 -0.1721  0.9856  1.3748
21643SOL    HW265508   9.441   7.456   5.237  2.3030 -1.1261 -2.0380
21644SOL     OW65509   5.010   5.057   0.142  0.2194  0.0517  0.1419
21644SOL    HW165510   4.991   5.009   0.061 -1.8195  0.7380  0.1672
21644SOL    HW265511   5.006   4.990   0.211 -1.3166  0.0068  0.0312
21645SOL     OW65512   6.489   5.999   4.997 -0.7964 -0.1961  0.2555
21645SOL    HW165513   6.579   5.995   5.029 -0.8144  0.4132  0.3913
21645SOL    HW265514   6.476   6.090   4.972 -1.0262 -0.5068 -0.8060
21646SOL     OW65515   8.547   2.674   6.597  0.2825 -0.5296 -0.2395
21646SOL    HW165516   8.552   2.628   6.513  0.7243 -0.3569 -0.3127
21646SOL    HW265517   8.574   2.763   6.576  2.4910 -0.9731  0.4573
21647SOL     OW65518   1.696   4.123   9.635 -0.2078 -0.6642 -0.1399
21647SOL    HW165519   1.773   4.164   9.675 -1.7933  0.1052  2.3695
21647SOL    HW265520   1.638   4.197   9.615 -0.5005 -1.2665 -1.6735
21648SOL     OW65521   3.273   9.119   1.307 -0.0076 -0.3374  0.4836
21648SOL    HW165522   3.236   9.206   1.325 -1.0034 -1.3043  3.8610
21648SOL    HW265523   3.350   9.114   1.362  0.9389 -1.0892 -0.8624
21649SOL     OW65524   9.761   3.238   8.441 -0.1870  0.5691  0.1387
21649SOL    HW165525   9.790   3.291   8.366  1.1390  0.8287  0.8074
21649SOL    HW265526   9.698   3.294   8.486 -1.1668  0.3298 -0.8635
21650SOL     OW65527   8.212   9.281   9.066  0.0251  0.1263 -0.4088
21650SOL    HW165528   8.271   9.349   9.098 -0.1263  0.8878 -1.6828
21650SOL    HW265529   8.206   9.219   9.139 -0.3142  1.7568  1.0392
21651SOL     OW65530   3.987   1.812   2.880  0.6479  0.2728 -0.6167
21651SOL    HW165531   4.047   1.800   2.806  1.5757  0.9513 -0.0020
21651SOL    HW265532   3.993   1.731   2.929 -0.7281 -0.5748 -1.7933
21652SOL     OW65533   1.870   5.421   7.520  0.2405 -0.2804  0.0404
21652SOL    HW165534   1.861   5.407   7.425  0.0949  2.7913 -0.5066
21652SOL    HW265535   1.958   5.389   7.540 -0.4738 -2.9372 -0.6215
21653SOL     OW65536   3.233   3.799   8.039 -0.3960 -0.3542 -0.6862
21653SOL    HW165537   3.261   3.710   8.060 -0.4731 -0.2153  0.0306
21653SOL    HW265538   3.142   3.804   8.068 -0.0762  0.2738  0.2721
21654SOL     OW65539   6.437   8.319   6.933 -0.3684 -0.5002 -0.6966
21654SOL    HW165540   6.361   8.374   6.951  0.9673  1.0091  0.6179
21654SOL    HW265541   6.467   8.348   6.847  1.6163  2.5861  0.8533
21655SOL     OW65542   1.053   1.225   1.176 -0.4809  0.3274  0.2721
21655SOL    HW165543   0.994   1.240   1.250 -0.9855 -2.6863  0.6085
21655SOL    HW265544   1.117   1.162   1.208  1.0538  1.1604 -1.0430
21656SOL     OW65545   5.486   1.540   6.551  0.1187 -0.1682 -0.4145
21656SOL    HW165546   5.567   1.547   6.501 -0.3862  1.1207 -1.0915
21656SOL    HW265547   5.485   1.449   6.582  1.8020 -0.2094 -0.3942
21657SOL     OW65548   3.624   5.757   1.934 -0.3681 -0.3212 -0.0049
21657SOL    HW165549   3.595   5.677   1.977  1.0305  0.8472  3.4526
21657SOL    HW265550   3.705   5.733   1.890  0.5851 -0.6828  1.8513
21658SOL     OW65551   2.954   1.103   2.474  0.0614  0.2225 -0.0502
21658SOL    HW165552   2.968   1.180   2.529 -1.1364 -1.0340  2.1070
21658SOL    HW265553   2.891   1.049   2.521 -0.0832 -1.5476 -2.0711
21659SOL     OW65554   0.546   7.109   7.395  0.4220  0.5583  0.2940
21659SOL    HW165555   0.537   7.172   7.323  2.8801  0.7728  0.0682
21659SOL    HW265556   0.597   7.156   7.461  0.1993 -0.3979  1.1640
21660SOL     OW65557   2.451   9.869   4.035  0.0510  0.4743 -0.2728
21660SOL    HW165558   2.511   9.826   4.096 -0.5330  0.4054  0.2602
21660SOL    HW265559   2.462   9.962   4.052  0.2187  0.4728 -0.3762
21661SOL     OW65560   0.554   9.149   3.156 -0.1752  0.2486  0.5261
21661SOL    HW165561   0.521   9.165   3.068 -2.0434 -0.1866  1.0834
21661SOL    HW265562   0.572   9.055   3.158  1.3901  0.5133  0.1689
21662SOL     OW65563   5.990   7.092   2.412 -0.1459  0.5075  0.4906
21662SOL    HW165564   5.928   7.033   2.368 -0.1659  1.7730 -1.2664
21662SOL    HW265565   6.076   7.056   2.392 -0.2219 -0.4256  1.7158
21663SOL     OW65566   1.838   3.742   6.381  0.0096  0.2799 -0.6050
21663SOL    HW165567   1.824   3.734   6.475  2.0264  2.6116  0.0004
21663SOL    HW265568   1.914   3.687   6.363  0.0293  0.3538 -0.7514
21664SOL     OW65569   6.455   6.349   1.804 -0.0278 -0.0775  0.1088
21664SOL    HW165570   6.425   6.434   1.773 -1.0535 -0.0098  1.2005
21664SOL    HW265571   6.422   6.287   1.739  1.9279  0.4234 -1.4644
21665SOL     OW65572   2.198   2.782   6.719 -0.5793  0.4058  0.0779
21665SOL    HW165573   2.253   2.705   6.728 -0.2344  0.5780 -0.4857
21665SOL    HW265574   2.112   2.748   6.694 -0.4790  0.1904  0.0261
21666SOL     OW65575   2.690   2.675   7.690 -0.1414 -0.1340  0.3173
21666SOL    HW165576   2.660   2.713   7.608 -0.8852  1.7332  1.3943
21666SOL    HW265577   2.646   2.590   7.695 -0.5598 -0.0055 -0.9022
21667SOL     OW65578   9.709   3.005   9.131  0.2837 -0.9102 -0.0055
21667SOL    HW165579   9.726   2.955   9.051 -0.4231  0.1779 -0.8634
21667SOL    HW265580   9.625   3.049   9.115  0.2713 -0.4385  1.2182
21668SOL     OW65581   2.904   9.538   4.574 -0.3454 -0.4431  0.5740
21668SOL    HW165582   2.831   9.478   4.562 -0.3451 -0.4142  0.4154
21668SOL    HW265583   2.982   9.483   4.568 -0.3085 -0.3040 -0.4910
21669SOL     OW65584   4.360   0.794   9.655  0.3096  0.1819 -0.3213
21669SOL    HW165585   4.291   0.817   9.718 -0.6999 -2.0398 -0.5397
21669SOL    HW265586   4.422   0.742   9.705  0.2014 -0.4597 -0.8482
21670SOL     OW65587   5.857   1.341   9.279  0.9131 -0.1899  0.3896
21670SOL    HW165588   5.826   1.310   9.194 -1.1241  0.7198  0.7469
21670SOL    HW265589   5.946   1.373   9.262  1.1633 -1.5192 -1.0168
21671SOL     OW65590   9.334   0.964   2.637 -0.2780 -0.6708  0.1285
21671SOL    HW165591   9.396   0.909   2.685  0.1939  1.0733  1.6301
21671SOL    HW265592   9.383   0.994   2.560  0.3821 -0.1953  0.7244
21672SOL     OW65593   4.431   6.228   5.404  0.0475  0.2988 -0.8203
21672SOL    HW165594   4.369   6.301   5.410  0.8748  0.9587 -0.0589
21672SOL    HW265595   4.389   6.157   5.453 -0.5738  0.3764 -1.2201
21673SOL     OW65596   1.298   6.856   1.181  0.3805 -0.2689 -0.1621
21673SOL    HW165597   1.340   6.925   1.129 -0.7342 -0.1877 -0.9800
21673SOL    HW265598   1.354   6.779   1.168 -0.8600 -0.8001 -3.0937
21674SOL     OW65599   2.631   9.876   5.951  0.2958  0.3273 -0.3029
21674SOL    HW165600   2.704   9.815   5.955 -0.3255 -0.4179 -0.0396
21674SOL    HW265601   2.658   9.943   5.888 -0.0498 -1.6219 -2.6484
21675SOL     OW65602   5.582   9.890   9.431 -0.4788 -0.1417  0.1726
21675SOL    HW165603   5.665   9.847   9.409  0.1746  1.1939 -0.1123
21675SOL    HW265604   5.588   9.907   9.525 -0.5167 -0.2152  0.1885
21676SOL     OW65605   0.426   9.093   0.405  0.3607 -0.6415 -0.1634
21676SOL    HW165606   0.467   9.014   0.369  0.7283  0.0299 -1.2529
21676SOL    HW265607   0.500   9.151   0.424  0.0561 -0.3256  0.0601
21677SOL     OW65608   5.348   6.508   8.136  0.3974  0.4225 -0.2937
21677SOL    HW165609   5.304   6.526   8.054 -0.3967  1.3416  0.3136
21677SOL    HW265610   5.343   6.413   8.146  0.1240  0.3488 -1.0845
21678SOL     OW65611   6.026   2.351   5.909  0.9746  0.1780  0.2742
21678SOL    HW165612   5.946   2.340   5.960  1.3317 -1.6966  0.5222
21678SOL    HW265613   6.094   2.364   5.975  1.1995 -0.5557  0.1896
21679SOL     OW65614   0.623   5.572   2.579 -0.6480  0.3914 -0.2692
21679SOL    HW165615   0.645   5.512   2.508 -3.6166 -0.9328 -0.2266
21679SOL    HW265616   0.690   5.557   2.645  1.1316  0.3194 -2.0076
21680SOL     OW65617   8.323   7.890   7.956  0.0672 -0.0250 -0.4468
21680SOL    HW165618   8.332   7.842   8.039 -2.2719 -1.1101 -0.7377
21680SOL    HW265619   8.385   7.847   7.897 -0.5807 -1.4394 -0.1446
21681SOL     OW65620   9.844   3.403   8.172 -0.2105 -0.1901 -0.4121
21681SOL    HW165621   9.922   3.377   8.124 -0.8485 -0.6490 -1.2216
21681SOL    HW265622   9.857   3.496   8.191  0.1857 -0.0798 -1.2113
21682SOL     OW65623   7.118   0.461   5.796  0.2482  0.4232  0.5010
21682SOL    HW165624   7.072   0.544   5.808 -1.1835 -0.1102 -0.8889
21682SOL    HW265625   7.124   0.451   5.701  1.2764 -0.6005  0.6484
21683SOL     OW65626   0.632   0.695   3.937  0.4197 -0.2694  0.1134
21683SOL    HW165627   0.671   0.676   3.852  1.0184  1.3288 -0.0215
21683SOL    HW265628   0.541   0.668   3.929  0.6052 -0.6461 -0.8415
21684SOL     OW65629   1.686   5.721   9.387  0.2311  0.7492 -0.5241
21684SOL    HW165630   1.674   5.771   9.467  1.2821  0.0242  0.0971
21684SOL    HW265631   1.718   5.785   9.323 -2.4951  1.7784 -1.0007
21685SOL     OW65632   9.277   2.181   5.334  0.3845  0.8431  0.1766
21685SOL    HW165633   9.353   2.123   5.345 -0.2844 -0.0587  0.1299
21685SOL    HW265634   9.212   2.147   5.395  0.1661  1.9060  0.5724
21686SOL     OW65635   3.102   5.363   3.712 -0.0647 -0.2886 -0.3776
21686SOL    HW165636   3.124   5.450   3.746 -3.5674  0.6855 -0.2352
21686SOL    HW265637   3.102   5.374   3.617 -0.2336 -0.1976 -0.3676
21687SOL     OW65638   4.125   6.683   6.699  0.0825  0.3218 -0.0410
21687SOL    HW165639   4.065   6.697   6.773  0.4370 -2.4380  0.8575
21687SOL    HW265640   4.091   6.607   6.653  0.9133  0.8883 -1.6939
21688SOL     OW65641   2.216   5.534   4.589 -0.4704  0.3199  0.3222
21688SOL    HW165642   2.268   5.533   4.508  0.8632  0.5677  1.1382
21688SOL    HW265643   2.280   5.513   4.658 -1.4570  0.7104  1.3761
21689SOL     OW65644   9.736   9.721   8.508 -0.3256 -0.1863  0.9937
21689SOL    HW165645   9.718   9.798   8.561  1.6389  1.3046 -0.3250
21689SOL    HW265646   9.664   9.661   8.527 -2.4404  2.2978  1.4211
21690SOL     OW65647   2.163   5.079   6.981  0.5075  0.1986  0.1313
21690SOL    HW165648   2.169   5.148   6.914  1.1467 -1.4707 -1.6357
21690SOL    HW265649   2.249   5.078   7.022 -0.0227  1.5247  1.3457
21691SOL     OW65650   9.748   7.899   5.376  0.5638  0.2852 -0.4153
21691SOL    HW165651   9.743   7.889   5.281 -2.2220 -0.0950 -0.3174
21691SOL    HW265652   9.709   7.985   5.392  1.7943  0.7129  0.3494
21692SOL     OW65653   2.589   0.616   6.703 -0.0535  0.0650  0.6159
21692SOL    HW165654   2.516   0.662   6.660 -0.6982 -0.7661  0.8104
21692SOL    HW265655   2.549   0.539   6.742  1.0449 -0.7412  0.1835
21693SOL     OW65656   1.984   9.295   4.027  0.0159  0.4714  0.3783
21693SOL    HW165657   2.019   9.316   3.940  0.0356  0.7602  0.4536
21693SOL    HW265658   1.998   9.375   4.078 -1.0019  0.6973  0.3261
21694SOL     OW65659   9.059   5.668   1.660  0.1608  0.1008 -0.1728
21694SOL    HW165660   9.126   5.614   1.701  0.5416  0.6356 -0.0695
21694SOL    HW265661   9.020   5.717   1.733  0.0908  0.2510 -0.3102
21695SOL     OW65662   9.759   6.779   0.232 -0.6207 -0.2094 -0.2746
21695SOL    HW165663   9.775   6.715   0.301  0.4808  0.0941 -0.2329
21695SOL    HW265664   9.841   6.784   0.184 -1.0087  0.4415 -0.8949
21696SOL     OW65665   1.995   2.700   2.274 -0.0955  0.4236 -0.7154
21696SOL    HW165666   2.023   2.632   2.335  0.0466  0.4017 -0.8036
21696SOL    HW265667   2.073   2.752   2.257 -1.0546  3.3174  2.6656
21697SOL     OW65668   4.547   9.250   8.602 -0.1203  0.0492  0.4062
21697SOL    HW165669   4.478   9.184   8.595  1.8850 -2.0139 -2.4995
21697SOL    HW265670   4.624   9.201   8.630  1.2424  1.2643 -1.0109
21698SOL     OW65671   5.709   5.913   4.930  0.0129 -0.1099 -0.6857
21698SOL    HW165672   5.721   5.830   4.975 -0.5146 -0.1581 -0.6284
21698SOL    HW265673   5.650   5.963   4.987 -1.9629 -0.7558 -2.0332
21699SOL     OW65674   6.182   7.914   2.750 -0.4976 -0.3044  0.0417
21699SOL    HW165675   6.124   7.966   2.806  0.5998  0.7646  0.2365
21699SOL    HW265676   6.170   7.952   2.663 -1.4144 -1.2726 -0.2739
21700SOL     OW65677   1.996   0.333   9.170  0.4579 -0.0651  0.3555
21700SOL    HW165678   1.959   0.353   9.256 -2.9866 -1.9850 -0.5159
21700SOL    HW265679   2.024   0.241   9.177 -1.7036 -0.9131 -0.9940
21701SOL     OW65680   5.806   3.504   8.128 -0.2140 -0.3047  0.4703
21701SOL    HW165681   5.789   3.571   8.062  0.1067 -0.0785  0.6161
21701SOL    HW265682   5.733   3.513   8.190 -0.0438  0.0696  0.6179
21702SOL     OW65683   9.182   5.885   4.550  0.0863 -0.0588 -0.4542
21702SOL    HW165684   9.214   5.830   4.477  1.0927 -0.7221  0.4446
21702SOL    HW265685   9.230   5.967   4.540  1.1166 -0.5666  0.1039
21703SOL     OW65686   4.975   5.959   3.375 -0.9982 -0.5010 -0.1958
21703SOL    HW165687   4.900   5.996   3.329 -0.5619  0.8350  0.1239
21703SOL    HW265688   5.049   6.014   3.348 -0.9697  1.4053  3.2158
21704SOL     OW65689   9.938   6.055   2.766  0.6255 -0.2424 -0.2672
21704SOL    HW165690  10.027   6.041   2.735  0.7761  0.3090 -0.1022
21704SOL    HW265691   9.946   6.127   2.829 -0.2431  1.3919 -1.8971
21705SOL     OW65692   8.626   9.795   1.113 -0.7191 -0.2078 -0.5707
21705SOL    HW165693   8.717   9.824   1.112 -0.1484 -1.9201 -1.2393
21705SOL    HW265694   8.576   9.870   1.081  0.0487  1.8576  2.5513
21706SOL     OW65695   9.359   5.321   8.899 -0.3732 -0.0899 -0.1035
21706SOL    HW165696   9.375   5.263   8.974  0.4497  0.4578  0.1490
21706SOL    HW265697   9.440   5.317   8.848 -0.3447  0.7553 -0.1351
21707SOL     OW65698   9.933   5.667   5.258 -0.9197 -0.1188 -0.2511
21707SOL    HW165699   9.992   5.635   5.190 -1.3610  0.7647 -1.0769
21707SOL    HW265700   9.956   5.617   5.336 -1.1724 -1.9855 -1.3260
21708SOL     OW65701   8.040   8.976   5.757  0.0216  0.1980  0.2553
21708SOL    HW165702   7.950   8.944   5.761 -0.6171  1.9536  1.0738
21708SOL    HW265703   8.037   9.062   5.800  2.2126  0.0334  0.8760
21709SOL     OW65704   1.897   3.324   2.563  0.0601 -0.0208  0.9010
21709SOL    HW165705   1.892   3.357   2.473 -1.3220 -0.0344  0.9379
21709SOL    HW265706   1.829   3.373   2.610 -1.3051 -2.0871  1.2074
21710SOL     OW65707   4.536   4.001   8.250  0.3019 -0.6018  0.8761
21710SOL    HW165708   4.472   3.930   8.253 -0.1258 -0.3094 -0.6471
21710SOL    HW265709   4.620   3.956   8.239 -0.0789 -0.9002 -1.3019
21711SOL     OW65710   3.675   7.676   2.216  0.3646 -0.3834  0.4280
21711SOL    HW165711   3.595   7.699   2.261 -0.0120 -0.3009 -0.2679
21711SOL    HW265712   3.741   7.670   2.285 -0.1604 -0.1081  0.9590
21712SOL     OW65713   7.384   3.713   4.976 -0.1788 -0.7602 -0.1393
21712SOL    HW165714   7.349   3.642   4.921 -1.9223 -0.0197 -0.0735
21712SOL    HW265715   7.338   3.792   4.944  0.6791  0.1064  0.7053
21713SOL     OW65716   5.096   0.276   7.978  0.2358 -0.1988  0.0044
21713SOL    HW165717   5.105   0.284   8.072  1.9473 -0.4576 -0.1147
21713SOL    HW265718   5.157   0.340   7.942  0.2660 -0.7264 -0.9263
21714SOL     OW65719   6.217   3.912   5.221 -0.5240  0.4064 -0.1951
21714SOL    HW165720   6.196   3.942   5.132  0.1174  0.0232 -0.4845
21714SOL    HW265721   6.191   3.820   5.222  2.0290 -0.4128 -0.9272
21715SOL     OW65722   1.856   5.540   0.269  0.2074  0.5900  0.2337
21715SOL    HW165723   1.775   5.523   0.318 -0.6738  1.6045 -0.8131
21715SOL    HW265724   1.909   5.461   0.283 -1.1413 -0.2921  0.6041
21716SOL     OW65725   9.739   8.730   7.412  0.1144  0.0684  0.4305
21716SOL    HW165726   9.831   8.749   7.392 -0.3785  1.2157 -0.9585
21716SOL    HW265727   9.700   8.714   7.326 -1.1931  0.5823  0.9171
21717SOL     OW65728   3.315   2.752   1.086  0.0393  0.6758  0.0896
21717SOL    HW165729   3.294   2.683   1.023  0.1453 -0.1403  0.9172
21717SOL    HW265730   3.332   2.705   1.168 -2.3316  1.8385  1.3413
21718SOL     OW65731   2.216   1.716   3.660  0.5857 -0.5065 -0.1141
21718SOL    HW165732   2.248   1.796   3.700  0.1732 -1.3300  1.9911
21718SOL    HW265733   2.121   1.728   3.654  0.5957 -0.5747 -0.4364
21719SOL     OW65734   2.427   8.454   5.243  0.4326 -0.5178  0.1089
21719SOL    HW165735   2.441   8.513   5.169 -0.0191  0.4831  0.8021
21719SOL    HW265736   2.349   8.405   5.219 -0.5786  0.8311  0.5305
21720SOL     OW65737   2.606   8.887   2.144  0.1242 -0.2415 -0.0362
21720SOL    HW165738   2.587   8.824   2.213 -0.2816  0.0910  0.1587
21720SOL    HW265739   2.524   8.895   2.094 -0.1375  0.8465  0.5270
21721SOL     OW65740   5.892   2.598   1.301  0.0477  0.5932 -0.2828
21721SOL    HW165741   5.839   2.671   1.331  1.2064  0.7879  1.4274
21721SOL    HW265742   5.922   2.624   1.214 -0.5270  1.6164 -0.1912
21722SOL     OW65743   7.435   5.816   7.528 -0.0196 -0.0666  0.5327
21722SOL    HW165744   7.402   5.808   7.618  1.1789  1.0025  1.0974
21722SOL    HW265745   7.406   5.903   7.500 -0.3615 -0.3840 -0.1257
21723SOL     OW65746   4.581   5.287   1.322 -0.7533  0.2798  0.3211
21723SOL    HW165747   4.602   5.380   1.324 -2.1853  0.7067 -1.6076
21723SOL    HW265748   4.654   5.246   1.275  0.6795  0.1006  2.5379
21724SOL     OW65749   1.976   2.016   0.293  0.1521 -0.5306 -0.3303
21724SOL    HW165750   2.010   2.091   0.341 -0.3678 -0.5011  0.0094
21724SOL    HW265751   2.041   1.999   0.226 -0.0184  0.6198 -0.8160
21725SOL     OW65752   2.003   7.243   7.499  0.5955  0.1178 -0.0009
21725SOL    HW165753   1.945   7.310   7.462  2.0868 -0.1875 -3.2074
21725SOL    HW265754   2.069   7.293   7.548 -0.2427  0.6974  0.5677
21726SOL     OW65755   7.950   4.247   3.259 -0.0076 -0.5270 -0.1977
21726SOL    HW165756   8.027   4.290   3.222 -0.8380 -0.2873 -1.7357
21726SOL    HW265757   7.963   4.252   3.354  2.3855 -1.4453 -0.3915
21727SOL     OW65758   1.935   7.576   8.727 -0.3121 -0.1945  0.1291
21727SOL    HW165759   2.009   7.568   8.788  0.3245  0.6321 -0.5121
21727SOL    HW265760   1.972   7.555   8.641 -1.1406 -1.0902 -0.0187
21728SOL     OW65761   2.417   3.397   9.146 -0.7341  0.5585  0.2253
21728SOL    HW165762   2.494   3.416   9.093 -0.6642  1.2327  0.5643
21728SOL    HW265763   2.343   3.414   9.087 -0.6740  1.9207  0.5207
21729SOL     OW65764   8.326   6.887   1.580 -0.1606 -0.0393  0.0272
21729SOL    HW165765   8.388   6.864   1.650  1.0289  0.3532 -0.8658
21729SOL    HW265766   8.241   6.858   1.613  0.3327  0.3668  1.7481
21730SOL     OW65767   0.453   0.602   6.907 -0.7532 -0.2745  0.2106
21730SOL    HW165768   0.474   0.566   6.820 -0.4681  0.8934 -0.2181
21730SOL    HW265769   0.507   0.551   6.967  3.0000  2.1425 -0.7744
21731SOL     OW65770   3.677   0.921   2.541 -0.2072 -0.3306 -0.3179
21731SOL    HW165771   3.606   0.859   2.560 -0.5802  0.4646  0.9896
21731SOL    HW265772   3.651   1.001   2.586  1.0235  0.2995 -0.6967
21732SOL     OW65773   5.222   3.749   6.267 -0.0821 -0.2952 -0.2530
21732SOL    HW165774   5.269   3.681   6.217 -0.1977 -0.5039 -0.0806
21732SOL    HW265775   5.289   3.815   6.286 -0.0984 -0.0812 -0.9185
21733SOL     OW65776   9.500   8.128   8.350 -0.7067  0.2162 -0.0941
21733SOL    HW165777   9.507   8.036   8.324  3.0645  0.1524  0.6289
21733SOL    HW265778   9.477   8.174   8.270 -2.1715 -1.2594 -0.5797
21734SOL     OW65779   4.771   4.718   6.201  0.1565 -0.1206  0.1640
21734SOL    HW165780   4.827   4.783   6.160 -1.1152  0.0832 -1.3680
21734SOL    HW265781   4.755   4.751   6.289 -0.5362  1.7298 -0.6124
21735SOL     OW65782   5.413   1.259   9.586 -0.3815  0.1158  0.2356
21735SOL    HW165783   5.506   1.234   9.589 -0.3692  0.2460  1.2304
21735SOL    HW265784   5.409   1.327   9.519  0.1813 -0.1153 -0.0470
21736SOL     OW65785   4.480   2.213   2.922 -0.3233 -0.8570 -0.2610
21736SOL    HW165786   4.427   2.182   2.848  0.4240  2.0043 -2.1813
21736SOL    HW265787   4.568   2.220   2.887  0.0559  0.5755  0.8751
21737SOL     OW65788   1.178   2.218   7.183 -0.2014  0.0051  0.3007
21737SOL    HW165789   1.225   2.302   7.186 -0.3853  0.0881  2.1244
21737SOL    HW265790   1.102   2.236   7.127  0.5617  0.6039 -0.5743
21738SOL     OW65791   9.729   8.177   0.521 -0.4142  0.2532  0.2668
21738SOL    HW165792   9.703   8.269   0.530 -1.5090 -0.0418  0.2987
21738SOL    HW265793   9.752   8.150   0.610  0.5275  0.6527  0.1615
21739SOL     OW65794   1.058   4.111   4.547  0.5226 -0.5611 -0.2836
21739SOL    HW165795   1.141   4.112   4.595  1.2539  0.3031 -1.4899
21739SOL    HW265796   1.022   4.200   4.558 -0.2989 -0.9558  0.3069
21740SOL     OW65797   7.916   5.619   4.949 -0.0841  0.0383  0.4815
21740SOL    HW165798   7.969   5.645   5.025  1.2687  0.2970 -0.5002
21740SOL    HW265799   7.981   5.600   4.881 -1.0705 -3.5993  0.3730
21741SOL     OW65800   0.263   8.621   7.231 -0.1010 -0.0896 -0.3554
21741SOL    HW165801   0.295   8.707   7.205 -1.1778  0.2484 -0.6066
21741SOL    HW265802   0.267   8.622   7.327 -2.5672  1.2700 -0.1821
21742SOL     OW65803   7.201   2.143   1.303  0.1904 -0.3765  0.4228
21742SOL    HW165804   7.106   2.137   1.295  0.1937 -0.8661  0.7107
21742SOL    HW265805   7.230   2.054   1.323  0.7455 -0.3006  0.0123
21743SOL     OW65806   4.632   8.211   9.730  0.1120 -0.1325  0.1850
21743SOL    HW165807   4.656   8.131   9.776  0.1357 -1.5685 -2.1504
21743SOL    HW265808   4.558   8.246   9.779 -0.1171 -1.7877  1.0691
21744SOL     OW65809   8.810   1.705   6.959 -0.5202  0.7012  0.0232
21744SOL    HW165810   8.785   1.782   7.010 -0.9579  0.0361  0.8525
21744SOL    HW265811   8.897   1.682   6.991 -0.4610  0.7530 -0.1012
21745SOL     OW65812   5.434   9.712   6.474  0.0126  0.0598 -0.7289
21745SOL    HW165813   5.517   9.727   6.519 -0.7095  0.3589  0.5695
21745SOL    HW265814   5.383   9.658   6.535 -1.0329  0.5480 -1.1386
21746SOL     OW65815   5.203   6.668   7.092  0.4273  0.1890 -0.4809
21746SOL    HW165816   5.227   6.638   7.005 -1.9847 -0.3402 -1.0346
21746SOL    HW265817   5.168   6.590   7.135  1.3308  0.5070  0.8944
21747SOL     OW65818   6.724   3.647   3.454  0.5665 -0.5970 -0.7847
21747SOL    HW165819   6.696   3.686   3.371  0.8498 -1.4063 -1.2734
21747SOL    HW265820   6.820   3.655   3.453  0.5937 -0.8855 -0.6833
21748SOL     OW65821   7.429   9.003   6.307  0.4943 -0.0058 -0.0788
21748SOL    HW165822   7.485   8.927   6.291  2.3600  1.2996 -0.1188
21748SOL    HW265823   7.478   9.078   6.272 -1.9153  1.0987 -1.3829
21749SOL     OW65824   3.242   2.245   5.308 -0.8277 -0.3900  0.2257
21749SOL    HW165825   3.211   2.269   5.395 -2.4584  1.1288 -0.7155
21749SOL    HW265826   3.190   2.167   5.286 -1.1044 -0.2117  0.2380
21750SOL     OW65827   3.439   5.681   4.643  0.1110 -0.3724 -0.1252
21750SOL    HW165828   3.530   5.664   4.617  0.7195  1.0507  0.9206
21750SOL    HW265829   3.428   5.629   4.723  0.2868  0.0943  0.2066
21751SOL     OW65830   4.070   5.702   4.397 -0.0995  0.1001 -0.0467
21751SOL    HW165831   4.034   5.640   4.333  1.4350 -0.2303 -0.6278
21751SOL    HW265832   4.161   5.716   4.370 -0.3002  2.4055  0.2455
21752SOL     OW65833   6.629   3.190   4.889  0.1110 -0.5721 -0.3261
21752SOL    HW165834   6.696   3.150   4.834 -1.3124 -0.2745 -2.4248
21752SOL    HW265835   6.669   3.269   4.925  0.5348  0.3454 -2.6405
21753SOL     OW65836   7.017   9.330   0.327  0.1630  0.4359  0.0497
21753SOL    HW165837   7.111   9.349   0.325  0.2631  0.1558  1.5538
21753SOL    HW265838   7.012   9.235   0.334 -0.2198  0.5088  0.8037
21754SOL     OW65839   4.074   4.398   2.407 -0.3165 -0.7085 -0.7283
21754SOL    HW165840   4.078   4.409   2.312  3.0728 -1.5120 -0.8345
21754SOL    HW265841   4.062   4.486   2.441 -0.8689 -0.3214 -1.8744
21755SOL     OW65842   9.228   0.887   4.484 -0.1135  0.1149  0.2669
21755SOL    HW165843   9.163   0.953   4.459  0.4926  0.0269 -1.7051
21755SOL    HW265844   9.177   0.807   4.493 -0.2147 -0.2413 -2.5193
21756SOL     OW65845   9.722   2.432   0.089 -0.0957  0.1498 -0.1230
21756SOL    HW165846   9.633   2.448   0.121 -0.1030 -0.7102  0.3088
21756SOL    HW265847   9.759   2.369   0.151 -0.3645 -2.2058 -2.1657
21757SOL     OW65848   8.483   6.462   0.556  0.1459 -0.0431 -0.1477
21757SOL    HW165849   8.540   6.487   0.629  1.2476  2.6694 -1.7464
21757SOL    HW265850   8.526   6.499   0.479 -1.1186 -2.4955 -2.1892
21758SOL     OW65851   0.469   5.337   8.478 -0.0866  0.4007  0.5423
21758SOL    HW165852   0.427   5.312   8.561  0.3973 -0.5368  0.5129
21758SOL    HW265853   0.562   5.340   8.498  0.0387  0.0952  0.0136
21759SOL     OW65854   8.709   6.786   7.328  0.3608 -0.1775 -0.2075
21759SOL    HW165855   8.630   6.827   7.364 -0.6202 -1.3973 -0.8687
21759SOL    HW265856   8.768   6.859   7.310 -0.3387  0.7128  0.9465
21760SOL     OW65857   4.887   0.513   7.002  0.4714  0.2338  0.1622
21760SOL    HW165858   4.869   0.457   7.078 -0.8828  0.8969  0.3599
21760SOL    HW265859   4.873   0.455   6.927  0.0553  0.0397  0.3853
21761SOL     OW65860   7.994   0.088   4.614 -0.3155 -0.1417  0.4043
21761SOL    HW165861   7.937   0.141   4.670 -0.0173  1.1249 -0.4591
21761SOL    HW265862   8.022   0.016   4.671 -1.0379  0.4095  1.4979
21762SOL     OW65863   6.594   8.665   6.206 -0.2106  0.0236 -0.4642
21762SOL    HW165864   6.522   8.610   6.234  0.8314 -2.1146 -1.7376
21762SOL    HW265865   6.673   8.615   6.227  0.7992  1.0758 -1.5534
21763SOL     OW65866   2.980   7.194   5.025  0.1123 -0.3767  0.2853
21763SOL    HW165867   2.925   7.257   4.977  1.3463 -0.4747 -1.3434
21763SOL    HW265868   3.062   7.241   5.040 -0.4224 -0.1313  2.9534
21764SOL     OW65869   0.972   0.977   9.310  0.4709  0.1520  0.1810
21764SOL    HW165870   0.908   0.906   9.301  0.9534 -0.4726  1.3737
21764SOL    HW265871   1.038   0.959   9.243  0.3882 -0.3226  0.2231
21765SOL     OW65872   6.484   9.929   1.415  0.0600 -0.2617  0.8985
21765SOL    HW165873   6.405   9.897   1.371  0.8127  1.0112 -1.5318
21765SOL    HW265874   6.460   9.931   1.508 -3.3594  1.4882  0.1694
21766SOL     OW65875   8.342  -0.021   8.696 -0.7875 -0.0321  0.1253
21766SOL    HW165876   8.323   0.072   8.686  0.5746  0.1349 -1.1798
21766SOL    HW265877   8.423  -0.025   8.745 -1.5691 -0.6015  1.4272
21767SOL     OW65878   0.263   5.758   0.486  0.2235 -0.3594  0.3170
21767SOL    HW165879   0.173   5.744   0.455  0.5681  0.5241 -1.1774
21767SOL    HW265880   0.272   5.853   0.488  0.4426 -0.3766  2.6093
21768SOL     OW65881   9.042   3.546   8.793  0.6551  0.0128 -0.2634
21768SOL    HW165882   9.078   3.615   8.849  2.2954 -0.7931 -0.2491
21768SOL    HW265883   8.953   3.574   8.773  0.4163  0.8651  1.8293
21769SOL     OW65884   3.540   1.360   1.739  0.2983 -0.2042  0.3490
21769SOL    HW165885   3.535   1.265   1.726 -0.0339 -0.3658  1.4903
21769SOL    HW265886   3.481   1.377   1.813  0.0157  0.9579 -0.1166
21770SOL     OW65887   5.466   2.106   9.029 -0.0005 -0.4997  0.6829
21770SOL    HW165888   5.462   2.201   9.024 -0.0338 -0.4657  1.2594
21770SOL    HW265889   5.552   2.083   8.995 -0.0708 -0.2798  0.3542
21771SOL     OW65890   2.852   1.898   5.201  0.4357  0.3184  0.1610
21771SOL    HW165891   2.789   1.890   5.130 -1.0452 -0.5035  1.4907
21771SOL    HW265892   2.861   1.809   5.236 -0.5314  1.0004  2.3155
21772SOL     OW65893   8.242   5.474   4.413  0.0328 -0.1996  0.3113
21772SOL    HW165894   8.290   5.550   4.449 -0.7729  0.3789  0.1839
21772SOL    HW265895   8.310   5.409   4.396  0.4111 -0.8402  3.6315
21773SOL     OW65896   4.023   4.397   7.182 -0.1285 -0.4353 -0.6655
21773SOL    HW165897   3.981   4.388   7.097 -0.4659 -1.7621 -0.3783
21773SOL    HW265898   4.092   4.331   7.183  2.0020  1.6464 -1.0959
21774SOL     OW65899   3.722   7.862   0.042  0.0171  0.0876 -0.3964
21774SOL    HW165900   3.653   7.860  -0.024 -0.3391 -0.4835 -0.0144
21774SOL    HW265901   3.779   7.788   0.018 -0.9537 -1.1080  0.8041
21775SOL     OW65902   3.574   9.196   2.218 -0.4025  0.1382 -0.4384
21775SOL    HW165903   3.529   9.257   2.159 -0.3215  0.5922 -0.0382
21775SOL    HW265904   3.618   9.253   2.282  0.9421 -0.2730 -0.9517
21776SOL     OW65905   0.795   6.899   1.225 -0.1838  0.1828 -0.4448
21776SOL    HW165906   0.776   6.806   1.215 -0.2159 -0.2868  2.8484
21776SOL    HW265907   0.868   6.915   1.165  0.1733 -2.0913 -0.7250
21777SOL     OW65908   0.438   4.711   6.883 -0.1904  0.0494  0.0867
21777SOL    HW165909   0.479   4.797   6.890 -1.0200  0.4758 -0.1998
21777SOL    HW265910   0.432   4.695   6.788  0.7275 -0.7043  0.1403
21778SOL     OW65911   4.566   0.251   9.522 -0.0540 -0.0774  0.0753
21778SOL    HW165912   4.549   0.255   9.616 -2.3847  0.6212 -0.3255
21778SOL    HW265913   4.611   0.333   9.502  1.9152 -0.9305  0.7946
21779SOL     OW65914   2.249   3.998   9.575  0.2730  0.7836 -0.9356
21779SOL    HW165915   2.319   4.022   9.514  2.9251  1.0767  2.0169
21779SOL    HW265916   2.221   4.081   9.614  0.1050  0.4097 -0.2455
21780SOL     OW65917   9.027   2.674   3.313 -0.0931  0.5128 -0.9320
21780SOL    HW165918   8.949   2.728   3.329 -0.1164 -0.1297  1.4966
21780SOL    HW265919   9.050   2.692   3.222 -1.8750  2.2855 -1.1078
21781SOL     OW65920   6.889   5.361   2.982 -0.1653  0.2723  0.1044
21781SOL    HW165921   6.881   5.394   3.071  0.2663  0.9213 -0.0880
21781SOL    HW265922   6.968   5.307   2.983 -0.6708 -0.4693  0.3322
21782SOL     OW65923   9.105   0.490   9.310 -0.3861 -0.2252  0.3082
21782SOL    HW165924   9.082   0.573   9.268 -0.6005 -1.0877 -1.3478
21782SOL    HW265925   9.038   0.477   9.377 -1.3465  0.1161 -0.5751
21783SOL     OW65926   8.971   3.175   4.967  0.0231  0.1887  0.3878
21783SOL    HW165927   8.893   3.162   4.913 -0.2512 -0.0057  0.8269
21783SOL    HW265928   8.947   3.247   5.026  1.5689  2.9882 -2.1188
21784SOL     OW65929   6.991   7.821   6.042 -0.0424 -0.2626  0.3552
21784SOL    HW165930   6.970   7.732   6.071  2.1798 -0.2316  2.3955
21784SOL    HW265931   7.066   7.810   5.982 -0.3662  0.1877 -0.1467
21785SOL     OW65932   9.360   4.876   9.776 -0.3109 -0.0528 -0.0426
21785SOL    HW165933   9.283   4.925   9.804  0.2705  0.0407  1.4627
21785SOL    HW265934   9.348   4.788   9.812 -1.2108 -1.0150 -2.4831
21786SOL     OW65935   6.528   0.244   9.909  0.3308  0.0353 -0.0455
21786SOL    HW165936   6.473   0.170   9.937  0.6093 -0.5515 -0.9825
21786SOL    HW265937   6.602   0.243   9.970  1.1547 -1.4918 -1.0004
21787SOL     OW65938   6.284   8.764   4.076  0.3167  0.0386  0.0268
21787SOL    HW165939   6.282   8.807   4.162  0.4983 -0.1343  0.1193
21787SOL    HW265940   6.246   8.828   4.016  0.5667  0.3241  0.1667
21788SOL     OW65941   0.737   9.102   1.664  0.4299  0.1147  0.2441
21788SOL    HW165942   0.820   9.084   1.709  0.2284 -2.1292 -0.1692
21788SOL    HW265943   0.763   9.130   1.576  0.7848 -0.6995  0.0746
21789SOL     OW65944   9.252   1.289   5.510 -0.3236  0.1680 -0.3839
21789SOL    HW165945   9.221   1.247   5.590 -0.1912 -1.3755 -1.1170
21789SOL    HW265946   9.347   1.272   5.509 -0.2962  0.3339 -0.7752
21790SOL     OW65947   9.039   2.054   9.944 -0.3426  0.4456  0.0993
21790SOL    HW165948   8.956   2.097   9.924 -0.2287  0.5810 -0.0861
21790SOL    HW265949   9.027   2.018  10.032 -0.6616  0.3039  0.0002
21791SOL     OW65950   7.187   0.855   0.919  0.7263  0.1510 -0.7103
21791SOL    HW165951   7.139   0.929   0.882 -0.3062 -0.7300 -1.2141
21791SOL    HW265952   7.195   0.875   1.012 -1.3750 -0.0081 -0.4354
21792SOL     OW65953   8.839   5.507   8.135 -0.2462 -0.5821  0.1558
21792SOL    HW165954   8.867   5.437   8.194 -2.1499  0.9833  3.2317
21792SOL    HW265955   8.905   5.576   8.146  1.3239 -1.5400 -2.4375
21793SOL     OW65956   4.313   6.063   2.013  0.1879 -0.6580  0.3136
21793SOL    HW165957   4.242   6.116   2.047 -0.7384 -1.5518 -0.1732
21793SOL    HW265958   4.393   6.105   2.045 -0.5690  0.1142  1.2112
21794SOL     OW65959   4.140   0.042   1.793  0.0220  0.2963  0.2197
21794SOL    HW165960   4.203  -0.021   1.758  0.8957  1.7602 -0.9940
21794SOL    HW265961   4.179   0.070   1.876  1.0766  1.2554 -0.5606
21795SOL     OW65962   9.945   3.826   9.388 -0.4705 -0.1560 -0.5239
21795SOL    HW165963   9.915   3.909   9.351  0.1582 -0.0440 -0.8146
21795SOL    HW265964   9.933   3.835   9.482 -0.8302  0.0846 -0.5910
21796SOL     OW65965   7.474   8.024   2.768 -0.0488  0.5055 -0.4331
21796SOL    HW165966   7.400   8.068   2.725  0.7050  1.7301 -0.5379
21796SOL    HW265967   7.539   8.093   2.778  0.0066  0.1621  2.2676
21797SOL     OW65968   1.475   1.095   0.663  0.4610 -0.4517 -0.5893
21797SOL    HW165969   1.539   1.156   0.628  1.0182 -0.6261  0.1158
21797SOL    HW265970   1.424   1.068   0.586  0.6266  0.3868 -1.0088
21798SOL     OW65971   7.590   3.217   4.506 -0.8256 -0.6911 -0.0076
21798SOL    HW165972   7.634   3.301   4.520 -2.4266  1.1233 -4.1690
21798SOL    HW265973   7.511   3.223   4.561 -0.1712 -0.1752  0.9074
21799SOL     OW65974   9.964   6.898   7.098 -0.0363 -0.2909  0.5427
21799SOL    HW165975   9.886   6.953   7.094  0.1639  0.2987  2.9575
21799SOL    HW265976  10.036   6.957   7.076 -0.0897 -0.2949  0.3621
21800SOL     OW65977   1.911   3.390   6.506  0.2365  0.0756  1.0887
21800SOL    HW165978   1.911   3.483   6.527 -0.7786  0.1455  0.7999
21800SOL    HW265979   1.994   3.358   6.542  2.5032  1.8046 -2.0395
21801SOL     OW65980   9.013   9.242   3.719  0.7458  0.1298  0.5573
21801SOL    HW165981   9.029   9.207   3.631  1.4254  0.4321  0.5513
21801SOL    HW265982   8.919   9.235   3.731  0.9464 -3.3271  1.2441
21802SOL     OW65983   6.951   6.560   8.719 -0.1638 -0.3192  0.5609
21802SOL    HW165984   7.043   6.589   8.713  0.6397 -2.7527 -0.1107
21802SOL    HW265985   6.909   6.626   8.774  1.3228  2.3664 -1.2526
21803SOL     OW65986   5.090   9.087   3.244  0.4197  0.5608 -0.2304
21803SOL    HW165987   5.145   9.121   3.314 -0.6728  1.1822  0.3360
21803SOL    HW265988   5.145   9.021   3.201  1.6396  1.2376  0.2510
21804SOL     OW65989   7.909   2.736   9.105 -0.3943  0.1386  0.7761
21804SOL    HW165990   7.947   2.777   9.027 -2.6756 -0.9505 -1.0460
21804SOL    HW265991   7.853   2.804   9.143  0.4104  0.5412  1.2732
21805SOL     OW65992   3.769   4.038   8.765 -0.1429 -0.2557  0.0600
21805SOL    HW165993   3.752   4.112   8.823  0.9646  0.5186 -0.5678
21805SOL    HW265994   3.863   4.040   8.750  0.2619 -3.0743  1.7007
21806SOL     OW65995   9.101   2.813   1.008 -0.0026 -0.0406 -0.0448
21806SOL    HW165996   9.061   2.749   0.948 -0.8251 -0.6119  1.0772
21806SOL    HW265997   9.175   2.767   1.047  0.4111  0.2640 -0.4590
21807SOL     OW65998   0.956   3.223   3.254 -0.4198  0.5254  0.4477
21807SOL    HW165999   0.953   3.170   3.334  1.2864 -0.6261 -0.1900
21807SOL    HW266000   0.865   3.233   3.229 -0.8470 -1.6714  0.9169
21808SOL     OW66001   4.773   0.525   0.608  0.0542  0.2150  0.3227
21808SOL    HW166002   4.749   0.599   0.664 -0.0819  0.5598 -0.1767
21808SOL    HW266003   4.863   0.544   0.580 -0.1261  0.4072 -0.1383
21809SOL     OW66004   8.062   9.582   1.715  0.3760  0.3070 -0.2722
21809SOL    HW166005   8.052   9.563   1.808  1.3764 -0.5792 -0.3245
21809SOL    HW266006   8.000   9.524   1.672 -0.2981  0.9288 -0.1431
21810SOL     OW66007   6.994   8.723   0.982 -0.1823  0.5729  0.3308
21810SOL    HW166008   6.910   8.682   1.003  0.3287 -0.5020  0.3036
21810SOL    HW266009   7.008   8.704   0.890 -1.4047  3.4923 -0.5775
21811SOL     OW66010   4.551   8.490   7.577  0.2585 -0.3875  0.3765
21811SOL    HW166011   4.566   8.430   7.649  2.0306 -1.8351 -1.0664
21811SOL    HW266012   4.474   8.456   7.532 -0.0923 -0.2309  0.8592
21812SOL     OW66013   8.924   0.451   7.124 -0.0632  0.1032  0.0820
21812SOL    HW166014   8.918   0.358   7.100  2.0375  0.2413 -1.3013
21812SOL    HW266015   8.974   0.451   7.206  1.1774  0.0199 -0.6412
21813SOL     OW66016   1.759   4.112   8.110 -0.0802 -0.4000  0.2395
21813SOL    HW166017   1.723   4.036   8.156  0.1572  0.2493  1.5509
21813SOL    HW266018   1.778   4.175   8.180 -0.3027  0.8848 -0.8238
21814SOL     OW66019   6.472   3.523   3.526  0.3274  0.0914  0.6317
21814SOL    HW166020   6.561   3.548   3.502  0.6863  0.0246  1.8400
21814SOL    HW266021   6.466   3.430   3.504 -0.6742  0.8309 -2.8950
21815SOL     OW66022   7.382   1.452   4.567 -0.0046  0.5126 -0.4470
21815SOL    HW166023   7.336   1.461   4.483 -0.8988  2.3401  0.1886
21815SOL    HW266024   7.358   1.365   4.599  1.0035 -0.5688 -2.4327
21816SOL     OW66025   7.345   9.811   4.696 -0.1178  0.2199 -0.2321
21816SOL    HW166026   7.330   9.803   4.790 -0.6328  1.1160 -0.2230
21816SOL    HW266027   7.275   9.869   4.666 -1.7003 -2.2276 -1.6413
21817SOL     OW66028   2.455   7.002   9.016 -0.2063  0.1635  0.0638
21817SOL    HW166029   2.527   7.065   9.012 -0.4903  0.5284  0.5328
21817SOL    HW266030   2.416   7.016   9.102  0.3928 -1.3893  0.6447
21818SOL     OW66031   0.850   9.031   3.772  0.4034  0.1718  0.3646
21818SOL    HW166032   0.939   9.045   3.802  0.7414 -0.1553 -0.4594
21818SOL    HW266033   0.803   9.111   3.795  0.9246  0.3835  0.7008
21819SOL     OW66034   1.832   4.604   9.782  0.3862  0.0742 -0.1574
21819SOL    HW166035   1.777   4.649   9.846 -0.1141 -0.4932 -0.1846
21819SOL    HW266036   1.906   4.571   9.834 -0.3386 -0.9435  0.2637
21820SOL     OW66037   6.661   7.968   4.697  0.4280 -0.3139  0.3492
21820SOL    HW166038   6.637   7.987   4.606 -0.6029  1.4682  0.9278
21820SOL    HW266039   6.708   8.047   4.725  1.4260 -1.1772  1.1410
21821SOL     OW66040   6.557   2.315   2.250  0.5437 -0.4176  0.1334
21821SOL    HW166041   6.550   2.304   2.155  0.3990 -1.0048  0.2116
21821SOL    HW266042   6.615   2.390   2.261 -0.0262  0.1224 -0.4280
21822SOL     OW66043   5.443   1.255   0.255 -0.3218  0.9614 -0.3438
21822SOL    HW166044   5.407   1.186   0.199  0.3220 -1.6913  2.2507
21822SOL    HW266045   5.507   1.300   0.200 -1.1734 -0.0994 -2.3102
21823SOL     OW66046   8.181   4.767   1.346 -0.3046 -0.1852 -0.1382
21823SOL    HW166047   8.123   4.844   1.338  1.1337  0.8589 -1.0541
21823SOL    HW266048   8.121   4.693   1.349 -1.7175  0.8581 -1.0083
21824SOL     OW66049   6.705   9.546   8.428  0.5673  0.2295  0.7749
21824SOL    HW166050   6.674   9.626   8.386 -0.1292 -1.8884 -3.3320
21824SOL    HW266051   6.625   9.504   8.461 -0.0749 -1.3612 -2.4153
21825SOL     OW66052   4.857   3.865   3.470 -0.0690  0.2232 -0.0222
21825SOL    HW166053   4.815   3.879   3.555  1.6935 -1.7127  1.2599
21825SOL    HW266054   4.786   3.836   3.412 -1.3628  1.9333  0.6236
21826SOL     OW66055   7.211   5.672   8.741  0.3235 -0.2796  0.1314
21826SOL    HW166056   7.258   5.619   8.806  1.3229  0.8540  0.3666
21826SOL    HW266057   7.268   5.747   8.725 -0.2808 -0.1206 -1.4672
21827SOL     OW66058   1.668   6.260   8.713  0.1105  0.5750  0.4973
21827SOL    HW166059   1.664   6.347   8.672  1.7369  0.6091  0.3346
21827SOL    HW266060   1.644   6.275   8.804 -0.0434  1.1157  0.3741
21828SOL     OW66061   4.278   0.459   2.293 -0.1338 -0.4603 -0.5022
21828SOL    HW166062   4.370   0.479   2.272  0.0570 -0.5389  0.2169
21828SOL    HW266063   4.229   0.531   2.253  0.4019  0.5743  0.5961
21829SOL     OW66064   6.228   8.709   8.708 -0.3447 -0.1189 -0.0719
21829SOL    HW166065   6.166   8.639   8.689 -0.0271 -0.8603  1.4854
21829SOL    HW266066   6.233   8.711   8.803  0.3277  1.4420 -0.1186
21830SOL     OW66067   7.575   1.054   7.534  0.0721  0.4831 -0.0475
21830SOL    HW166068   7.583   1.073   7.441  0.9329 -0.7153 -0.2500
21830SOL    HW266069   7.505   0.989   7.540  1.2709 -0.8680 -0.1117
21831SOL     OW66070   9.014   2.154   6.321 -0.0642 -0.2235 -0.0559
21831SOL    HW166071   8.984   2.077   6.369 -0.4854 -0.6222 -0.9373
21831SOL    HW266072   9.076   2.196   6.380 -2.0269  0.4030  1.6642
21832SOL     OW66073   5.251   9.784   0.120  0.4949  0.3893 -0.6238
21832SOL    HW166074   5.226   9.828   0.201  0.0293 -0.6206 -0.2087
21832SOL    HW266075   5.206   9.833   0.051  1.6213  1.8219 -0.3858
21833SOL     OW66076   9.723   6.609   5.016  0.2463  0.2972 -0.6801
21833SOL    HW166077   9.746   6.695   5.049 -1.0013  0.3272  0.1831
21833SOL    HW266078   9.764   6.548   5.077 -0.8043  0.3348  0.0954
21834SOL     OW66079   5.878   1.149   2.132  0.1069  0.3393 -0.5497
21834SOL    HW166080   5.850   1.102   2.054  1.1036 -0.4358 -0.4680
21834SOL    HW266081   5.803   1.144   2.191 -1.0173  1.7821 -1.7906
21835SOL     OW66082   3.599   1.039   5.086 -0.2522  0.5353 -0.4300
21835SOL    HW166083   3.607   1.072   5.176  1.3290  0.9005 -0.6748
21835SOL    HW266084   3.688   1.042   5.051 -0.6588 -0.6500 -1.6623
21836SOL     OW66085   3.720   9.962   7.974  0.1624 -0.1963 -0.0128
21836SOL    HW166086   3.704   9.948   8.067  0.5071  0.3034  0.1244
21836SOL    HW266087   3.768   9.883   7.946  0.0488 -0.3520  0.2305
21837SOL     OW66088   4.793   1.229   2.514  0.3080 -0.2243  0.0635
21837SOL    HW166089   4.731   1.300   2.500 -0.3332 -0.6171  0.8179
21837SOL    HW266090   4.746   1.167   2.570  1.2870 -0.6553  0.4305
21838SOL     OW66091   1.534   1.308   8.466 -0.9467 -0.0567 -0.0665
21838SOL    HW166092   1.440   1.318   8.479 -0.9465  1.8415 -1.1102
21838SOL    HW266093   1.564   1.395   8.441  0.9270 -0.8383 -0.7361
21839SOL     OW66094   0.014   8.907   3.447 -0.5850  0.0488  0.4787
21839SOL    HW166095   0.057   8.834   3.493  0.2743  0.2184 -0.0373
21839SOL    HW266096  -0.019   8.963   3.517  2.3640  1.3078  1.0114
21840SOL     OW66097   0.282   6.977   9.842 -0.1612  0.4452  0.6066
21840SOL    HW166098   0.209   7.017   9.796 -1.0410  0.3562  1.8799
21840SOL    HW266099   0.307   7.041   9.908 -0.3638 -0.3096  1.4408
21841SOL     OW66100   7.611   7.455   5.957 -0.0109  0.0654  0.3972
21841SOL    HW166101   7.664   7.471   5.879 -1.2609  1.2097 -0.2784
21841SOL    HW266102   7.660   7.497   6.028  1.2965 -1.2607  0.3307
21842SOL     OW66103   3.274   5.836   4.876 -0.0064  0.2888 -0.1090
21842SOL    HW166104   3.265   5.797   4.963 -2.4035 -0.9009 -0.8156
21842SOL    HW266105   3.322   5.771   4.826  1.0933  0.8390  0.1811
21843SOL     OW66106   5.260   9.487   7.627 -0.3880 -0.1235 -0.2234
21843SOL    HW166107   5.181   9.464   7.675 -1.5055  1.4374 -1.2309
21843SOL    HW266108   5.260   9.429   7.551  1.0429 -2.1466  1.2121
21844SOL     OW66109   8.045   1.741   6.756  0.7580  0.3351 -0.0465
21844SOL    HW166110   8.140   1.725   6.755  0.8694  0.9499  0.0936
21844SOL    HW266111   8.036   1.831   6.724  0.4011  1.0494  1.9012
21845SOL     OW66112   3.130   0.549   3.029  0.6470 -0.1727 -0.1997
21845SOL    HW166113   3.098   0.500   2.953 -6.2654  0.2505  1.7214
21845SOL    HW266114   3.135   0.484   3.099  3.1071  0.1168 -0.0185
21846SOL     OW66115   4.532   1.479   6.236  0.1154  0.3134  0.2077
21846SOL    HW166116   4.585   1.450   6.162  0.2871  0.2178  0.3673
21846SOL    HW266117   4.465   1.411   6.246 -0.6732  0.9398 -0.6380
21847SOL     OW66118   3.746   1.588   6.003  0.3781 -0.0468  0.0192
21847SOL    HW166119   3.746   1.600   5.908  4.0675 -1.0779 -0.2968
21847SOL    HW266120   3.795   1.663   6.037 -0.8309  0.2668  1.1274
21848SOL     OW66121   9.579   3.399   2.111  1.1185  0.0526 -0.2882
21848SOL    HW166122   9.483   3.402   2.108  1.1031 -0.8586 -1.0312
21848SOL    HW266123   9.604   3.481   2.154  0.0097  0.2934 -0.0659
21849SOL     OW66124   0.144   0.260   8.636  0.3996 -0.0284 -0.5092
21849SOL    HW166125   0.183   0.323   8.576  0.2622  0.5010 -0.0456
21849SOL    HW266126   0.133   0.180   8.583  0.2780  0.4296 -1.1831
21850SOL     OW66127   1.901   7.502   9.089  0.1111  0.0009  0.3547
21850SOL    HW166128   1.860   7.442   9.026 -0.8830  1.6249 -0.6076
21850SOL    HW266129   1.982   7.457   9.115  0.0573 -1.1747 -1.3048
21851SOL     OW66130   1.158   1.331   2.208  0.3346  0.1805 -0.5215
21851SOL    HW166131   1.107   1.329   2.289 -0.6163  1.2890 -1.0660
21851SOL    HW266132   1.135   1.250   2.163 -1.5900  1.0136 -1.1156
21852SOL     OW66133   0.679   8.653   5.292  0.2076 -0.9418  0.8294
21852SOL    HW166134   0.728   8.730   5.320 -0.7998 -0.1511  0.4521
21852SOL    HW266135   0.737   8.580   5.313  1.3615 -0.0688  0.8029
21853SOL     OW66136   3.194   5.108   7.970  0.1596 -0.6512  0.2318
21853SOL    HW166137   3.267   5.054   7.941  1.3525  0.5713  0.8162
21853SOL    HW266138   3.209   5.118   8.064 -0.6764 -0.2550  0.3260
21854SOL     OW66139   0.162   5.012   3.530  0.3940  0.1852 -0.3340
21854SOL    HW166140   0.155   5.106   3.517 -1.4602  0.0208 -0.8739
21854SOL    HW266141   0.168   5.001   3.625 -0.8789  0.8267 -0.1475
21855SOL     OW66142   9.410   2.958   2.271 -0.2664 -0.1776 -0.0494
21855SOL    HW166143   9.475   2.997   2.212 -0.3330  0.3449  0.2137
21855SOL    HW266144   9.361   3.033   2.305  0.6585 -0.3522  1.7404
21856SOL     OW66145   5.528   8.025   9.524  0.3052 -0.0250  0.3979
21856SOL    HW166146   5.480   7.977   9.456  2.3277 -0.9391 -0.4543
21856SOL    HW266147   5.495   7.988   9.606 -1.0974  0.0428 -0.1033
21857SOL     OW66148   2.476   7.293   8.277  0.3728 -0.2875  0.5890
21857SOL    HW166149   2.559   7.291   8.325  0.4762 -0.3506  0.4081
21857SOL    HW266150   2.490   7.359   8.209  1.4717 -2.6117 -1.5930
21858SOL     OW66151   2.291   9.151   0.531  0.2690 -0.4450  0.0479
21858SOL    HW166152   2.298   9.083   0.465  0.4125 -1.3401  0.9671
21858SOL    HW266153   2.307   9.107   0.614 -0.2456  0.5864  0.7273
21859SOL     OW66154   7.030   4.049   1.743  0.3334  0.2748 -0.2560
21859SOL    HW166155   7.042   4.053   1.648  0.7927 -0.3823 -0.2391
21859SOL    HW266156   7.047   4.138   1.774  0.0846  0.5119 -0.7999
21860SOL     OW66157   1.607   6.059   5.605 -0.0045 -0.2091  0.1687
21860SOL    HW166158   1.536   6.096   5.551 -0.4704  0.3911  1.1469
21860SOL    HW266159   1.685   6.066   5.550 -0.3449  0.9851 -0.2116
21861SOL     OW66160   7.227   4.983   5.032 -0.0287 -0.6709  0.2379
21861SOL    HW166161   7.240   4.901   5.080  1.6849 -2.0849 -2.3756
21861SOL    HW266162   7.189   4.956   4.949 -1.4345  1.4895  0.1170
21862SOL     OW66163   3.766   9.467   4.672 -0.2387  0.0158  0.2811
21862SOL    HW166164   3.808   9.511   4.745  2.0150  2.3494 -2.1640
21862SOL    HW266165   3.770   9.373   4.693  0.4398  0.5932  2.9837
21863SOL     OW66166   1.780   6.532   2.312  0.6688  0.3960 -0.4023
21863SOL    HW166167   1.849   6.598   2.302  0.5765  0.5728  0.1113
21863SOL    HW266168   1.730   6.537   2.231 -0.6887  2.4921  0.5099
21864SOL     OW66169   2.932   9.237   1.430 -0.6915  0.0269  0.8346
21864SOL    HW166170   2.928   9.197   1.343  2.3041  3.2680 -1.0442
21864SOL    HW266171   2.986   9.177   1.481 -0.6460 -0.8589 -0.2208
21865SOL     OW66172   4.195   8.374   1.396 -0.1915  0.3204  0.2451
21865SOL    HW166173   4.205   8.321   1.475 -0.1866 -0.8891 -0.5477
21865SOL    HW266174   4.157   8.457   1.428 -2.7122 -1.0925  1.2271
21866SOL     OW66175   8.628   6.363   8.868  0.0834  0.2303  0.1309
21866SOL    HW166176   8.719   6.335   8.857 -0.1762 -1.0320  0.9974
21866SOL    HW266177   8.581   6.283   8.893 -1.2979  0.8335 -0.4289
21867SOL     OW66178   9.758   3.539   1.500  0.3168 -0.1737  0.8316
21867SOL    HW166179   9.822   3.570   1.435  0.9758 -3.4342 -0.2753
21867SOL    HW266180   9.808   3.533   1.582  1.6459 -2.8179 -0.0475
21868SOL     OW66181   4.176   9.510   4.089  0.5750 -0.7423  0.3977
21868SOL    HW166182   4.266   9.517   4.057  0.2286 -0.8172 -0.6323
21868SOL    HW266183   4.123   9.550   4.021 -0.1242 -0.0197  1.3344
21869SOL     OW66184   8.397   5.203   1.436 -0.1920 -0.2417 -0.0691
21869SOL    HW166185   8.452   5.132   1.469 -0.6574 -0.6976 -0.2510
21869SOL    HW266186   8.308   5.167   1.438 -0.4897  0.5016  0.2764
21870SOL     OW66187   4.264   3.999   8.642  0.3570 -0.1095 -0.2336
21870SOL    HW166188   4.355   4.012   8.615 -0.4863  1.4875 -2.6867
21870SOL    HW266189   4.212   4.034   8.569 -2.2751  2.0117  2.4223
21871SOL     OW66190   7.624   6.453   0.159  0.4124 -0.1925  0.2253
21871SOL    HW166191   7.677   6.378   0.184  0.0888 -0.2437  0.7825
21871SOL    HW266192   7.538   6.436   0.199  0.3464  0.4852  0.3781
21872SOL     OW66193   6.598   8.492   2.264  0.3071  0.0956  0.1929
21872SOL    HW166194   6.651   8.523   2.190 -0.7890  1.9761  0.1342
21872SOL    HW266195   6.659   8.488   2.337  1.3759 -1.6399 -0.7365
21873SOL     OW66196   1.694   4.911   9.646  0.0098 -0.1790  0.0338
21873SOL    HW166197   1.641   4.985   9.618  0.1050  0.6623  1.9302
21873SOL    HW266198   1.631   4.846   9.676 -0.1110 -1.2372 -2.3349
21874SOL     OW66199   2.776   1.355   3.594  0.5304  0.5345 -0.0949
21874SOL    HW166200   2.785   1.443   3.557  1.5169  0.4159 -0.1568
21874SOL    HW266201   2.687   1.328   3.570  0.6776  0.9917 -1.2334
21875SOL     OW66202   0.815   4.563   2.118  0.6839 -0.5662  0.1770
21875SOL    HW166203   0.786   4.477   2.087 -0.1021 -0.5400  0.7973
21875SOL    HW266204   0.876   4.544   2.189  1.9242 -0.6170 -0.8669
21876SOL     OW66205   3.121   9.458   4.940  0.1521  0.6640 -0.9820
21876SOL    HW166206   3.173   9.470   5.019  1.6799 -1.3166 -1.6016
21876SOL    HW266207   3.035   9.430   4.971  0.7640 -0.2002  0.0002
21877SOL     OW66208   7.108   1.095   0.823  0.3332 -0.9520 -0.0332
21877SOL    HW166209   7.060   1.168   0.863 -0.3587 -1.6727  0.4721
21877SOL    HW266210   7.077   1.093   0.733 -0.1871 -1.0608  0.1420
21878SOL     OW66211   3.335   4.188   2.659 -0.2309  0.0044 -0.4114
21878SOL    HW166212   3.295   4.260   2.611 -1.3780 -0.8848 -0.8634
21878SOL    HW266213   3.264   4.154   2.714 -0.0583 -1.4809 -1.0531
21879SOL     OW66214   3.896   9.797   5.467 -0.6382  0.4821  0.4520
21879SOL    HW166215   3.810   9.833   5.448 -1.8779 -2.6458 -0.4371
21879SOL    HW266216   3.878   9.711   5.506  2.0209 -1.3866 -2.0586
21880SOL     OW66217   4.478   2.582   7.279  0.4840  0.2967 -0.7787
21880SOL    HW166218   4.397   2.583   7.330  2.2145  1.2625  2.1678
21880SOL    HW266219   4.494   2.674   7.258  0.9447  0.1401 -1.1360
21881SOL     OW66220   7.994   2.971   1.509 -0.5980 -0.1726  0.8103
21881SOL    HW166221   8.017   3.018   1.589  0.0629 -1.2198  1.2516
21881SOL    HW266222   7.898   2.971   1.508 -0.6243  1.4126  0.6358
21882SOL     OW66223   1.041   9.508   3.766  0.5274  0.0700  0.2916
21882SOL    HW166224   1.051   9.540   3.676 -1.0529  0.1377  0.1158
21882SOL    HW266225   1.103   9.560   3.817  1.4793 -0.0017 -0.7622
21883SOL     OW66226   5.346   7.836   8.749 -0.3764 -0.1572 -0.3657
21883SOL    HW166227   5.302   7.867   8.828 -1.3508  1.9884 -1.6689
21883SOL    HW266228   5.297   7.758   8.723 -2.5860  1.3725 -0.9833
21884SOL     OW66229   3.569   6.738   2.990 -0.1925 -0.0448 -0.6561
21884SOL    HW166230   3.535   6.713   3.076 -0.4541 -1.1578 -1.0617
21884SOL    HW266231   3.567   6.834   2.990  0.8147  0.0191  0.9694
21885SOL     OW66232   3.193   4.705   3.197  0.1963 -0.1471 -0.8326
21885SOL    HW166233   3.226   4.792   3.174  2.0113 -0.0881  1.6059
21885SOL    HW266234   3.260   4.668   3.254 -2.1020 -1.7674  1.0133
21886SOL     OW66235   9.405   5.860   1.507 -0.0307 -0.1469 -0.4579
21886SOL    HW166236   9.432   5.940   1.552  2.7778 -1.1504 -0.2191
21886SOL    HW266237   9.403   5.885   1.414 -1.6103  0.7823 -0.2159
21887SOL     OW66238   1.344   3.742   6.453  0.3492 -0.3545 -0.0092
21887SOL    HW166239   1.358   3.731   6.359 -1.2703  0.2618 -0.3555
21887SOL    HW266240   1.430   3.725   6.492  1.5586  1.2672 -1.7515
21888SOL     OW66241   0.772   9.916   6.480  0.7318 -0.8018 -0.1147
21888SOL    HW166242   0.830   9.840   6.482 -0.1339 -1.4866 -0.3469
21888SOL    HW266243   0.685   9.879   6.464 -0.0648  0.0439  1.9715
21889SOL     OW66244   7.221   1.258   5.416 -0.2703  0.3262 -0.2777
21889SOL    HW166245   7.274   1.282   5.339 -0.3868 -3.0862 -1.6045
21889SOL    HW266246   7.170   1.337   5.435  1.4999  2.0847 -2.1668
21890SOL     OW66247   3.190   9.310   8.789  0.0046  0.7434  0.0836
21890SOL    HW166248   3.159   9.236   8.842 -1.1603  0.5831 -0.7890
21890SOL    HW266249   3.215   9.376   8.853 -0.6985  0.2833  0.8463
21891SOL     OW66250   8.588   5.180   0.202 -0.4534 -0.0281 -0.2616
21891SOL    HW166251   8.588   5.110   0.136  1.8357  1.4152 -1.9154
21891SOL    HW266252   8.592   5.261   0.151  1.1055  1.1661  1.6225
21892SOL     OW66253   4.284   1.834   6.361 -0.1322 -0.2612  0.3548
21892SOL    HW166254   4.300   1.923   6.329 -0.8039 -0.8863 -1.9230
21892SOL    HW266255   4.363   1.786   6.339  0.5329 -0.1235  2.2480
21893SOL     OW66256   5.934   3.608   2.790  0.1138 -0.5103 -0.3943
21893SOL    HW166257   5.845   3.610   2.825  0.5549  1.2072  0.7720
21893SOL    HW266258   5.951   3.516   2.770 -1.9590 -0.8413 -0.7764
21894SOL     OW66259   5.326   5.383   3.342 -0.0301  0.2934  0.0371
21894SOL    HW166260   5.333   5.290   3.322 -0.3755  0.6243 -1.8264
21894SOL    HW266261   5.412   5.419   3.320 -0.3200  0.6225 -0.5872
21895SOL     OW66262   3.910   7.954   5.264  0.4190  0.3611 -0.7713
21895SOL    HW166263   3.903   8.047   5.285 -1.2081 -0.3708  2.6236
21895SOL    HW266264   3.845   7.912   5.321  2.8480 -3.0998 -0.2633
21896SOL     OW66265   3.144   9.858   3.053 -0.0242  0.0615  0.1041
21896SOL    HW166266   3.121   9.799   3.124  0.8496  1.0105  1.2258
21896SOL    HW266267   3.220   9.907   3.086 -2.1771  3.6008  0.3383
21897SOL     OW66268   1.752   1.077   3.328 -0.5958  0.2494  0.1761
21897SOL    HW166269   1.735   1.044   3.239 -0.2963 -0.5138  0.3942
21897SOL    HW266270   1.787   1.002   3.375 -2.1034  0.2419  1.3642
21898SOL     OW66271   3.144   4.928   7.360  0.2608  0.6952  0.1246
21898SOL    HW166272   3.171   4.891   7.276  0.4286  2.6637 -0.7203
21898SOL    HW266273   3.149   4.854   7.421  0.0092 -0.8116 -1.6007
21899SOL     OW66274   7.467   9.785   1.550 -0.6770  0.1013 -0.1728
21899SOL    HW166275   7.488   9.718   1.485  0.0658 -0.1593  0.3201
21899SOL    HW266276   7.474   9.867   1.503  2.0868  0.0965  0.0432
21900SOL     OW66277   0.310   2.573   9.931 -0.1499 -0.1070 -0.2050
21900SOL    HW166278   0.381   2.524   9.891  0.1516 -0.7427  1.0599
21900SOL    HW266279   0.240   2.572   9.865  0.2949 -1.1803 -0.6811
21901SOL     OW66280   1.512   1.981   3.743  0.3606  0.1578 -0.1073
21901SOL    HW166281   1.427   1.980   3.787 -0.1972  0.3023 -1.1634
21901SOL    HW266282   1.547   1.892   3.756 -1.2377 -0.8334 -2.0953
21902SOL     OW66283   6.278   6.766   1.432  0.1140 -0.1827 -0.0947
21902SOL    HW166284   6.360   6.755   1.480  0.5684 -1.8946 -1.1631
21902SOL    HW266285   6.263   6.860   1.432  0.8811 -0.0064  2.0391
21903SOL     OW66286   0.591   3.956   0.105 -0.5214  0.0564 -0.2463
21903SOL    HW166287   0.569   3.863   0.114  0.1156 -0.2515 -1.5527
21903SOL    HW266288   0.615   3.983   0.193 -0.6512 -1.0447  0.1470
21904SOL     OW66289   7.880   6.762   8.118 -0.5931 -0.2234 -0.1343
21904SOL    HW166290   7.928   6.788   8.197 -0.5052  0.0666 -0.2803
21904SOL    HW266291   7.818   6.832   8.103 -1.4646 -0.8717  0.3720
21905SOL     OW66292   9.802   4.063   9.977  0.4029 -0.3370  0.3602
21905SOL    HW166293   9.764   4.106   9.900 -0.9807  2.6420  2.4988
21905SOL    HW266294   9.774   3.972   9.970 -1.1848  0.2294 -1.7679
21906SOL     OW66295   8.638   5.989   1.441 -0.5597  0.4254  0.1243
21906SOL    HW166296   8.671   5.948   1.521  0.5291 -1.5460 -1.2399
21906SOL    HW266297   8.606   5.916   1.388 -3.7913  1.9123 -0.2129
21907SOL     OW66298   9.968   2.733   3.848  0.4734 -0.1646 -0.4634
21907SOL    HW166299   9.933   2.821   3.845 -0.4717 -0.4259  1.6367
21907SOL    HW266300   9.929   2.689   3.772 -0.5870  0.6716 -0.4187
21908SOL     OW66301   5.263   1.553   0.009 -0.2514 -0.1321  0.6405
21908SOL    HW166302   5.341   1.498   0.007 -0.0580  0.1295 -1.0437
21908SOL    HW266303   5.190   1.492   0.021  0.2012 -0.3111  2.9919
21909SOL     OW66304   0.658   8.241   8.233  0.5590  0.1707  0.1602
21909SOL    HW166305   0.675   8.297   8.157  1.6511 -1.5431 -0.9133
21909SOL    HW266306   0.608   8.168   8.198  2.1274 -1.2676  0.8109
21910SOL     OW66307   3.620   3.701   2.743 -0.2168  0.0904 -0.5245
21910SOL    HW166308   3.571   3.737   2.818 -0.2406 -0.8636 -0.0648
21910SOL    HW266309   3.686   3.767   2.724 -0.2416  0.3742  0.3205
21911SOL     OW66310   4.937   9.095   5.730  0.3626  0.2943 -0.4648
21911SOL    HW166311   4.893   9.061   5.652  1.2165  1.5176 -1.5190
21911SOL    HW266312   5.029   9.070   5.717  0.7577  1.7266 -0.5790
21912SOL     OW66313   0.670   1.377   9.813 -0.0289 -0.1030  0.2790
21912SOL    HW166314   0.675   1.285   9.839  0.8273 -0.5000 -1.2164
21912SOL    HW266315   0.687   1.425   9.894  0.5611 -1.2705  0.8679
21913SOL     OW66316   0.965   4.114   2.498 -0.4692 -0.0772  0.0022
21913SOL    HW166317   1.014   4.065   2.431  1.8326  0.9366  0.8262
21913SOL    HW266318   1.005   4.087   2.581  0.3274  2.4639  0.5468
21914SOL     OW66319   4.322   5.323   6.418  0.1150 -0.4253 -0.1755
21914SOL    HW166320   4.312   5.271   6.338 -1.7977  1.5123 -1.3117
21914SOL    HW266321   4.247   5.298   6.472 -0.7215  0.9328 -0.6537
21915SOL     OW66322   5.816   7.627   4.497 -0.6775 -0.5869  0.1325
21915SOL    HW166323   5.858   7.670   4.422 -0.9574  2.3095  1.5023
21915SOL    HW266324   5.736   7.677   4.513 -0.5340 -0.9627  2.4852
21916SOL     OW66325   0.660   4.332   0.346  0.4655  0.2412 -1.0553
21916SOL    HW166326   0.620   4.419   0.342  0.3369  0.2249 -0.2467
21916SOL    HW266327   0.612   4.280   0.282 -0.2475  0.4492 -0.6994
21917SOL     OW66328   7.891   6.108   4.030  0.5454  0.0026 -0.3665
21917SOL    HW166329   7.913   6.046   4.100 -0.3318 -0.2305 -0.2876
21917SOL    HW266330   7.950   6.085   3.958  1.5340  0.3144  0.3254
21918SOL     OW66331   6.290   1.391   8.392 -0.4540  0.1884 -0.6432
21918SOL    HW166332   6.244   1.449   8.453 -1.0531 -1.2612  0.3646
21918SOL    HW266333   6.220   1.350   8.341 -0.3223 -1.6416  0.5399
21919SOL     OW66334   4.953   8.473   1.060  0.2402  0.2457 -0.0301
21919SOL    HW166335   4.922   8.454   0.972  1.7185  1.6014 -0.8902
21919SOL    HW266336   4.925   8.563   1.078 -0.3442 -0.1255  1.0428
21920SOL     OW66337   0.014   8.896   5.926 -0.5980 -0.3215 -0.6168
21920SOL    HW166338  -0.072   8.858   5.909 -1.3401  0.2915  1.5409
21920SOL    HW266339   0.074   8.842   5.874 -1.8182 -3.1997  0.7351
21921SOL     OW66340   6.523   0.149   2.598 -0.2006  0.6177  0.0544
21921SOL    HW166341   6.477   0.214   2.544 -2.9916 -1.4950 -0.3032
21921SOL    HW266342   6.591   0.113   2.540 -0.6342  1.0514 -0.7389
21922SOL     OW66343   7.714   7.101   0.141 -1.0248  0.1287  0.9156
21922SOL    HW166344   7.642   7.071   0.197 -1.3339 -0.5188  0.1846
21922SOL    HW266345   7.731   7.028   0.082 -3.1195  1.9995 -2.2971
21923SOL     OW66346   9.004   9.829   9.619 -0.3200 -0.3766 -0.3488
21923SOL    HW166347   9.033   9.905   9.569 -0.8070  0.1096  0.0847
21923SOL    HW266348   8.996   9.862   9.709  0.4970 -1.2248  0.0405
21924SOL     OW66349   2.734   1.454   2.940 -0.1195 -0.0818 -0.0941
21924SOL    HW166350   2.809   1.438   2.882 -1.3533  0.1059 -1.8390
21924SOL    HW266351   2.673   1.506   2.886 -1.1081  0.5812  1.5811
21925SOL     OW66352   6.147   0.768   2.396 -0.3476 -0.1915 -0.1980
21925SOL    HW166353   6.228   0.787   2.350 -0.3919  0.3247 -0.0635
21925SOL    HW266354   6.080   0.820   2.351 -0.8794 -1.6597 -1.1982
21926SOL     OW66355   3.517   7.305   5.101 -0.2208  0.1308 -0.2433
21926SOL    HW166356   3.494   7.374   5.039  1.6309  0.9983 -0.0306
21926SOL    HW266357   3.562   7.239   5.048 -0.0928  0.0983 -0.0953
21927SOL     OW66358   2.598   1.535   8.368  0.0499  0.0615 -0.4297
21927SOL    HW166359   2.536   1.608   8.376  1.1653  0.9735  0.1712
21927SOL    HW266360   2.586   1.504   8.278  0.9797  2.3486 -1.4335
21928SOL     OW66361   4.416   7.321   2.011  0.2860  0.2033 -0.0027
21928SOL    HW166362   4.352   7.392   2.004  1.4752  1.2457 -0.7869
21928SOL    HW266363   4.484   7.355   2.068  0.6072 -0.5366  0.0691
21929SOL     OW66364   9.712   6.795   3.534  0.7129 -0.0049 -0.1628
21929SOL    HW166365   9.673   6.709   3.524 -0.1515  0.2782  0.5686
21929SOL    HW266366   9.801   6.786   3.500  0.9595 -1.4395  0.7710
21930SOL     OW66367   6.379   3.970   8.690 -0.1807 -0.8042  0.4216
21930SOL    HW166368   6.419   3.930   8.768  0.0019 -1.3679  0.0418
21930SOL    HW266369   6.369   3.897   8.628  0.3838 -0.2163 -0.3740
21931SOL     OW66370   9.067   3.906   0.224 -0.3977  0.0271 -0.5738
21931SOL    HW166371   9.111   3.934   0.144  0.8088  0.3090  0.1522
21931SOL    HW266372   9.018   3.983   0.252  2.2811  1.3266  0.9865
21932SOL     OW66373   5.843   5.813   3.624  0.4150 -0.1653 -0.3743
21932SOL    HW166374   5.913   5.867   3.662 -0.5103 -0.7342  2.2922
21932SOL    HW266375   5.801   5.871   3.561  0.6594  1.6299  1.0287
21933SOL     OW66376   7.374   5.208   4.923  0.3748  0.2583  0.6813
21933SOL    HW166377   7.356   5.194   4.830  0.3559 -0.3590  0.7769
21933SOL    HW266378   7.333   5.134   4.967  1.2739 -0.0011  1.0936
21934SOL     OW66379   1.577   4.502   5.359  0.0109 -0.8201  0.2838
21934SOL    HW166380   1.542   4.435   5.300  0.6013 -1.4742  0.6730
21934SOL    HW266381   1.668   4.511   5.333 -0.6197  1.6420 -1.4515
21935SOL     OW66382   2.427   4.177   6.394  0.1840 -0.0689 -0.3416
21935SOL    HW166383   2.449   4.092   6.432  0.1659  1.3253  3.2295
21935SOL    HW266384   2.333   4.186   6.407  0.1863  0.5164 -0.6869
21936SOL     OW66385   3.461   3.936   1.126  0.3306 -0.3683 -0.0870
21936SOL    HW166386   3.530   3.871   1.113 -0.7215 -1.3482 -0.9760
21936SOL    HW266387   3.412   3.905   1.202 -0.1025 -0.5835 -0.4435
21937SOL     OW66388   0.741   8.302   3.756 -0.0530  0.4307  0.0194
21937SOL    HW166389   0.648   8.323   3.760 -0.2976 -0.7117  0.7886
21937SOL    HW266390   0.765   8.321   3.665 -1.6736 -1.6624 -0.9486
21938SOL     OW66391   9.239   8.078   8.654 -0.3968 -0.5508 -0.3184
21938SOL    HW166392   9.184   8.002   8.672 -0.7966 -0.3533 -0.6802
21938SOL    HW266393   9.209   8.145   8.715  0.1136 -0.7522  0.1603
21939SOL     OW66394   5.637   1.147   3.095  0.1535 -0.4099 -0.3640
21939SOL    HW166395   5.648   1.213   3.027  1.2685 -0.8486 -0.6215
21939SOL    HW266396   5.607   1.196   3.171  1.0780  0.4204 -0.5123
21940SOL     OW66397   2.866   4.250   0.214  0.1850  0.1501  0.8714
21940SOL    HW166398   2.774   4.225   0.219  0.6499 -2.0795 -0.2995
21940SOL    HW266399   2.903   4.226   0.299 -0.0831  0.0620  0.9614
21941SOL     OW66400   0.197   9.324   8.950  0.3753  0.5936  0.1834
21941SOL    HW166401   0.259   9.389   8.982  0.3586  1.5843 -1.6932
21941SOL    HW266402   0.240   9.283   8.876 -0.1013 -0.7320  0.6112
21942SOL     OW66403   9.042   5.169   0.374  0.1085 -0.2586 -0.1453
21942SOL    HW166404   9.129   5.169   0.414 -0.1168 -0.8012  0.3568
21942SOL    HW266405   9.034   5.256   0.334  1.7302 -0.9341 -2.0906
21943SOL     OW66406   6.732   4.594   7.737  0.2034 -0.4358  0.2494
21943SOL    HW166407   6.780   4.674   7.755 -2.3657  1.0835  0.8418
21943SOL    HW266408   6.710   4.559   7.823 -3.9693  1.7238  0.3206
21944SOL     OW66409   8.684   6.383   6.144  1.0756  0.0484 -0.0703
21944SOL    HW166410   8.633   6.401   6.223 -1.6492 -2.4789 -1.0171
21944SOL    HW266411   8.729   6.301   6.163  2.9066  0.9844 -0.1534
21945SOL     OW66412   1.773   1.342   2.059  0.0858  0.0472  0.3159
21945SOL    HW166413   1.828   1.291   2.119 -0.2838  0.2284  0.8088
21945SOL    HW266414   1.699   1.285   2.040  0.4241 -0.1873 -0.3305
21946SOL     OW66415   9.211   8.222   4.061 -0.0925 -0.0362  0.2706
21946SOL    HW166416   9.159   8.213   4.141 -0.2121 -0.0650  0.1895
21946SOL    HW266417   9.153   8.266   3.999  0.6363  1.7584  0.8038
21947SOL     OW66418   7.535   3.601   3.783 -0.6735  0.0381  0.2110
21947SOL    HW166419   7.549   3.687   3.741  0.0373 -0.2158 -0.0975
21947SOL    HW266420   7.537   3.539   3.710 -0.2012 -0.3334  0.5364
21948SOL     OW66421   4.932   5.474   6.710 -0.0882  0.0204 -0.0422
21948SOL    HW166422   4.957   5.429   6.790 -0.7359 -0.0930  0.1027
21948SOL    HW266423   4.871   5.542   6.739  0.3538  0.5546 -0.3390
21949SOL     OW66424   6.849   5.775   3.716 -0.2646 -0.1200 -0.6038
21949SOL    HW166425   6.809   5.813   3.795  0.6104  1.9336 -1.1008
21949SOL    HW266426   6.790   5.800   3.645  0.0215 -0.2006 -0.8709
21950SOL     OW66427   9.678   9.715   2.279  0.2549 -0.7420  0.1675
21950SOL    HW166428   9.689   9.785   2.342 -1.0726 -1.1741  0.9193
21950SOL    HW266429   9.752   9.655   2.296  1.1578  0.2312 -0.2116
21951SOL     OW66430   7.921   0.324   6.204  0.3679 -0.5178 -0.1363
21951SOL    HW166431   7.894   0.280   6.123 -1.5933  2.3685 -1.2061
21951SOL    HW266432   8.007   0.359   6.184  1.3105 -2.4596  0.2336
21952SOL     OW66433   3.933   0.400   0.589  0.0178  0.4438 -0.6521
21952SOL    HW166434   3.933   0.435   0.500  0.1812  1.6762 -0.1997
21952SOL    HW266435   4.013   0.347   0.594  0.5202  1.1390 -0.9728
21953SOL     OW66436   3.670   4.958   1.001  0.3332 -0.1883  0.6712
21953SOL    HW166437   3.660   4.998   0.915 -0.3824  3.6579  2.3597
21953SOL    HW266438   3.764   4.940   1.008  0.7037  1.3183 -0.1626
21954SOL     OW66439   1.771   1.185   0.976  0.1861  0.8277 -0.2994
21954SOL    HW166440   1.843   1.191   1.039  1.1993  0.9236 -1.4487
21954SOL    HW266441   1.793   1.247   0.907 -0.4920  0.1272 -1.1736
21955SOL     OW66442   3.655   6.988   5.473  0.1708 -0.2585  0.4203
21955SOL    HW166443   3.691   6.939   5.548 -1.2311 -1.0818  0.5803
21955SOL    HW266444   3.586   6.932   5.439 -0.6125  1.0567 -0.2045
21956SOL     OW66445   1.742   4.742   4.133  0.0955 -0.5147 -0.4277
21956SOL    HW166446   1.804   4.724   4.063 -0.1531 -1.9628 -0.3131
21956SOL    HW266447   1.681   4.806   4.095  1.7600  1.1491 -0.4381
21957SOL     OW66448   0.392   3.321   0.377  0.3594 -0.1975  0.7761
21957SOL    HW166449   0.462   3.378   0.346 -1.0089  0.7901 -0.6678
21957SOL    HW266450   0.376   3.260   0.304  0.1780 -0.8820  1.3700
21958SOL     OW66451   0.987   7.921   0.358 -0.0403 -0.2950 -0.2400
21958SOL    HW166452   0.909   7.881   0.320 -1.1536 -0.0594  1.6815
21958SOL    HW266453   1.030   7.851   0.407  1.0899 -0.4613 -1.3924
21959SOL     OW66454   3.190   9.906   2.444  0.0706 -0.0570  0.0343
21959SOL    HW166455   3.149   9.890   2.529 -1.2263  1.5596 -0.2344
21959SOL    HW266456   3.130   9.868   2.380 -0.5402  1.3903 -0.3020
21960SOL     OW66457   3.580   6.468   2.024  0.3827 -0.1304  0.1003
21960SOL    HW166458   3.626   6.396   1.979  0.3416  0.2113 -0.5030
21960SOL    HW266459   3.650   6.517   2.067  0.3266 -1.0153  1.2356
21961SOL     OW66460   6.190   1.297   7.937  0.5339 -0.1059 -0.5740
21961SOL    HW166461   6.137   1.231   7.982  1.0794  0.4263  0.9269
21961SOL    HW266462   6.157   1.298   7.847 -1.0005 -0.8130 -0.0501
21962SOL     OW66463   7.240   9.214   8.062  0.4195 -0.5899  0.0691
21962SOL    HW166464   7.242   9.216   7.966  1.5059 -0.9774  0.0694
21962SOL    HW266465   7.268   9.301   8.089 -2.0192  0.2529  0.0547
21963SOL     OW66466   5.206   7.166   2.044  0.3632  0.0407  0.4302
21963SOL    HW166467   5.197   7.091   2.103  0.0952 -2.2149 -2.2556
21963SOL    HW266468   5.301   7.182   2.040  0.4143 -0.0451  1.1262
21964SOL     OW66469   5.263   6.233   1.301  0.5377 -0.0275 -0.6874
21964SOL    HW166470   5.357   6.235   1.316  0.6586  0.2666 -1.4745
21964SOL    HW266471   5.239   6.326   1.293 -0.1255  0.0411  1.3258
21965SOL     OW66472   6.820   5.886   7.791  0.3936 -0.3233  0.1554
21965SOL    HW166473   6.899   5.904   7.740  1.3009 -0.9668  1.2920
21965SOL    HW266474   6.824   5.946   7.865 -0.8479  0.5115 -0.4192
21966SOL     OW66475   8.468   9.115   0.030 -0.1708  0.2932  0.1561
21966SOL    HW166476   8.427   9.128  -0.056 -0.6819  0.8835  0.4845
21966SOL    HW266477   8.457   9.022   0.048  0.0445  0.1383 -0.4658
21967SOL     OW66478   1.227   2.923   5.768  0.0686  0.0496 -0.4041
21967SOL    HW166479   1.221   2.984   5.694 -0.4096  0.9407  0.3496
21967SOL    HW266480   1.157   2.950   5.827  0.5186 -0.5752  0.4356
21968SOL     OW66481   1.886   6.028   0.663  0.1618 -0.9230 -0.2111
21968SOL    HW166482   1.802   6.072   0.648  0.1109 -0.9887 -0.1210
21968SOL    HW266483   1.937   6.090   0.714 -0.1519 -1.2256  0.4908
21969SOL     OW66484   9.773   9.886   0.617 -0.0274 -0.9689 -0.1240
21969SOL    HW166485   9.834   9.940   0.668 -0.3801  0.5406 -1.2187
21969SOL    HW266486   9.714   9.848   0.682 -0.1409  0.4806  0.6603
21970SOL     OW66487   4.948   7.645   8.312  0.1189 -0.1122 -0.1880
21970SOL    HW166488   4.917   7.569   8.263 -1.9211  0.8712 -0.5228
21970SOL    HW266489   4.900   7.719   8.275  2.7454  1.5305 -0.5201
21971SOL     OW66490   7.316   3.350   9.584 -0.0529  0.7359 -0.4199
21971SOL    HW166491   7.222   3.331   9.588  0.0895  0.2816  2.0412
21971SOL    HW266492   7.326   3.431   9.635  0.9651  0.4753 -0.1927
21972SOL     OW66493   4.401   4.466   9.859 -0.8922  0.3625  0.3569
21972SOL    HW166494   4.373   4.515   9.781  0.2752  1.7391  0.7602
21972SOL    HW266495   4.329   4.477   9.921 -1.5310 -0.1747 -0.2651
21973SOL     OW66496   7.938   5.789   1.980  0.4027  0.0827  0.2207
21973SOL    HW166497   7.975   5.871   1.949  0.9488 -0.0313  0.5697
21973SOL    HW266498   7.843   5.806   1.984  0.5442  0.8113  0.6403
21974SOL     OW66499   5.526   9.309   0.929  0.3904  0.1263 -0.0028
21974SOL    HW166500   5.575   9.382   0.966 -0.7172 -0.0641  2.0140
21974SOL    HW266501   5.499   9.339   0.842  3.2666  0.5298 -0.8357
21975SOL     OW66502   9.053   0.027   6.430 -0.4905  0.1896 -0.0721
21975SOL    HW166503   9.096   0.112   6.439 -1.2894  0.4564  1.5699
21975SOL    HW266504   9.125  -0.036   6.438  0.0520  0.6688 -0.9030
21976SOL     OW66505   5.497   2.355   9.915 -0.3142 -0.1120 -0.2762
21976SOL    HW166506   5.585   2.320   9.902 -0.6706 -0.9712 -0.4078
21976SOL    HW266507   5.438   2.284   9.892 -1.0715  0.7367 -1.0580
21977SOL     OW66508   7.018   8.523   5.292 -0.5830  0.3578  0.4944
21977SOL    HW166509   7.094   8.560   5.338 -0.6993  1.1770  0.0416
21977SOL    HW266510   7.056   8.462   5.228 -0.3511  0.1941  0.7866
21978SOL     OW66511   9.842   7.810   6.891  0.1948  0.5632  0.5681
21978SOL    HW166512   9.820   7.891   6.938  1.0245  2.2412 -1.7789
21978SOL    HW266513   9.838   7.834   6.799 -0.4944 -2.3721 -0.2662
21979SOL     OW66514   4.034   3.324   3.772 -0.4022 -0.0501 -0.1796
21979SOL    HW166515   3.999   3.287   3.853 -1.4345  0.7218 -0.2530
21979SOL    HW266516   4.072   3.249   3.726 -1.2985 -0.7943  0.2567
21980SOL     OW66517   4.651   7.886   7.300  0.2440  0.2974 -0.2540
21980SOL    HW166518   4.586   7.939   7.254  1.8780  2.4791 -0.1892
21980SOL    HW266519   4.632   7.796   7.273  0.0093  1.2715 -3.8361
21981SOL     OW66520   9.528   1.244   8.773 -0.0961  0.3212  0.4464
21981SOL    HW166521   9.476   1.319   8.803  0.4139  1.9225 -2.3252
21981SOL    HW266522   9.466   1.193   8.720 -0.1660 -0.7172  1.4857
21982SOL     OW66523   4.860   6.406   4.882 -0.1942 -0.5530  0.7324
21982SOL    HW166524   4.884   6.328   4.832 -0.9190 -0.1273 -0.3142
21982SOL    HW266525   4.891   6.479   4.829 -0.7919 -0.0972  0.9978
21983SOL     OW66526   0.268   8.738   6.378 -0.5407  0.8781  0.1307
21983SOL    HW166527   0.232   8.784   6.454 -0.8446  0.7764  0.0488
21983SOL    HW266528   0.235   8.648   6.385  2.4527 -0.2318  1.9537
21984SOL     OW66529   1.115   8.799   2.805 -0.2997  0.1883  0.0779
21984SOL    HW166530   1.163   8.717   2.812  0.3048  0.5617  0.4212
21984SOL    HW266531   1.112   8.833   2.895  0.1326  0.9148 -0.1760
21985SOL     OW66532   5.950   4.410   1.398  0.0370 -0.4428  0.8858
21985SOL    HW166533   6.040   4.380   1.416  0.3471  0.6382  1.1961
21985SOL    HW266534   5.961   4.494   1.354 -0.8287 -0.3435  0.8445
21986SOL     OW66535   6.852   3.828   1.191  0.4852 -0.7217  0.3875
21986SOL    HW166536   6.818   3.745   1.158  0.4071 -1.6792  2.6790
21986SOL    HW266537   6.915   3.803   1.258  0.5507  1.0817  1.0499
21987SOL     OW66538   3.597   9.629   8.555 -0.2884  0.1220 -0.5228
21987SOL    HW166539   3.523   9.601   8.609 -0.7910 -0.1588 -1.3291
21987SOL    HW266540   3.573   9.716   8.525 -0.9119 -0.4790 -1.8385
21988SOL     OW66541   6.476   2.353   0.887  0.6223  0.3951 -0.4495
21988SOL    HW166542   6.488   2.418   0.957 -0.5585  1.1938 -0.9591
21988SOL    HW266543   6.450   2.274   0.933  0.2597  0.8005  0.0586
21989SOL     OW66544   9.804   4.607   3.849  0.0763 -0.1226  0.8349
21989SOL    HW166545   9.864   4.642   3.915  1.1352  0.9774 -0.6541
21989SOL    HW266546   9.850   4.617   3.766 -1.2776 -1.3361 -0.1179
21990SOL     OW66547   9.420   6.364   0.914  0.2522  0.1821  0.3287
21990SOL    HW166548   9.408   6.435   0.977  0.0184  1.5213 -1.1540
21990SOL    HW266549   9.333   6.325   0.905  0.0790  0.6226  0.1078
21991SOL     OW66550   1.126   6.893   8.962  0.3172 -0.2962 -0.2287
21991SOL    HW166551   1.064   6.944   9.014 -1.1861 -0.7802 -1.4627
21991SOL    HW266552   1.193   6.866   9.024 -0.6972  0.2660  1.1660
21992SOL     OW66553   6.381   4.779   1.168  0.1347 -0.1089 -0.1742
21992SOL    HW166554   6.443   4.758   1.239  0.7736 -0.8444 -0.9290
21992SOL    HW266555   6.322   4.704   1.165  0.3987 -0.3005 -0.7211
21993SOL     OW66556   4.119   0.257   6.356 -0.4536 -0.0292 -0.3183
21993SOL    HW166557   4.196   0.283   6.305  1.5753  1.6411  3.2794
21993SOL    HW266558   4.150   0.186   6.412 -1.6700  0.2717  0.7821
21994SOL     OW66559   9.615   2.782   3.248 -0.5378 -0.2147 -0.5010
21994SOL    HW166560   9.669   2.861   3.243 -0.1898 -0.4210 -0.0942
21994SOL    HW266561   9.650   2.724   3.179 -1.1071  0.1713 -1.1215
21995SOL     OW66562   5.476   0.180   9.437  0.0923 -0.1547 -0.3470
21995SOL    HW166563   5.531   0.102   9.425 -0.2933 -0.5365  0.3124
21995SOL    HW266564   5.387   0.149   9.423  0.0903  0.8307 -3.2408
21996SOL     OW66565   9.273   3.382   3.353  0.4841  0.3234  0.3754
21996SOL    HW166566   9.240   3.468   3.325  1.7564  1.2708  1.5874
21996SOL    HW266567   9.255   3.379   3.446 -1.3327 -1.6417  0.0325
21997SOL     OW66568   7.583   9.140   9.470 -0.5011 -0.0624 -0.5963
21997SOL    HW166569   7.588   9.180   9.383 -0.7013  0.0318 -0.5653
21997SOL    HW266570   7.544   9.208   9.525 -3.3228 -1.1295 -1.0792
21998SOL     OW66571   1.590   6.713   5.630 -0.1748 -0.2650 -0.0541
21998SOL    HW166572   1.681   6.735   5.610 -0.0512 -0.2952  0.4621
21998SOL    HW266573   1.596   6.639   5.690 -0.4284  1.4988  2.2822
21999SOL     OW66574   8.860   1.276   1.650  0.1808 -0.5846 -0.6893
21999SOL    HW166575   8.865   1.192   1.696 -1.4481 -0.5674 -0.4449
21999SOL    HW266576   8.892   1.256   1.562 -1.6519 -1.8755 -1.1336
22000SOL     OW66577   5.239   6.694   5.038  0.1226  0.2327 -0.3318
22000SOL    HW166578   5.250   6.726   5.127 -0.4997  0.0706 -0.1984
22000SOL    HW266579   5.145   6.691   5.024  0.1918 -0.6682 -0.6678
22001SOL     OW66580   2.003   2.103   4.530 -0.1829 -0.1399 -0.3532
22001SOL    HW166581   1.936   2.167   4.506 -0.0641  0.1873  0.1664
22001SOL    HW266582   1.978   2.023   4.483 -1.1056 -0.1140  0.0767
22002SOL     OW66583   8.931   3.838   3.911  0.4597 -0.0150  0.1638
22002SOL    HW166584   9.011   3.835   3.859 -0.0655 -0.0639 -0.6690
22002SOL    HW266585   8.944   3.910   3.973  0.0727  1.8644 -1.8021
22003SOL     OW66586   3.219   5.878   6.638 -0.6253  0.6593 -0.0955
22003SOL    HW166587   3.303   5.849   6.601 -0.3691  0.2729  0.7528
22003SOL    HW266588   3.215   5.833   6.723 -1.9528  0.2265 -0.3735
22004SOL     OW66589   9.663   3.893   4.737 -0.2020 -0.3124 -0.0719
22004SOL    HW166590   9.745   3.844   4.736  0.8029  1.0526  2.7832
22004SOL    HW266591   9.608   3.845   4.799 -0.3221  0.4976  0.4617
22005SOL     OW66592   5.765   1.528   0.204  0.6351 -0.0984 -0.2749
22005SOL    HW166593   5.826   1.602   0.206 -0.0360  0.4391  0.9748
22005SOL    HW266594   5.679   1.568   0.205  0.0022 -0.6873 -5.0874
22006SOL     OW66595   8.619   5.525   3.697  0.0222 -0.0840  0.1802
22006SOL    HW166596   8.524   5.527   3.680 -0.0681 -0.0434  0.6766
22006SOL    HW266597   8.627   5.484   3.783  0.5500 -1.3150 -0.4433
22007SOL     OW66598   8.869   9.247   5.340 -1.2611  0.3985  0.6323
22007SOL    HW166599   8.959   9.242   5.372 -0.9937 -1.6940 -0.2273
22007SOL    HW266600   8.815   9.244   5.419 -0.6124  2.4602  1.2032
22008SOL     OW66601   2.222   2.333   6.539  0.0066  0.1417  0.3633
22008SOL    HW166602   2.161   2.351   6.611  1.8061 -0.8145  2.2345
22008SOL    HW266603   2.232   2.238   6.539  1.8735  0.2980  0.5114
22009SOL     OW66604   0.003   0.577   9.922  0.7114 -0.0317 -0.1188
22009SOL    HW166605   0.069   0.607   9.985 -2.3613  1.2465  2.8339
22009SOL    HW266606  -0.029   0.495   9.959 -0.7380  0.4254 -0.2916
22010SOL     OW66607   9.773   2.978   5.942 -0.5588  0.5347 -0.0134
22010SOL    HW166608   9.768   2.925   5.862 -1.6150  0.0321  0.3668
22010SOL    HW266609   9.781   3.068   5.909  0.7269  0.2106 -0.6627
22011SOL     OW66610   0.401   9.742   6.836 -0.2689 -0.0042 -0.2188
22011SOL    HW166611   0.338   9.763   6.767 -1.0042 -3.3166 -0.7532
22011SOL    HW266612   0.350   9.747   6.917 -1.1952 -2.0852 -0.5962
22012SOL     OW66613   6.451   4.944   2.238 -0.0833  0.7228 -0.5100
22012SOL    HW166614   6.398   5.023   2.235 -0.8743  0.1839 -1.7796
22012SOL    HW266615   6.459   4.918   2.146  3.6829  1.6058 -0.5765
22013SOL     OW66616   3.413   4.501   5.245  0.2551  0.0625  0.4792
22013SOL    HW166617   3.486   4.517   5.185 -0.3555  2.1387  0.2147
22013SOL    HW266618   3.409   4.580   5.299 -1.6014 -0.1226  0.6819
22014SOL     OW66619   6.808   7.551   3.309  0.1780  0.0336  0.2024
22014SOL    HW166620   6.807   7.489   3.237  1.4688  0.3894 -0.1417
22014SOL    HW266621   6.765   7.629   3.274  2.2606  0.8064 -0.7866
22015SOL     OW66622   5.758   1.363   0.933 -0.6426 -0.0750  0.2672
22015SOL    HW166623   5.712   1.300   0.879  0.2512 -0.0668 -0.5303
22015SOL    HW266624   5.690   1.402   0.988 -1.4934 -0.4070 -0.5273
22016SOL     OW66625   5.476   0.158   5.721  0.0085 -0.5096 -0.6994
22016SOL    HW166626   5.420   0.168   5.644  2.9214  1.7278 -2.7878
22016SOL    HW266627   5.511   0.069   5.714  0.1227 -0.3934 -1.9521
22017SOL     OW66628   0.802   2.099   1.671  0.0631 -0.7553 -0.3490
22017SOL    HW166629   0.734   2.056   1.619  0.0730 -1.5803  0.2923
22017SOL    HW266630   0.759   2.122   1.753  0.4427 -0.8960 -0.1074
22018SOL     OW66631   4.272   2.849   7.139  0.1688  0.3804 -0.0764
22018SOL    HW166632   4.182   2.856   7.169  0.4141  0.0431  0.7710
22018SOL    HW266633   4.286   2.925   7.083 -1.6470 -1.2187 -2.9277
22019SOL     OW66634   0.235   3.830   3.128  0.5758 -0.4380  0.5081
22019SOL    HW166635   0.238   3.868   3.040 -1.4518  2.6007  1.5700
22019SOL    HW266636   0.191   3.746   3.117  0.5382 -0.2124 -1.3790
22020SOL     OW66637   0.825   7.169   4.045 -0.3353  0.1465  0.2648
22020SOL    HW166638   0.747   7.142   4.093 -0.4700 -0.4481 -0.2663
22020SOL    HW266639   0.878   7.216   4.109 -1.2415  0.7739  0.5640
22021SOL     OW66640   2.428   4.894   0.450 -0.1305  0.2748  0.0753
22021SOL    HW166641   2.444   4.973   0.399  1.7749  0.7103  1.2659
22021SOL    HW266642   2.434   4.823   0.387  2.0023  0.8155 -0.4138
22022SOL     OW66643   0.542   4.115   4.403  0.4611  0.7261 -0.2683
22022SOL    HW166644   0.567   4.152   4.488  1.8832  1.3424 -0.9348
22022SOL    HW266645   0.609   4.145   4.342  0.7046 -1.4906 -1.2002
22023SOL     OW66646   4.774   7.742   3.887  0.1322 -0.3040 -0.0566
22023SOL    HW166647   4.712   7.714   3.820 -0.6019 -1.5077  1.0721
22023SOL    HW266648   4.720   7.782   3.955  0.9679  1.9302 -0.6230
22024SOL     OW66649   6.561   3.633   4.911  0.4460  0.0287  0.0959
22024SOL    HW166650   6.472   3.620   4.878  0.0668  0.5478  0.9120
22024SOL    HW266651   6.576   3.727   4.904  0.5205  0.0855  1.0019
22025SOL     OW66652   2.109   5.542   8.795  0.0334  0.2979  0.0964
22025SOL    HW166653   2.171   5.615   8.789  2.5036 -1.5620  1.4367
22025SOL    HW266654   2.117   5.497   8.711 -0.6393  0.8758 -0.2895
22026SOL     OW66655   6.744   6.778   2.178  0.0933 -0.2257 -0.2665
22026SOL    HW166656   6.675   6.778   2.244  1.2418  2.1422  1.0581
22026SOL    HW266657   6.721   6.706   2.119 -1.7548 -1.5075  1.8821
22027SOL     OW66658   4.165   3.260   7.431  0.4456  0.5248  0.0100
22027SOL    HW166659   4.118   3.188   7.473  0.5048 -0.3714 -1.4177
22027SOL    HW266660   4.242   3.219   7.393  1.5916  1.7109  0.9413
22028SOL     OW66661   4.942   4.308   5.373 -0.1672 -0.8893 -0.2182
22028SOL    HW166662   4.950   4.213   5.383  1.9322 -0.8407 -0.8117
22028SOL    HW266663   4.993   4.343   5.447  0.1121 -0.2693 -0.6947
22029SOL     OW66664   1.471   9.801   2.444 -0.2364 -0.1103 -0.0783
22029SOL    HW166665   1.552   9.794   2.394  0.8713 -2.2126  1.8133
22029SOL    HW266666   1.425   9.719   2.429 -0.4813 -0.2580  1.2937
22030SOL     OW66667   6.305   7.149   8.942 -0.1432  0.0861 -0.0773
22030SOL    HW166668   6.338   7.228   8.985 -2.0708  1.4685 -0.9992
22030SOL    HW266669   6.317   7.080   9.007 -1.2640  1.7395  2.0115
22031SOL     OW66670   6.904   7.543   6.037 -0.0507  0.1099  0.0845
22031SOL    HW166671   6.887   7.468   6.093 -0.2013  0.0063 -0.0958
22031SOL    HW266672   6.972   7.513   5.977 -1.1687 -0.4171 -0.9915
22032SOL     OW66673   6.763   8.245   4.692 -0.5203 -0.0384 -0.0630
22032SOL    HW166674   6.749   8.319   4.751 -0.2542 -1.2704  1.5989
22032SOL    HW266675   6.699   8.258   4.622 -2.1324  0.4902  1.4456
22033SOL     OW66676   6.032   2.011   3.651 -0.1949 -0.3582 -0.5965
22033SOL    HW166677   6.068   1.923   3.665 -1.9826 -0.9353  0.9493
22033SOL    HW266678   6.006   2.040   3.739 -1.9298  0.6489 -1.3907
22034SOL     OW66679   9.872   6.504   9.668 -0.0140 -0.3145  0.6235
22034SOL    HW166680   9.940   6.527   9.731 -0.9634  2.3923  0.7843
22034SOL    HW266681   9.920   6.486   9.587  0.9557  0.5433  0.9902
22035SOL     OW66682   2.150   8.003   6.537  0.0166 -0.2735  0.2285
22035SOL    HW166683   2.228   8.053   6.560 -0.3344 -0.3686  1.7289
22035SOL    HW266684   2.162   7.981   6.445  1.3566  0.4279  0.2113
22036SOL     OW66685   8.132   4.001   9.367 -0.5481 -0.3662  0.3287
22036SOL    HW166686   8.115   3.971   9.278  2.7555  2.0446 -1.3390
22036SOL    HW266687   8.085   4.084   9.374  2.4989  1.6225 -0.9157
22037SOL     OW66688   8.019   8.462   9.596 -0.3467  0.6824  0.0595
22037SOL    HW166689   8.099   8.428   9.556 -0.5971  1.6611 -1.3348
22037SOL    HW266690   7.978   8.385   9.636 -0.2616 -0.4503 -1.9057
22038SOL     OW66691   8.035   6.685   4.094  0.1605 -0.0231  0.2625
22038SOL    HW166692   8.131   6.681   4.097  0.2878  2.2933  1.4236
22038SOL    HW266693   8.012   6.755   4.155 -2.3337 -0.9177  0.4600
22039SOL     OW66694   1.636   2.062   4.762  0.0347  0.1955 -0.3508
22039SOL    HW166695   1.622   2.074   4.668 -0.2252 -1.8812 -0.6142
22039SOL    HW266696   1.728   2.034   4.769 -0.1527 -0.3630 -0.0695
22040SOL     OW66697   8.060   1.575   1.136 -0.5775  0.1471  0.0211
22040SOL    HW166698   8.093   1.642   1.196 -1.2557  0.2407  0.2932
22040SOL    HW266699   8.136   1.520   1.118 -0.0604  0.8625 -0.0346
22041SOL     OW66700   3.247   1.781   2.762 -0.3995 -0.2645 -0.4610
22041SOL    HW166701   3.218   1.794   2.853  1.2969 -0.4705  0.1513
22041SOL    HW266702   3.212   1.857   2.715  0.3824  0.9516  0.8199
22042SOL     OW66703   8.145   6.670   5.297  0.0617 -0.0898  0.1590
22042SOL    HW166704   8.110   6.740   5.351  2.3355  1.5969 -0.3802
22042SOL    HW266705   8.228   6.704   5.264  0.1737 -2.1672 -2.0335
22043SOL     OW66706   7.935   6.256   1.456  0.1990  0.1196 -0.3268
22043SOL    HW166707   7.957   6.191   1.390 -1.4237 -0.7887 -0.0225
22043SOL    HW266708   7.959   6.216   1.540 -0.7069 -0.0587 -0.1450
22044SOL     OW66709   9.957   8.863   8.686  0.2669  0.8250 -0.2494
22044SOL    HW166710   9.931   8.889   8.774 -1.3405 -2.0722  0.2591
22044SOL    HW266711   9.889   8.899   8.629  0.4202  1.3206 -0.1253
22045SOL     OW66712   7.723   6.059   9.584 -0.0275 -0.5841  0.5416
22045SOL    HW166713   7.650   6.121   9.584 -0.3616 -0.9708 -0.3893
22045SOL    HW266714   7.801   6.114   9.595 -0.4608 -0.2093  2.0528
22046SOL     OW66715   8.638   9.346   3.971 -0.6888 -0.2511  0.7285
22046SOL    HW166716   8.579   9.270   3.972 -0.8899 -0.1633 -1.1759
22046SOL    HW266717   8.671   9.351   4.061  0.3119 -3.3714  0.6708
22047SOL     OW66718   7.380   1.768   1.787 -0.1852 -1.0814  0.5532
22047SOL    HW166719   7.368   1.816   1.869  2.1484  2.2470 -0.7808
22047SOL    HW266720   7.323   1.814   1.724  1.1329 -0.8151 -0.5002
22048SOL     OW66721   4.303   2.873   4.896  0.7894  0.1392  0.2650
22048SOL    HW166722   4.373   2.912   4.844 -1.4210  2.4298 -1.2059
22048SOL    HW266723   4.293   2.932   4.971  0.4813 -0.2124  0.5050
22049SOL     OW66724   4.625   6.113   1.908 -0.0362  1.1460  0.9871
22049SOL    HW166725   4.588   6.139   1.824 -1.8725  1.4069  1.8261
22049SOL    HW266726   4.634   6.018   1.902  1.6147  1.3252 -0.1308
22050SOL     OW66727   6.400   3.647   4.333 -0.0909 -0.0692 -0.3957
22050SOL    HW166728   6.489   3.673   4.354  0.8222 -2.1990 -1.3422
22050SOL    HW266729   6.370   3.597   4.409 -0.7839  1.2367  0.2231
22051SOL     OW66730   2.735   4.778   4.482  0.3813  0.0117  0.3331
22051SOL    HW166731   2.813   4.730   4.511  0.9404  0.3803 -0.5281
22051SOL    HW266732   2.728   4.757   4.389 -0.2373  0.4194  0.2846
22052SOL     OW66733   7.650   2.731   7.921 -0.1716  0.1482 -0.5884
22052SOL    HW166734   7.607   2.813   7.899 -0.4188  0.0910 -0.3279
22052SOL    HW266735   7.741   2.755   7.937 -0.5376  0.6376  0.9658
22053SOL     OW66736   3.816   4.958   6.578  0.0619 -0.1373 -0.1223
22053SOL    HW166737   3.751   4.889   6.595  0.9825 -1.0262 -0.0662
22053SOL    HW266738   3.800   4.985   6.488 -0.1088 -0.6747 -0.2563
22054SOL     OW66739   3.911   8.219   0.398  0.3881 -0.1666  0.3481
22054SOL    HW166740   3.970   8.265   0.458  0.8318  0.5670 -0.6202
22054SOL    HW266741   3.908   8.129   0.431  0.5423  0.2393  1.5161
22055SOL     OW66742   2.558   0.482   8.160 -0.5542 -0.2295  0.1210
22055SOL    HW166743   2.576   0.491   8.253  1.7863 -0.3167 -0.2747
22055SOL    HW266744   2.578   0.390   8.140 -1.2525 -0.2698 -0.4363
22056SOL     OW66745   9.622   3.060   3.392 -0.1089  0.3575 -0.5666
22056SOL    HW166746   9.567   3.110   3.331 -1.4970  1.7775  1.6921
22056SOL    HW266747   9.665   3.126   3.445  0.8016 -0.8345  0.2282
22057SOL     OW66748   3.303   4.651   9.434 -0.3035 -0.1528 -0.4142
22057SOL    HW166749   3.237   4.605   9.383 -1.8010 -2.2723  3.0658
22057SOL    HW266750   3.365   4.583   9.461  1.9170  1.3461 -1.4526
22058SOL     OW66751   3.834   3.166   6.662 -0.1162  0.3463  0.2577
22058SOL    HW166752   3.815   3.152   6.755 -0.1756 -0.1136  0.1767
22058SOL    HW266753   3.924   3.137   6.651 -0.3366 -0.2595  0.0264
22059SOL     OW66754   9.242   7.761   8.251  0.0037 -0.1904  0.0376
22059SOL    HW166755   9.163   7.812   8.232  1.4194  1.5301 -1.6362
22059SOL    HW266756   9.276   7.738   8.165  1.9052  0.0755  0.6756
22060SOL     OW66757   4.521   5.322   5.896  0.2331 -0.1386 -0.6708
22060SOL    HW166758   4.528   5.410   5.858 -0.1766  0.5546  0.8120
22060SOL    HW266759   4.438   5.288   5.862  1.2480 -0.7336 -2.7389
22061SOL     OW66760   2.043   9.191   6.688  0.6191 -0.7819  0.2881
22061SOL    HW166761   1.990   9.265   6.656  0.2609 -1.8437 -1.7590
22061SOL    HW266762   2.074   9.219   6.774 -1.4315  0.7955  0.5907
22062SOL     OW66763   9.680   3.367   5.432  0.7626 -0.3265 -0.2145
22062SOL    HW166764   9.604   3.366   5.374  1.7512 -0.5746 -1.5567
22062SOL    HW266765   9.663   3.440   5.492 -1.8462 -2.0999  1.4147
22063SOL     OW66766   9.364   8.119   0.170 -0.4289  0.0640  0.0928
22063SOL    HW166767   9.398   8.033   0.145  0.5323  0.5743 -0.3922
22063SOL    HW266768   9.411   8.141   0.250 -1.7333 -0.4839  1.0494
22064SOL     OW66769   8.991   3.837   9.155 -0.1514  0.2118  0.6708
22064SOL    HW166770   8.996   3.932   9.139  0.0921  0.0550 -0.2776
22064SOL    HW266771   8.928   3.828   9.226 -1.0668  1.0281 -0.0001
22065SOL     OW66772   0.426   5.867   9.520  0.4305 -0.2423  0.6543
22065SOL    HW166773   0.331   5.857   9.514  0.3529 -0.3086  1.8886
22065SOL    HW266774   0.457   5.838   9.434 -0.8527  2.7847 -0.9710
22066SOL     OW66775   8.670   5.661   6.727  0.4998 -0.1972 -0.0395
22066SOL    HW166776   8.615   5.671   6.804 -1.1826 -0.3563 -1.1782
22066SOL    HW266777   8.758   5.683   6.758 -0.3088  0.9176  1.6366
22067SOL     OW66778   7.140   1.989   9.673 -0.3437 -0.2065  0.2830
22067SOL    HW166779   7.051   2.001   9.709 -0.1933  0.8443  0.3410
22067SOL    HW266780   7.191   2.061   9.711 -0.1057  0.8177 -1.8193
22068SOL     OW66781   6.692   6.128   6.980 -0.4007 -0.2765  0.4248
22068SOL    HW166782   6.778   6.095   7.004 -0.1380  0.3550  0.3743
22068SOL    HW266783   6.630   6.066   7.020  0.0730 -1.3649 -0.4679
22069SOL     OW66784   6.506   1.653   4.300  0.0678  0.0155  0.6007
22069SOL    HW166785   6.470   1.739   4.277  0.5125 -0.3248 -1.5761
22069SOL    HW266786   6.592   1.651   4.259 -0.0538 -1.5884  0.3725
22070SOL     OW66787   6.182   7.351   3.933 -0.0588 -0.2352  0.1350
22070SOL    HW166788   6.156   7.263   3.960 -1.1029 -0.9599 -2.8258
22070SOL    HW266789   6.099   7.400   3.930  0.2320  0.2414 -0.1656
22071SOL     OW66790   6.997   1.000   4.327 -0.2797 -0.0178  0.0622
22071SOL    HW166791   7.068   0.938   4.312 -0.4775 -0.0878 -0.6568
22071SOL    HW266792   6.959   0.974   4.410  1.2798  0.7541  1.0765
22072SOL     OW66793   9.388   5.792   5.698 -0.1563  0.0500 -0.1676
22072SOL    HW166794   9.298   5.773   5.725  0.0785  0.7216  1.2087
22072SOL    HW266795   9.430   5.827   5.777  0.9176  1.0837 -1.1475
22073SOL     OW66796   3.665   2.386   8.571 -0.1032 -0.4412 -0.4475
22073SOL    HW166797   3.614   2.305   8.573 -0.9190  0.0697 -0.1085
22073SOL    HW266798   3.621   2.442   8.508  1.4744 -0.8804 -2.0230
22074SOL     OW66799   6.197   8.205   3.507  0.4382 -0.3302 -0.4056
22074SOL    HW166800   6.252   8.131   3.484  4.5208  1.9944  0.8013
22074SOL    HW266801   6.193   8.203   3.603 -1.3138 -0.1688 -0.4423
22075SOL     OW66802   6.667   2.837   6.351  0.0899  0.7170 -0.5902
22075SOL    HW166803   6.683   2.825   6.258 -1.0489  1.4109 -0.9077
22075SOL    HW266804   6.742   2.888   6.382  0.3432  0.7195 -1.1907
22076SOL     OW66805   8.655   6.117   2.746  0.0436  0.3719  0.5413
22076SOL    HW166806   8.691   6.143   2.830 -1.0127 -0.4613  1.2804
22076SOL    HW266807   8.573   6.166   2.739  0.1786  0.5252 -0.0649
22077SOL     OW66808   8.937   7.896   5.343 -0.2335  0.3107 -0.2493
22077SOL    HW166809   8.886   7.840   5.402 -0.9055  0.8476 -0.3045
22077SOL    HW266810   8.939   7.847   5.260  2.2807 -1.3247  0.6510
22078SOL     OW66811   1.394   3.125   1.969  0.4819  0.4830 -0.3275
22078SOL    HW166812   1.462   3.100   2.032  0.6125 -0.0571 -0.6723
22078SOL    HW266813   1.313   3.125   2.020  1.0282  3.8902  0.7937
22079SOL     OW66814   0.253   6.551   2.803 -0.1247 -0.4258  0.1328
22079SOL    HW166815   0.235   6.584   2.715 -1.8371 -0.2941  0.4795
22079SOL    HW266816   0.275   6.459   2.790  0.6214 -0.1695 -0.5059
22080SOL     OW66817   7.276   5.761   5.083 -0.5068 -0.3980 -0.1871
22080SOL    HW166818   7.370   5.750   5.100 -0.6726  0.3112  1.4731
22080SOL    HW266819   7.262   5.721   4.998  1.5181  0.4854 -1.0027
22081SOL     OW66820   0.889   8.927   3.467  0.0575  0.0223 -0.0196
22081SOL    HW166821   0.850   9.010   3.494 -1.0822 -1.1471  2.1749
22081SOL    HW266822   0.890   8.873   3.546  1.8363 -1.6824 -1.0945
22082SOL     OW66823   5.269   7.937   4.524 -0.7999  0.3266  0.3515
22082SOL    HW166824   5.310   7.891   4.597 -1.5008 -1.9815 -0.6458
22082SOL    HW266825   5.181   7.900   4.518 -0.7041  0.3383 -1.7507
22083SOL     OW66826   3.710   3.819   0.956  0.1538 -0.4288 -0.0731
22083SOL    HW166827   3.774   3.770   0.905 -0.7938 -1.3425 -0.4153
22083SOL    HW266828   3.690   3.896   0.902  0.2326 -0.6438 -0.4089
22084SOL     OW66829   0.200   7.671   0.598 -0.1431 -0.0170  0.1083
22084SOL    HW166830   0.273   7.619   0.632 -0.7760 -0.5433  0.6799
22084SOL    HW266831   0.227   7.693   0.508  0.8506  0.0637  0.4093
22085SOL     OW66832   3.514   5.406   2.338 -0.9377 -0.2376  0.3514
22085SOL    HW166833   3.609   5.406   2.330 -0.9232  1.9922 -0.4464
22085SOL    HW266834   3.490   5.315   2.353  1.4090 -0.6748  1.9148
22086SOL     OW66835   7.726   2.566   0.253 -0.1610 -0.2831  0.1558
22086SOL    HW166836   7.681   2.504   0.196  1.2949 -0.2776 -1.0563
22086SOL    HW266837   7.663   2.636   0.267 -1.2604 -1.2561  0.2279
22087SOL     OW66838   5.208   7.645   8.620  0.2394  0.4091  0.1682
22087SOL    HW166839   5.201   7.654   8.525 -1.1562 -1.0832  0.0693
22087SOL    HW266840   5.183   7.554   8.637  2.0520  0.1514  1.8421
22088SOL     OW66841   7.823   2.128   2.826 -0.4640 -0.3840 -0.1215
22088SOL    HW166842   7.854   2.100   2.912 -0.3804  0.9591  0.3153
22088SOL    HW266843   7.728   2.116   2.830 -0.7707  1.8687  1.0757
22089SOL     OW66844   6.232   5.719   0.543 -0.3203  0.0158 -0.2418
22089SOL    HW166845   6.232   5.814   0.538  1.5854 -0.0122 -3.3272
22089SOL    HW266846   6.150   5.692   0.502 -0.5719  0.2962  0.0710
22090SOL     OW66847   0.030   8.716   7.417 -0.2311 -0.7919 -0.2852
22090SOL    HW166848   0.036   8.692   7.510 -0.6622 -0.2515 -0.1110
22090SOL    HW266849   0.067   8.804   7.413 -1.4834 -0.2475 -0.3781
22091SOL     OW66850   3.817   2.522   3.545  0.2781  0.0676 -0.5669
22091SOL    HW166851   3.902   2.486   3.520 -0.1464 -1.6859  0.3893
22091SOL    HW266852   3.838   2.589   3.610  0.9080 -0.6658 -0.0008
22092SOL     OW66853   1.084   3.720   4.217 -0.1918  0.2371  0.0551
22092SOL    HW166854   1.000   3.685   4.249  0.0386  0.1346  0.5594
22092SOL    HW266855   1.092   3.805   4.259 -0.6416  0.8174 -0.9954
22093SOL     OW66856   4.874   9.051   1.280 -0.5370 -0.1853 -0.1036
22093SOL    HW166857   4.880   9.099   1.362 -1.6974 -2.2459  1.2836
22093SOL    HW266858   4.792   9.079   1.240 -0.6221 -0.1486  0.0997
22094SOL     OW66859   1.280   6.580   5.060 -0.1240  0.3008 -0.0431
22094SOL    HW166860   1.193   6.558   5.094 -1.2114  2.0517 -1.4600
22094SOL    HW266861   1.262   6.629   4.979  2.2360 -1.4122 -1.7612
22095SOL     OW66862   0.190   6.253   7.855 -0.7504 -0.0194 -0.4243
22095SOL    HW166863   0.220   6.301   7.932  0.3731 -0.7202 -0.4089
22095SOL    HW266864   0.256   6.185   7.841 -1.1070 -0.1153 -1.8155
22096SOL     OW66865   1.872   4.727   0.654  0.6227  0.5481  0.0017
22096SOL    HW166866   1.951   4.733   0.601  1.1666 -1.1729  0.5464
22096SOL    HW266867   1.800   4.722   0.590  0.9863  1.6558 -0.5004
22097SOL     OW66868   5.785   2.001   4.767 -0.2554  0.2202 -0.2755
22097SOL    HW166869   5.745   1.922   4.803 -0.7525  1.4882  2.1569
22097SOL    HW266870   5.875   1.975   4.748 -1.1752 -1.7376 -2.6177
22098SOL     OW66871   3.865   9.272   8.878  0.1455 -0.2727 -0.0192
22098SOL    HW166872   3.868   9.344   8.815 -1.2298 -0.9732 -0.9263
22098SOL    HW266873   3.957   9.249   8.893  0.5194 -0.2181 -1.9358
22099SOL     OW66874   6.433   1.999   8.822 -0.1529  0.6423 -0.0126
22099SOL    HW166875   6.404   1.921   8.775  1.3251  0.4017 -0.5787
22099SOL    HW266876   6.523   1.980   8.847  0.2090  2.1376 -0.0642
22100SOL     OW66877   2.272   4.726   7.105 -0.3573  0.3007 -0.8023
22100SOL    HW166878   2.187   4.698   7.140 -0.1551 -1.7320 -1.7681
22100SOL    HW266879   2.297   4.656   7.045  2.5940  0.2029  0.3850
22101SOL     OW66880   1.774   6.558   8.718 -0.3405 -0.2711 -0.3300
22101SOL    HW166881   1.840   6.625   8.704 -1.1031  0.8514  1.1499
22101SOL    HW266882   1.698   6.588   8.667 -0.4872 -0.3182 -0.1415
22102SOL     OW66883   6.644   2.089   3.688 -0.2027 -0.0581 -0.4274
22102SOL    HW166884   6.588   2.153   3.732 -0.6315 -0.6078 -0.1606
22102SOL    HW266885   6.636   2.110   3.595  0.3186  0.7950 -0.2898
22103SOL     OW66886   8.599   5.178   5.379  0.0234 -0.0318  0.0086
22103SOL    HW166887   8.549   5.257   5.398 -0.1287  0.3002 -1.6584
22103SOL    HW266888   8.546   5.107   5.416  0.1376  0.6186  1.4749
22104SOL     OW66889   2.510   2.184   3.280  0.3198  0.1914 -0.3229
22104SOL    HW166890   2.467   2.256   3.327 -1.0175 -0.1347 -0.9984
22104SOL    HW266891   2.598   2.181   3.316 -0.4196  0.4609  1.5847
22105SOL     OW66892   2.910   2.548   6.742  0.2440  0.0040 -0.5948
22105SOL    HW166893   2.963   2.566   6.819  0.7371  0.8130 -1.1035
22105SOL    HW266894   2.821   2.536   6.775  0.3539  0.8883  0.0457
22106SOL     OW66895   7.893   8.422   6.262  0.7982  0.5585 -0.2816
22106SOL    HW166896   7.987   8.433   6.248  0.8366  0.8436  0.1869
22106SOL    HW266897   7.879   8.327   6.265  0.7474  0.4417 -2.4972
22107SOL     OW66898   2.214   8.126   0.277  0.3974 -0.6146  0.2308
22107SOL    HW166899   2.144   8.126   0.212  1.9683 -1.7179 -1.5786
22107SOL    HW266900   2.271   8.198   0.251 -0.7521  1.2868  2.6036
22108SOL     OW66901   1.981   5.503   4.397 -0.2263  0.0590  0.2786
22108SOL    HW166902   1.912   5.567   4.415 -1.0335 -0.3337 -1.2538
22108SOL    HW266903   2.044   5.515   4.468 -1.6919  0.6764  1.5157
22109SOL     OW66904   6.568   9.556   0.618  0.4020 -0.2733  0.2185
22109SOL    HW166905   6.621   9.504   0.677  2.9966 -0.4954 -2.0916
22109SOL    HW266906   6.527   9.623   0.673  1.2953 -1.4664  2.4262
22110SOL     OW66907   1.539   8.583   3.459 -0.0662  0.0411  0.2308
22110SOL    HW166908   1.502   8.584   3.547  2.5105 -0.5752  1.4030
22110SOL    HW266909   1.574   8.495   3.448  1.7937  0.8120 -0.4243
22111SOL     OW66910   1.079   3.152   4.053  0.5098 -0.1052 -0.7374
22111SOL    HW166911   1.103   3.061   4.036 -0.6892 -0.8241  1.1083
22111SOL    HW266912   1.155   3.189   4.099  0.0085 -0.9913  0.8837
22112SOL     OW66913   2.164   5.441   7.086  0.1658 -0.0529 -0.2272
22112SOL    HW166914   2.133   5.527   7.057  0.5175 -0.1328 -0.8499
22112SOL    HW266915   2.231   5.417   7.023  1.4491  0.0736  1.0252
22113SOL     OW66916   2.930   0.690   2.022 -0.4686 -0.0719 -0.0445
22113SOL    HW166917   2.884   0.699   1.938 -0.1574 -0.5810 -0.2701
22113SOL    HW266918   2.864   0.656   2.082 -0.6883  0.2783 -0.0834
22114SOL     OW66919   2.053   9.936   2.324 -0.3290  0.3367 -0.0907
22114SOL    HW166920   2.110  10.007   2.355 -0.9346  1.1210 -0.7272
22114SOL    HW266921   1.968   9.954   2.364 -1.2307  1.5835 -2.3971
22115SOL     OW66922   9.034   9.795   1.735 -0.1619 -0.6051  0.7667
22115SOL    HW166923   8.954   9.743   1.732 -0.9963  0.6929 -0.0952
22115SOL    HW266924   9.005   9.883   1.757  0.9204  0.0848 -0.4458
22116SOL     OW66925   2.634   6.091   3.672  0.2549 -0.2534  0.1431
22116SOL    HW166926   2.722   6.114   3.644  0.1845 -0.0244  0.1075
22116SOL    HW266927   2.597   6.042   3.599 -0.4483  1.6015 -0.8056
22117SOL     OW66928   4.260   2.042   6.931 -0.2801  0.1388 -0.2041
22117SOL    HW166929   4.235   2.134   6.923 -0.4945  0.1987  0.9571
22117SOL    HW266930   4.351   2.044   6.963  0.3449 -0.0730 -1.8737
22118SOL     OW66931   5.498   7.456   2.569  0.8799  0.4381 -0.4236
22118SOL    HW166932   5.487   7.376   2.621  1.8553 -0.6285 -1.7887
22118SOL    HW266933   5.430   7.452   2.503 -0.1387  1.6270  0.4929
22119SOL     OW66934   0.509   3.535   9.973 -0.0331 -0.0146 -0.1923
22119SOL    HW166935   0.497   3.573   9.885  0.3013 -0.0107 -0.2372
22119SOL    HW266936   0.509   3.440   9.958 -1.5438 -0.0607  0.0053
22120SOL     OW66937   7.459   1.687   1.501  0.6184  0.0798 -0.1955
22120SOL    HW166938   7.455   1.757   1.435  1.8474 -0.8062 -1.2726
22120SOL    HW266939   7.490   1.730   1.580  0.3978  0.9337 -0.5642
22121SOL     OW66940   4.858   1.023   2.763  0.3382 -0.0544 -0.1761
22121SOL    HW166941   4.816   0.962   2.703  1.1728 -0.8256  0.0072
22121SOL    HW266942   4.793   1.037   2.832  0.2198 -0.9203 -0.1012
22122SOL     OW66943   3.263   0.474   3.474 -0.1937  0.4199 -0.1332
22122SOL    HW166944   3.322   0.455   3.402  0.2145  2.2132 -0.3276
22122SOL    HW266945   3.178   0.488   3.432 -0.2756  0.0308 -0.0994
22123SOL     OW66946   0.729   4.273   2.490  0.2416 -0.2726 -0.1435
22123SOL    HW166947   0.771   4.199   2.533 -1.4375 -0.3724  1.4389
22123SOL    HW266948   0.668   4.233   2.428  1.7533 -0.1353 -1.7918
22124SOL     OW66949   6.173   5.524   5.216 -0.3113  0.3754 -0.0705
22124SOL    HW166950   6.124   5.446   5.243  0.5975 -0.1702  0.0391
22124SOL    HW266951   6.258   5.491   5.189 -0.2057  1.2403 -0.8635
22125SOL     OW66952   3.224   5.931   8.334 -0.3836 -0.0652  0.2487
22125SOL    HW166953   3.264   5.847   8.312 -0.7377 -0.5238  1.2557
22125SOL    HW266954   3.267   5.957   8.416 -2.6537 -1.0075  1.8683
22126SOL     OW66955   8.989   7.541   4.966  0.4786  0.2890  0.4617
22126SOL    HW166956   8.947   7.493   5.038 -0.8591 -0.9362 -1.0738
22126SOL    HW266957   9.013   7.473   4.903  1.0711  1.4021 -0.5454
22127SOL     OW66958   2.259   3.610   8.136 -0.1969 -0.8456 -0.0808
22127SOL    HW166959   2.182   3.558   8.116  1.6120 -2.5256 -3.5287
22127SOL    HW266960   2.332   3.549   8.129  1.6510  1.1035  0.9770
22128SOL     OW66961   8.737   7.840   4.881 -0.3140 -0.2015 -0.1351
22128SOL    HW166962   8.661   7.785   4.860 -1.4428  1.3198 -0.2693
22128SOL    HW266963   8.794   7.831   4.805 -0.6454 -0.9069 -0.3109
22129SOL     OW66964   0.624   6.761   8.901 -0.3357 -0.3201  0.6867
22129SOL    HW166965   0.568   6.703   8.850 -1.6955 -2.1934  3.9353
22129SOL    HW266966   0.563   6.822   8.943  0.5441  0.3238  1.0630
22130SOL     OW66967   9.431   0.723   8.282 -0.0821 -0.4699 -0.0134
22130SOL    HW166968   9.492   0.663   8.325 -0.7927 -1.1929  0.0050
22130SOL    HW266969   9.357   0.668   8.255 -0.5501  0.3190 -0.3891
22131SOL     OW66970   5.344   4.851   0.581 -0.5527 -0.1683  0.2460
22131SOL    HW166971   5.315   4.783   0.521 -0.1932 -0.7618  0.7356
22131SOL    HW266972   5.280   4.849   0.652 -1.9788  1.6847 -0.8885
22132SOL     OW66973   1.435   7.006   0.506 -0.4886 -0.3195  0.2484
22132SOL    HW166974   1.474   7.025   0.591  1.5699  0.5269 -0.8087
22132SOL    HW266975   1.401   6.917   0.515  0.7707 -0.7134  1.5911
22133SOL     OW66976   1.030   2.562   6.798  0.2809  1.1676  0.8462
22133SOL    HW166977   1.124   2.580   6.803  0.4517  0.2257  1.3316
22133SOL    HW266978   1.021   2.503   6.723  0.5107 -1.0671  2.4588
22134SOL     OW66979   1.754   2.343   2.964  0.7434 -0.3353  0.8503
22134SOL    HW166980   1.794   2.256   2.968  1.0096 -0.2032  1.1391
22134SOL    HW266981   1.827   2.402   2.943  0.0327 -0.5386 -2.7964
22135SOL     OW66982   3.705   7.285   8.636  0.4689  0.7089  0.2530
22135SOL    HW166983   3.611   7.295   8.651  0.6034  0.3306  1.4479
22135SOL    HW266984   3.711   7.224   8.562 -0.2284  2.5529 -1.3986
22136SOL     OW66985   4.927   6.730   5.658  0.1148  0.0472  0.1135
22136SOL    HW166986   4.983   6.805   5.676 -1.3487  1.4379 -0.7348
22136SOL    HW266987   4.919   6.729   5.562 -1.2528 -0.1013  0.2058
22137SOL     OW66988   3.414   1.011   4.897  0.2980  0.1250 -0.1862
22137SOL    HW166989   3.433   0.918   4.887  1.2669  0.1779  0.9421
22137SOL    HW266990   3.488   1.046   4.947 -0.2637  1.4140 -0.2041
22138SOL     OW66991   5.263   9.833   3.052 -0.0284 -0.3792  0.2502
22138SOL    HW166992   5.192   9.828   3.116 -0.1293 -0.5815  0.1234
22138SOL    HW266993   5.302   9.746   3.053  0.2311 -0.2639  0.3299
22139SOL     OW66994   8.660   1.451   1.714  0.5107 -0.0570 -0.1013
22139SOL    HW166995   8.712   1.373   1.694  2.8868  1.3916 -0.0346
22139SOL    HW266996   8.716   1.524   1.687 -1.2236  1.6517  0.6981
22140SOL     OW66997   2.400   9.493   8.675  0.1540  0.2237  0.0078
22140SOL    HW166998   2.379   9.427   8.610  2.1424 -0.6576  0.1689
22140SOL    HW266999   2.341   9.475   8.748  0.3620 -1.1078 -0.1297
22141SOL     OW67000   6.764   6.037   5.073  0.5202 -0.3762  0.7271
22141SOL    HW167001   6.845   6.082   5.095  1.8672 -1.7060 -1.1077
22141SOL    HW267002   6.759   5.964   5.135 -0.3085  0.7285  2.0265
22142SOL     OW67003   0.148   9.386   2.921  0.1447 -0.1425 -0.7065
22142SOL    HW167004   0.058   9.398   2.892  0.5657 -0.1066 -2.0514
22142SOL    HW267005   0.156   9.291   2.933 -0.9791  0.0176  2.6525
22143SOL     OW67006   0.474   5.383   5.163  0.5513  0.3982 -0.1463
22143SOL    HW167007   0.507   5.304   5.205  1.3754  0.2446 -1.0788
22143SOL    HW267008   0.405   5.352   5.105  0.5771  0.4193 -0.1876
22144SOL     OW67009   4.156   2.149   3.688 -0.4922 -0.2434 -0.0762
22144SOL    HW167010   4.121   2.173   3.773  1.2720  1.3091  0.2786
22144SOL    HW267011   4.167   2.054   3.692 -0.8127 -0.2397  1.2772
22145SOL     OW67012   0.484   1.947   1.194  0.8828 -0.4596 -0.0317
22145SOL    HW167013   0.420   1.930   1.125  0.0548 -0.9715  0.8452
22145SOL    HW267014   0.472   2.040   1.215  0.5430 -0.5096  0.0043
22146SOL     OW67015   2.344   8.220   9.073 -0.4516  0.2219  0.4564
22146SOL    HW167016   2.271   8.282   9.070 -0.5828  0.1560  1.5753
22146SOL    HW267017   2.330   8.171   9.155  0.3081 -0.4646  0.1947
22147SOL     OW67018   8.309   5.603   5.696 -0.0476 -0.3419  0.4880
22147SOL    HW167019   8.231   5.593   5.751 -1.7766  1.5637 -1.3861
22147SOL    HW267020   8.323   5.517   5.657 -0.6734 -0.9318  1.5424
22148SOL     OW67021   2.418   0.777   3.929 -0.6659  0.3021 -0.4140
22148SOL    HW167022   2.445   0.869   3.922 -1.0069  0.3613 -0.9540
22148SOL    HW267023   2.445   0.752   4.018 -1.4696  1.2177  0.1135
22149SOL     OW67024   5.537   8.964   9.696 -0.0462  0.4180 -0.2710
22149SOL    HW167025   5.444   8.980   9.682 -0.2278  0.2024  0.6823
22149SOL    HW267026   5.554   8.994   9.785  0.2379 -1.9012  0.5022
22150SOL     OW67027   6.342   2.041   7.897  0.4030  0.2348  0.6919
22150SOL    HW167028   6.298   1.975   7.952  0.7874 -0.0552  0.6558
22150SOL    HW267029   6.427   2.002   7.876 -0.5117 -0.5769 -1.8237
22151SOL     OW67030   6.031   8.479   8.980  0.1995 -0.3638 -0.0159
22151SOL    HW167031   6.090   8.553   8.986 -0.1699 -0.0311 -0.4338
22151SOL    HW267032   6.016   8.452   9.071 -0.8091  0.9893  0.2460
22152SOL     OW67033   2.855   7.827   2.492  0.6194 -0.5082  0.1539
22152SOL    HW167034   2.843   7.733   2.499  0.1715 -0.5939 -1.4656
22152SOL    HW267035   2.945   7.837   2.459  1.1368 -0.2858  1.5333
22153SOL     OW67036   2.823   1.966   6.502  0.0440  0.3003  0.2562
22153SOL    HW167037   2.832   1.941   6.594 -1.8414 -0.3151  0.3192
22153SOL    HW267038   2.912   1.967   6.468  0.7209 -0.0634  1.9370
22154SOL     OW67039   0.159   3.895   1.177 -0.4105 -0.1151 -0.2537
22154SOL    HW167040   0.252   3.877   1.172 -0.4230 -0.0153 -1.0092
22154SOL    HW267041   0.118   3.809   1.185 -0.1397 -0.0452  2.6379
22155SOL     OW67042   3.331   2.782   4.989 -0.2332  0.6791 -0.1265
22155SOL    HW167043   3.395   2.818   5.050 -0.6557  3.4850 -1.1963
22155SOL    HW267044   3.365   2.695   4.967  1.0375  0.4318  2.3773
22156SOL     OW67045   1.051   1.851   1.321 -0.5136 -0.4748  0.0538
22156SOL    HW167046   1.063   1.838   1.416 -1.9621 -1.3993  0.1511
22156SOL    HW267047   0.996   1.777   1.294 -1.9816  0.9684 -1.0851
22157SOL     OW67048   5.215   3.285   2.872 -0.0376  0.5388 -0.3123
22157SOL    HW167049   5.189   3.268   2.781 -0.5791  1.0147 -0.2528
22157SOL    HW267050   5.233   3.199   2.908 -0.4624  0.2859 -0.6863
22158SOL     OW67051   1.422   5.359   3.200 -0.0931 -0.1504  0.3463
22158SOL    HW167052   1.436   5.430   3.262  0.7500  0.2150 -0.2351
22158SOL    HW267053   1.460   5.282   3.241  1.3440  0.2898 -0.0995
22159SOL     OW67054   1.656   8.245   7.537  0.0444  0.2504  0.3776
22159SOL    HW167055   1.691   8.322   7.492 -0.0406 -0.6781 -1.3632
22159SOL    HW267056   1.563   8.245   7.516  0.3617 -1.3584 -1.3755
22160SOL     OW67057   9.571   2.367   8.708  0.0974 -0.4178  0.2525
22160SOL    HW167058   9.661   2.338   8.694 -0.1556 -2.5239  2.3427
22160SOL    HW267059   9.576   2.422   8.787 -0.2099  1.1031 -0.7479
22161SOL     OW67060   9.173   6.250   0.904 -0.2782 -0.1167  0.3369
22161SOL    HW167061   9.204   6.162   0.886 -0.2751 -0.6358  2.6208
22161SOL    HW267062   9.080   6.239   0.926 -0.9022  0.7899 -1.6323
22162SOL     OW67063   4.626   1.494   8.366 -0.3010  0.1221 -0.1078
22162SOL    HW167064   4.694   1.538   8.315  0.6009 -2.2078 -1.0651
22162SOL    HW267065   4.674   1.444   8.432 -1.1968 -0.2507  0.2785
22163SOL     OW67066   8.609   0.964   4.289  0.0428 -0.7784  0.2029
22163SOL    HW167067   8.688   0.926   4.327 -0.4531  0.4730  2.6572
22163SOL    HW267068   8.607   1.054   4.320 -1.7300 -0.4127 -0.7966
22164SOL     OW67069   6.250   9.775   1.336  0.2848 -0.2179  0.2343
22164SOL    HW167070   6.213   9.689   1.355 -0.1347 -0.0107  0.3575
22164SOL    HW267071   6.198   9.807   1.262 -1.0912  0.9033  1.6388
22165SOL     OW67072   7.685   8.723   1.438 -0.4531 -0.0209 -0.0551
22165SOL    HW167073   7.711   8.631   1.431  0.4333  0.1824  0.4007
22165SOL    HW267074   7.765   8.768   1.465 -0.6961  0.9973 -0.9833
22166SOL     OW67075   0.890   8.053   5.974 -0.4021  0.0756 -0.2100
22166SOL    HW167076   0.844   8.100   6.044  1.2330 -1.4646  2.0258
22166SOL    HW267077   0.983   8.062   5.996  0.0670 -2.0682 -1.0543
22167SOL     OW67078   4.020   4.172   3.792 -0.1751  0.3201  0.0595
22167SOL    HW167079   3.939   4.122   3.788  0.3398 -0.4581 -1.5078
22167SOL    HW267080   4.020   4.225   3.712 -0.9439  3.3241  1.8631
22168SOL     OW67081   8.875   5.942   8.299  0.0416 -0.3770 -0.1681
22168SOL    HW167082   8.893   6.007   8.367 -1.2401 -2.2827  2.1654
22168SOL    HW267083   8.861   5.993   8.220  2.3669  1.9204  0.7629
22169SOL     OW67084   6.163   2.575   2.529 -0.4024 -0.0959  0.0422
22169SOL    HW167085   6.205   2.542   2.449 -2.8928  1.3184 -1.9815
22169SOL    HW267086   6.107   2.503   2.558  0.3726 -0.5488  0.4475
22170SOL     OW67087   7.819   0.797   5.022 -0.6262 -0.5495  0.3258
22170SOL    HW167088   7.803   0.783   5.115  0.8236  0.2759  0.7268
22170SOL    HW267089   7.885   0.732   4.998 -1.3523 -1.0933 -0.2676
22171SOL     OW67090   0.712   5.709   9.472 -0.1567 -0.2785 -0.2315
22171SOL    HW167091   0.714   5.623   9.513 -0.1107 -0.0494  0.2522
22171SOL    HW267092   0.663   5.764   9.533  2.0575  0.7018  0.7960
22172SOL     OW67093   0.170   7.976   3.288 -0.7069  0.6685 -0.3186
22172SOL    HW167094   0.087   7.953   3.246 -1.5854  1.2168  1.0561
22172SOL    HW267095   0.207   8.044   3.231 -1.2399  0.4761 -0.9041
22173SOL     OW67096   9.581   5.757   6.462  0.3659 -0.0371  0.0127
22173SOL    HW167097   9.577   5.745   6.557 -1.0976  0.0756 -0.0093
22173SOL    HW267098   9.663   5.715   6.436  0.1334 -1.2625  1.1608
22174SOL     OW67099   4.423   5.979   0.549 -0.1382 -0.1335  0.0228
22174SOL    HW167100   4.437   5.941   0.636 -1.1823  1.5502  1.0047
22174SOL    HW267101   4.510   5.984   0.510  0.4741 -0.1499  1.3302
22175SOL     OW67102   6.144   5.489   6.874 -0.0950 -0.3386 -0.0660
22175SOL    HW167103   6.110   5.413   6.827  1.0640 -1.6950  1.2078
22175SOL    HW267104   6.238   5.485   6.862 -0.1034  3.0735 -3.1268
22176SOL     OW67105   9.488   4.512   8.156 -0.0040 -0.4684  0.0240
22176SOL    HW167106   9.525   4.440   8.207 -1.1522 -1.3253 -0.3123
22176SOL    HW267107   9.431   4.558   8.218  1.2578  0.6257  0.4383
22177SOL     OW67108   8.883   1.463   4.135  0.1425  0.6699 -0.8826
22177SOL    HW167109   8.801   1.512   4.124  0.6361  1.7674  0.0025
22177SOL    HW267110   8.935   1.519   4.193  0.7186 -0.9763  0.2292
22178SOL     OW67111   2.202   9.370   8.242  0.5972 -0.2885  0.0432
22178SOL    HW167112   2.226   9.456   8.208 -0.8582 -0.6294 -2.0232
22178SOL    HW267113   2.151   9.389   8.320 -1.2507  0.8554 -1.3658
22179SOL     OW67114   9.996   4.352   0.313  0.3589 -0.1830 -0.3073
22179SOL    HW167115  10.009   4.308   0.398  1.2755 -0.2138 -0.4549
22179SOL    HW267116   9.916   4.312   0.278 -1.8261  1.9017  1.8426
22180SOL     OW67117   2.255   5.506   2.444  0.0114 -0.2918  0.5442
22180SOL    HW167118   2.203   5.436   2.405  0.8111 -1.0353  0.8131
22180SOL    HW267119   2.251   5.489   2.538  2.0294 -1.2903  0.4949
22181SOL     OW67120   6.641   5.646   5.109 -0.5739  0.7739 -0.8608
22181SOL    HW167121   6.671   5.578   5.169 -1.6119 -0.0376 -1.2451
22181SOL    HW267122   6.588   5.705   5.163 -0.9804  0.3993 -0.8518
22182SOL     OW67123   6.709   9.338   8.164 -0.3323  0.0494 -0.0147
22182SOL    HW167124   6.643   9.401   8.192 -0.5956  0.1822 -0.9086
22182SOL    HW267125   6.781   9.350   8.226 -0.3641  1.2549 -0.1860
22183SOL     OW67126   0.952   4.173   0.075  0.0520 -0.4105  0.0173
22183SOL    HW167127   1.011   4.196   0.146  0.2813  0.7898 -0.5386
22183SOL    HW267128   0.974   4.082   0.054  0.4969 -0.5334  0.9622
22184SOL     OW67129   9.669   5.938   1.263  0.3614 -0.0863  0.2469
22184SOL    HW167130   9.696   5.846   1.263 -0.2265 -0.2956 -1.0687
22184SOL    HW267131   9.575   5.935   1.246  0.7167  0.7628 -2.4821
22185SOL     OW67132   2.886   2.542   3.618  0.3277  0.0177 -0.6388
22185SOL    HW167133   2.949   2.494   3.565 -0.1996 -1.9159  0.3850
22185SOL    HW267134   2.845   2.476   3.674  0.1187  1.7814  1.4570
22186SOL     OW67135   6.408   3.927   1.804 -0.4361  0.9645  0.4834
22186SOL    HW167136   6.407   3.992   1.874 -1.0679  2.6849 -1.0408
22186SOL    HW267137   6.497   3.892   1.806 -0.3864  1.0946  2.0023
22187SOL     OW67138   6.049   3.197   5.843  0.1570  0.1016  0.0086
22187SOL    HW167139   6.101   3.132   5.890  0.7992 -0.6356 -1.6471
22187SOL    HW267140   6.083   3.281   5.875  1.8660 -0.3665 -0.4620
22188SOL     OW67141   1.236   5.580   9.373 -0.9626 -0.1994  0.4015
22188SOL    HW167142   1.249   5.645   9.304  0.7876  1.0031  1.7513
22188SOL    HW267143   1.226   5.497   9.328 -1.6982  0.7820 -1.3352
22189SOL     OW67144   7.656   1.041   9.608 -0.3551  0.4421  0.4241
22189SOL    HW167145   7.595   1.101   9.565  0.7183  1.0421 -0.2823
22189SOL    HW267146   7.602   0.965   9.631 -1.0637  0.3009 -1.5419
22190SOL     OW67147   9.736   9.462   8.863 -0.2929 -0.5362 -0.3096
22190SOL    HW167148   9.804   9.394   8.871  0.6599  0.2161 -1.6068
22190SOL    HW267149   9.726   9.496   8.952  2.6202  0.7789 -0.3613
22191SOL     OW67150   8.255   1.532   4.773  0.1332  0.2275 -0.2505
22191SOL    HW167151   8.198   1.547   4.698 -0.0379  1.0953  0.0438
22191SOL    HW267152   8.328   1.593   4.762  0.6506 -0.3825 -0.2582
22192SOL     OW67153   2.774   3.110   8.170  0.1159  0.2713  0.7286
22192SOL    HW167154   2.791   3.160   8.090 -0.8289  2.1709  1.6668
22192SOL    HW267155   2.708   3.160   8.217 -3.4768 -3.4968  0.2669
22193SOL     OW67156   8.939   3.670   0.971  0.4202 -0.2174 -0.1339
22193SOL    HW167157   8.955   3.761   0.997 -0.2648 -0.1798  0.1754
22193SOL    HW267158   8.846   3.668   0.949  0.0101 -1.2382  1.5438
22194SOL     OW67159   7.239   6.233   6.771 -0.4605 -0.2308  0.1813
22194SOL    HW167160   7.161   6.189   6.806  1.1289 -1.7337  2.1067
22194SOL    HW267161   7.290   6.162   6.732  1.8518 -0.1603  2.7420
22195SOL     OW67162   5.174   2.786   5.980  0.8894 -0.1614  0.3368
22195SOL    HW167163   5.154   2.878   6.000 -0.2334 -0.6527  1.6494
22195SOL    HW267164   5.198   2.748   6.064  1.7217 -0.9993 -0.2603
22196SOL     OW67165   9.962   0.153   4.582  0.4828 -0.5412 -0.3628
22196SOL    HW167166   9.932   0.155   4.672 -0.4778  0.9199 -0.6871
22196SOL    HW267167   9.950   0.062   4.554 -0.2837 -0.7509  0.6144
22197SOL     OW67168   3.068   5.213   7.250  0.5098 -0.2117  0.2823
22197SOL    HW167169   3.121   5.140   7.282 -0.1772 -1.1690 -0.7221
22197SOL    HW267170   3.116   5.291   7.279  0.3667 -0.9917  2.9125
22198SOL     OW67171   0.951   8.723   2.403  0.4883 -0.4163 -0.8679
22198SOL    HW167172   1.040   8.752   2.422  0.1021 -0.2984  1.0133
22198SOL    HW267173   0.962   8.647   2.346  1.8372 -0.7487 -0.2042
22199SOL     OW67174   1.667   0.095   8.882  0.0930 -0.3186 -0.1409
22199SOL    HW167175   1.586   0.060   8.919 -0.7707  2.1171  0.4115
22199SOL    HW267176   1.689   0.169   8.938  0.3793  1.6407 -2.6861
22200SOL     OW67177   2.518   4.130   0.761 -0.1270 -0.1358 -0.1212
22200SOL    HW167178   2.529   4.157   0.852  0.4081 -0.3303 -0.1212
22200SOL    HW267179   2.531   4.035   0.763  0.0304 -0.1207 -0.4230
22201SOL     OW67180   3.835   1.397   2.036  0.3819 -0.3083 -0.5409
22201SOL    HW167181   3.754   1.358   2.069 -0.5619  2.4001  0.6516
22201SOL    HW267182   3.884   1.421   2.115  0.6258  1.3749 -1.1650
22202SOL     OW67183   2.550   3.889   7.845  0.4023 -0.6067  0.0451
22202SOL    HW167184   2.538   3.800   7.813 -1.1007  0.3569 -2.3192
22202SOL    HW267185   2.462   3.926   7.847  1.1005  1.1829 -0.2288
22203SOL     OW67186   0.481   3.001   3.688  0.7289  0.1218  0.0735
22203SOL    HW167187   0.565   2.960   3.668  0.4087 -0.9783  0.9062
22203SOL    HW267188   0.477   3.003   3.783 -0.7190 -1.0413  0.0826
22204SOL     OW67189   6.608   1.797   9.939 -0.9099  0.3068 -0.0651
22204SOL    HW167190   6.534   1.809   9.878  0.2872 -0.6391 -1.8032
22204SOL    HW267191   6.631   1.704   9.930  0.6757  0.6465  0.2023
22205SOL     OW67192   0.919   7.545   0.197  0.2743  0.4695 -0.1821
22205SOL    HW167193   0.959   7.569   0.281 -0.4047 -1.8623  0.9066
22205SOL    HW267194   0.898   7.452   0.207 -2.3976  0.7726 -1.9014
22206SOL     OW67195   1.847   8.668   7.740  0.4325  0.0040 -0.1837
22206SOL    HW167196   1.823   8.577   7.721  0.2769 -0.1620  0.7608
22206SOL    HW267197   1.800   8.719   7.675  0.3575 -0.5750 -0.5933
22207SOL     OW67198   1.629   5.088   6.544  0.4293  0.0282  0.2643
22207SOL    HW167199   1.552   5.031   6.547  0.3933 -0.0509 -1.1876
22207SOL    HW267200   1.679   5.065   6.622 -0.9597  0.0020  1.1810
22208SOL     OW67201   3.826   7.584   2.410 -0.0841 -0.7690  0.1869
22208SOL    HW167202   3.902   7.543   2.451  0.7948  0.8674  0.2776
22208SOL    HW267203   3.753   7.567   2.470  0.5555 -0.9895  0.9122
22209SOL     OW67204   4.119   5.203   3.980 -0.3179  0.2078  0.4761
22209SOL    HW167205   4.033   5.230   4.013 -0.3730 -1.0368  1.4548
22209SOL    HW267206   4.109   5.109   3.961  1.0359 -0.1526  1.3941
22210SOL     OW67207   4.585   0.885   2.033  0.2152  0.4504 -0.3418
22210SOL    HW167208   4.622   0.916   2.116 -0.4753  0.3323  0.0189
22210SOL    HW267209   4.660   0.849   1.986  0.9564  2.2005 -0.5759
22211SOL     OW67210   8.411   2.293   0.084 -0.4922 -0.2267  0.0249
22211SOL    HW167211   8.501   2.326   0.087 -0.1695 -0.5610 -3.1159
22211SOL    HW267212   8.418   2.202   0.112  0.0093 -0.0496  0.4925
22212SOL     OW67213   0.128   1.963   9.406  0.1069 -0.0628  0.1430
22212SOL    HW167214   0.175   1.966   9.323 -2.7971 -0.7106 -1.6726
22212SOL    HW267215   0.177   1.900   9.459  2.0258  0.3505 -1.0477
22213SOL     OW67216   1.078   9.953   2.127  0.5317 -0.4279  0.9433
22213SOL    HW167217   0.986   9.930   2.123  0.2452  0.6310  1.0314
22213SOL    HW267218   1.078  10.046   2.150  1.5664 -0.0140 -0.5774
22214SOL     OW67219   1.709   7.519   6.705 -0.1902 -0.2565  0.9195
22214SOL    HW167220   1.722   7.510   6.610 -1.6072  0.2777  0.6497
22214SOL    HW267221   1.700   7.613   6.719 -1.6914 -0.4344  1.3155
22215SOL     OW67222   1.842   3.240   0.854  0.3948 -0.0735 -0.1140
22215SOL    HW167223   1.835   3.315   0.913  1.9110  1.1391 -1.3843
22215SOL    HW267224   1.936   3.233   0.836  0.3558 -2.6308  0.3659
22216SOL     OW67225   0.957   2.687   2.209  0.0341 -0.2000 -0.0596
22216SOL    HW167226   0.938   2.699   2.116  0.7043 -0.8765 -0.2920
22216SOL    HW267227   0.975   2.775   2.242 -0.6992  0.1076 -0.4474
22217SOL     OW67228   1.180   0.762   0.189  0.7605 -0.0520 -0.1998
22217SOL    HW167229   1.093   0.796   0.210  1.6093  0.9618  1.9132
22217SOL    HW267230   1.166   0.668   0.176 -0.6265  0.0593  0.2533
22218SOL     OW67231   7.783   0.353   9.737 -0.2739  0.0065  0.6901
22218SOL    HW167232   7.701   0.385   9.699 -0.6969  0.3468  1.8236
22218SOL    HW267233   7.757   0.317   9.822  0.4613 -1.7831  0.2031
22219SOL     OW67234   1.485   5.081   4.250  0.5228 -0.0832  0.4949
22219SOL    HW167235   1.461   5.172   4.268 -1.4543 -0.4792  0.1678
22219SOL    HW267236   1.527   5.084   4.164  1.5629  0.6409  1.0046
22220SOL     OW67237   3.293   3.649   7.068 -0.3060 -0.4436 -0.1175
22220SOL    HW167238   3.346   3.725   7.090 -1.2482  0.1437  0.1747
22220SOL    HW267239   3.286   3.600   7.150 -1.1711  0.0900  0.1398
22221SOL     OW67240   1.378   2.983   1.144 -0.0950  0.1839 -0.4125
22221SOL    HW167241   1.381   2.894   1.176  0.0107  0.1976 -0.3865
22221SOL    HW267242   1.451   3.027   1.186  1.2024 -0.2689 -2.0803
22222SOL     OW67243   7.937   5.311   4.714 -0.3656 -0.2180  0.0189
22222SOL    HW167244   7.907   5.399   4.734  1.0162  0.0392  1.0617
22222SOL    HW267245   7.865   5.254   4.742 -0.5409  0.4697  1.0050
22223SOL     OW67246   3.279   3.632   0.100  0.0066 -0.0662  0.0470
22223SOL    HW167247   3.326   3.652   0.019  0.7978 -1.5473  0.1052
22223SOL    HW267248   3.188   3.654   0.081 -0.1372 -2.0282 -1.8904
22224SOL     OW67249   2.738   0.031   0.833  0.7730  0.5707 -0.6149
22224SOL    HW167250   2.824   0.068   0.851  0.6502  1.2624 -1.3815
22224SOL    HW267251   2.690   0.102   0.789  0.0011  0.0167 -0.6887
22225SOL     OW67252   8.329   0.149   9.746  0.0020  0.2564  0.1518
22225SOL    HW167253   8.378   0.171   9.667 -0.6874  0.5913 -0.1941
22225SOL    HW267254   8.332   0.053   9.750 -1.7183  0.0589 -1.4719
22226SOL     OW67255   5.154   7.793   2.114 -0.8027  0.0000  0.0727
22226SOL    HW167256   5.244   7.792   2.148 -0.7057  0.7934 -0.1315
22226SOL    HW267257   5.101   7.826   2.186 -0.6227  1.5075 -0.4418
22227SOL     OW67258   7.540   8.469   6.581 -0.3517 -0.0490  0.2997
22227SOL    HW167259   7.482   8.486   6.506 -0.2706 -2.7336 -0.4819
22227SOL    HW267260   7.481   8.461   6.656 -0.5664  1.2078  0.2876
22228SOL     OW67261   8.770   5.042   6.175  0.0682 -0.1129 -0.2637
22228SOL    HW167262   8.823   4.964   6.159  2.5128  1.2731  0.6400
22228SOL    HW267263   8.736   5.067   6.088  0.1743 -1.5078 -0.7224
22229SOL     OW67264   9.583   1.487   7.411  0.1321 -0.7766 -0.5409
22229SOL    HW167265   9.488   1.478   7.423  0.0909  0.1979  0.0068
22229SOL    HW267266   9.605   1.568   7.458  1.1562 -0.7150 -1.1020
22230SOL     OW67267   9.496   2.537   0.206 -0.5006 -0.4726 -0.1862
22230SOL    HW167268   9.470   2.619   0.248 -0.7236  0.2359 -1.6353
22230SOL    HW267269   9.474   2.469   0.270  1.2704  0.6738  1.7638
22231SOL     OW67270   7.022   3.767   2.605  0.1595  0.0153  1.2172
22231SOL    HW167271   7.015   3.859   2.633 -1.7147  0.1761  0.3448
22231SOL    HW267272   7.117   3.752   2.598  0.5330  1.5935  2.2324
22232SOL     OW67273   2.584   4.269   8.684 -0.1030  0.1984  0.0177
22232SOL    HW167274   2.678   4.265   8.703 -0.3938 -0.3626  1.5416
22232SOL    HW267275   2.554   4.178   8.694 -0.9744  0.5301  0.6097
22233SOL     OW67276   6.965   5.244   4.786  0.2121 -0.2842  0.0575
22233SOL    HW167277   6.964   5.185   4.710  1.3976 -1.1877  0.6973
22233SOL    HW267278   6.926   5.192   4.856 -3.0353  1.3176 -0.3688
22234SOL     OW67279   1.705   5.512   6.335 -0.4682 -0.3208  0.2112
22234SOL    HW167280   1.621   5.473   6.361 -0.1000 -1.1575  0.1976
22234SOL    HW267281   1.692   5.539   6.244 -1.0946  0.6726  0.5775
22235SOL     OW67282   5.379   0.729   7.828 -0.2233  0.0951  0.3949
22235SOL    HW167283   5.353   0.808   7.780  0.5057  1.6387  2.4036
22235SOL    HW267284   5.473   0.721   7.812 -0.1294  0.1566  0.9053
22236SOL     OW67285   0.999   3.058   3.455  0.4221 -0.1222 -0.4075
22236SOL    HW167286   1.046   3.014   3.385 -0.7358 -2.8116  0.3792
22236SOL    HW267287   1.067   3.095   3.511  1.5086 -1.4903 -0.7743
22237SOL     OW67288   4.874   4.926   9.922  0.3204 -0.6805  0.2480
22237SOL    HW167289   4.843   4.990   9.857  0.3960  0.4799  1.3074
22237SOL    HW267290   4.917   4.858   9.870  1.0724  0.5949 -0.8805
22238SOL     OW67291   7.145   4.937   3.748  0.0514 -0.2014 -0.1062
22238SOL    HW167292   7.216   4.978   3.798  1.5308 -0.1463 -2.1569
22238SOL    HW267293   7.084   5.009   3.729 -0.8890 -0.3326  2.0485
22239SOL     OW67294   2.924   7.384   0.363 -0.5638  0.3943 -0.2841
22239SOL    HW167295   2.984   7.408   0.433 -1.7528  0.3736  0.7889
22239SOL    HW267296   2.980   7.364   0.289  0.6619  2.1572  0.1031
22240SOL     OW67297   2.151   0.119   9.194 -0.1969  0.2474 -0.6191
22240SOL    HW167298   2.202   0.111   9.113  0.7190 -0.8397  0.0440
22240SOL    HW267299   2.093   0.043   9.193 -0.7470  0.6693 -0.6445
22241SOL     OW67300   4.900   5.455   6.455  0.2150  0.1656 -0.1099
22241SOL    HW167301   4.917   5.494   6.541  2.6101  0.8794 -0.8194
22241SOL    HW267302   4.805   5.453   6.448 -0.0526  2.3985  1.5483
22242SOL     OW67303   6.675   3.507   5.303 -0.2539 -0.4835  0.0975
22242SOL    HW167304   6.596   3.533   5.351 -2.2249 -1.5323 -2.3414
22242SOL    HW267305   6.708   3.431   5.352 -1.5733 -0.8860  0.4104
22243SOL     OW67306   9.925   3.879   4.000 -0.3145 -0.0065  0.5539
22243SOL    HW167307   9.998   3.922   4.046  0.7149 -0.7258 -0.3475
22243SOL    HW267308   9.949   3.787   3.998 -1.1920 -0.2312  0.1207
22244SOL     OW67309   2.989   3.959   5.870  0.5813 -0.3140  0.1073
22244SOL    HW167310   2.998   3.871   5.905  2.2573 -0.1402  0.2019
22244SOL    HW267311   2.895   3.977   5.873  0.1828 -2.1913 -0.1929
22245SOL     OW67312   0.409   1.328   5.238  0.1045  0.0020 -0.5228
22245SOL    HW167313   0.446   1.331   5.150  1.3089 -1.3864 -0.0976
22245SOL    HW267314   0.479   1.292   5.293 -1.4751 -1.6655  0.5289
22246SOL     OW67315   9.004   8.028   5.861  0.1046 -0.2100 -0.2360
22246SOL    HW167316   9.036   7.964   5.798  1.0255 -0.3293  0.3373
22246SOL    HW267317   8.913   8.005   5.874 -0.0948 -0.2214 -1.4718
22247SOL     OW67318   9.405   0.013   9.126  0.5523  0.0665 -0.0215
22247SOL    HW167319   9.411   0.026   9.031  0.7687  1.7591  0.1911
22247SOL    HW267320   9.467   0.076   9.162  0.5170 -0.6041  1.2664
22248SOL     OW67321   6.194   3.437   5.862 -0.1502 -0.0046 -0.1902
22248SOL    HW167322   6.243   3.401   5.935  0.1234 -0.8593 -0.7840
22248SOL    HW267323   6.205   3.532   5.870  1.9278 -0.1834 -0.5291
22249SOL     OW67324   2.264   5.969   2.886 -0.1666  0.6704 -0.1060
22249SOL    HW167325   2.236   5.910   2.816  1.5052  0.7073 -0.8631
22249SOL    HW267326   2.191   6.030   2.898 -1.5615 -0.9628  0.0648
22250SOL     OW67327   7.595   7.495   1.123  0.5947 -0.2126  0.1859
22250SOL    HW167328   7.649   7.568   1.153  1.7803  0.3858 -2.9887
22250SOL    HW267329   7.645   7.417   1.149  1.3493  0.2356  0.1210
22251SOL     OW67330   9.329   4.016   4.938  0.0938 -0.0671 -0.1237
22251SOL    HW167331   9.237   4.006   4.963 -0.4620  2.2987 -0.9823
22251SOL    HW267332   9.337   3.965   4.857 -0.3336 -0.6539  0.1915
22252SOL     OW67333   6.721   3.042   9.380 -0.0186 -0.1517 -0.1637
22252SOL    HW167334   6.788   2.988   9.338  1.2925 -1.2482  3.0406
22252SOL    HW267335   6.641   2.991   9.371  0.5728 -1.1538  0.0773
22253SOL     OW67336   3.585   5.085   1.595 -0.3073  0.2919 -0.0268
22253SOL    HW167337   3.581   5.180   1.607  1.4948  0.2486  1.3145
22253SOL    HW267338   3.524   5.050   1.661 -0.5028  0.4801 -0.1051
22254SOL     OW67339   3.885   3.561   8.352  0.0229  0.9541  0.3549
22254SOL    HW167340   3.889   3.569   8.257  1.6492 -0.1794  0.2854
22254SOL    HW267341   3.976   3.571   8.381 -0.2045 -0.2878  1.6392
22255SOL     OW67342   1.003   1.906   0.632 -0.3670 -0.0600 -0.0113
22255SOL    HW167343   1.026   1.999   0.637 -1.2435  0.0979  2.3456
22255SOL    HW267344   0.933   1.902   0.567 -0.3986  0.9526 -0.0617
22256SOL     OW67345   5.854   0.067   4.413  0.0181  0.2890 -0.6938
22256SOL    HW167346   5.928   0.065   4.473 -0.4745  0.1275 -0.0888
22256SOL    HW267347   5.878   0.005   4.344  1.0832  1.2982 -1.2716
22257SOL     OW67348   0.697   7.472   6.273 -0.0900  0.0085  0.8864
22257SOL    HW167349   0.705   7.565   6.295  1.4844  0.1440 -0.0898
22257SOL    HW267350   0.654   7.433   6.349 -0.7996  1.5208  1.3056
22258SOL     OW67351   3.558   6.615   5.542  0.3334  0.3968 -0.6346
22258SOL    HW167352   3.557   6.669   5.620 -1.9867  0.2591 -0.4841
22258SOL    HW267353   3.465   6.604   5.519  0.7975 -1.8963 -1.7672
22259SOL     OW67354   1.963   2.954   6.483 -0.0422  0.2094 -0.0034
22259SOL    HW167355   1.888   3.013   6.478 -0.0063  0.1893 -0.7856
22259SOL    HW267356   2.007   2.978   6.565  0.5845  1.9842 -0.8307
22260SOL     OW67357   7.745   6.483   4.076 -0.0872  0.5165  0.0574
22260SOL    HW167358   7.831   6.441   4.086 -0.5951 -0.7747 -0.7142
22260SOL    HW267359   7.762   6.556   4.016  0.3615 -0.1633 -0.6765
22261SOL     OW67360   7.664   5.651   5.662  0.1585  0.2507 -0.2190
22261SOL    HW167361   7.601   5.671   5.731 -0.7313 -0.7451 -0.7066
22261SOL    HW267362   7.687   5.736   5.625 -2.6866  0.5390 -1.5532
22262SOL     OW67363   8.260   4.816   0.498  0.0776 -0.6506 -0.0463
22262SOL    HW167364   8.287   4.906   0.477  0.1489  0.1044  2.9337
22262SOL    HW267365   8.165   4.821   0.508  0.0670 -0.9535  0.0137
22263SOL     OW67366   0.776   5.410   3.544  0.3029  0.1072 -0.1305
22263SOL    HW167367   0.861   5.452   3.561 -0.3607  1.0334  1.0177
22263SOL    HW267368   0.771   5.339   3.608 -1.4481  2.5319  2.7151
22264SOL     OW67369   5.208   6.305   0.733 -0.0610 -0.2077 -0.1246
22264SOL    HW167370   5.280   6.351   0.689 -1.0301  0.0861 -1.4556
22264SOL    HW267371   5.241   6.289   0.822  1.2609  0.8019 -0.4000
22265SOL     OW67372   3.732   6.347   2.569  0.1690 -0.3624 -0.0854
22265SOL    HW167373   3.822   6.317   2.557  0.2479  0.4242 -1.7766
22265SOL    HW267374   3.738   6.410   2.642  1.1358  0.1929 -0.6164
22266SOL     OW67375   3.820   8.812   7.118 -0.2674 -0.6260  0.1405
22266SOL    HW167376   3.742   8.826   7.171 -0.2433  2.1549 -0.3868
22266SOL    HW267377   3.787   8.777   7.035 -0.7845 -0.9051  0.4605
22267SOL     OW67378   5.212   0.583   4.832  0.3699 -0.3920  0.5576
22267SOL    HW167379   5.236   0.602   4.923  2.4515 -0.1958  0.0103
22267SOL    HW267380   5.266   0.642   4.780 -0.6383 -0.6432 -0.8346
22268SOL     OW67381   6.399   3.423   9.880 -0.1877  0.6324  0.1562
22268SOL    HW167382   6.401   3.487   9.809  0.7309  0.7321  0.2672
22268SOL    HW267383   6.357   3.346   9.842  1.5415  0.1819 -0.9293
22269SOL     OW67384   0.211   6.627   8.156 -0.3694  0.7501  0.4750
22269SOL    HW167385   0.118   6.648   8.160 -0.4484  0.2428  1.6621
22269SOL    HW267386   0.235   6.641   8.064 -1.5137  1.2805  0.2417
22270SOL     OW67387   6.044   7.174   7.292 -0.8615 -0.2409 -0.6754
22270SOL    HW167388   6.065   7.240   7.359  0.5707 -0.5361 -0.7943
22270SOL    HW267389   6.096   7.201   7.216 -1.4831 -0.6336 -1.2466
22271SOL     OW67390   9.705   4.741   2.100 -0.7164 -0.0353  0.1957
22271SOL    HW167391   9.752   4.771   2.178  0.9743 -0.9728 -0.4149
22271SOL    HW267392   9.721   4.810   2.035 -0.4604 -0.2003  0.0846
22272SOL     OW67393   1.758   5.036   6.777  0.6375 -0.4958 -0.0775
22272SOL    HW167394   1.729   5.065   6.863  0.8068 -0.3566 -0.0647
22272SOL    HW267395   1.744   4.942   6.777 -0.6598 -0.3203 -0.4067
22273SOL     OW67396   9.011   3.918   6.073 -0.3446  0.0004  0.1726
22273SOL    HW167397   9.021   4.011   6.094  1.8775 -0.2360  0.4064
22273SOL    HW267398   8.917   3.907   6.060 -0.6771  2.2734  0.1302
22274SOL     OW67399   9.156   1.955   4.224  0.0468  0.2446  0.1960
22274SOL    HW167400   9.241   1.924   4.191 -0.0033 -0.1658  0.4380
22274SOL    HW267401   9.116   1.998   4.149  0.8214  1.2022  0.3041
22275SOL     OW67402   3.058   1.029   5.071  0.0150 -0.4945 -0.2817
22275SOL    HW167403   3.015   1.093   5.128 -2.6767 -2.3808 -0.0249
22275SOL    HW267404   3.134   1.000   5.122  0.9088  1.8734 -0.1147
22276SOL     OW67405   4.080   2.172   3.966  0.3804  0.0549  0.1098
22276SOL    HW167406   4.071   2.091   4.016 -1.4478  0.8593  1.2093
22276SOL    HW267407   3.994   2.214   3.972  1.5927  2.7048  0.7104
22277SOL     OW67408   4.755   4.285   8.248 -0.0661 -0.8431 -0.5535
22277SOL    HW167409   4.786   4.226   8.317  0.8122 -1.3562 -1.3654
22277SOL    HW267410   4.745   4.370   8.293  0.5154 -1.1573  0.2066
22278SOL     OW67411   9.882   1.323   3.062 -0.2352 -0.5392 -0.0392
22278SOL    HW167412   9.948   1.389   3.038 -1.0382  0.8688  1.4482
22278SOL    HW267413   9.882   1.324   3.158 -0.9604 -2.0330 -0.0103
22279SOL     OW67414   1.076   4.737   6.921 -0.0383  0.2394 -0.2189
22279SOL    HW167415   1.151   4.682   6.943 -0.1957 -0.2659 -0.9394
22279SOL    HW267416   1.076   4.805   6.990  0.7699 -0.0430  0.0761
22280SOL     OW67417   3.113   5.613   9.360 -0.5631  0.1370 -0.2467
22280SOL    HW167418   3.190   5.577   9.316  1.3147  2.0221  1.2289
22280SOL    HW267419   3.113   5.705   9.334 -1.4873  0.4697  0.8616
22281SOL     OW67420   0.666   0.299   1.720  0.3265  0.0197  0.0332
22281SOL    HW167421   0.722   0.370   1.689  0.4485  0.4167  1.0911
22281SOL    HW267422   0.581   0.340   1.736  0.4048 -0.0443  0.6732
22282SOL     OW67423   6.017   4.943   5.964  0.4251  0.3005 -0.1088
22282SOL    HW167424   6.052   5.026   5.996  1.5540 -0.4977  0.8476
22282SOL    HW267425   6.076   4.918   5.893  1.0537 -0.4136  0.6371
22283SOL     OW67426   9.401   5.660   0.974 -0.3279  0.1540 -0.7833
22283SOL    HW167427   9.362   5.629   0.892  3.1527 -2.5679 -1.6239
22283SOL    HW267428   9.424   5.581   1.022  0.8761  1.6443  1.2757
22284SOL     OW67429   4.101   8.674   4.884  0.1769  0.0832 -0.4262
22284SOL    HW167430   4.067   8.597   4.837 -1.4610  0.9747 -0.7715
22284SOL    HW267431   4.085   8.654   4.976  1.7881 -0.9145 -0.3289
22285SOL     OW67432   9.231   1.911   5.942 -0.0254  0.3904 -0.0654
22285SOL    HW167433   9.150   1.950   5.974 -0.1058 -0.0330  0.2462
22285SOL    HW267434   9.279   1.887   6.021  0.2981  0.4156 -0.2528
22286SOL     OW67435   7.817   9.451   7.656 -0.4155 -0.6053 -0.1178
22286SOL    HW167436   7.893   9.473   7.603  0.2703 -0.8854  0.7330
22286SOL    HW267437   7.742   9.479   7.603  0.1820 -1.8509 -1.7199
22287SOL     OW67438   6.158   1.933   3.144 -0.3639  0.1459  0.4357
22287SOL    HW167439   6.128   1.951   3.233  1.9019  1.4785  0.9825
22287SOL    HW267440   6.146   2.015   3.097 -2.6583 -0.8557 -0.9191
22288SOL     OW67441   9.026   4.222   0.344  0.1801 -0.5382 -0.4733
22288SOL    HW167442   9.094   4.155   0.354  1.4769  0.8285  0.3092
22288SOL    HW267443   9.043   4.260   0.258  2.4000  1.7955  0.8577
22289SOL     OW67444   5.136   4.915   6.457 -0.3712 -0.1167 -0.1002
22289SOL    HW167445   5.190   4.940   6.532 -2.0926  0.2603  1.0819
22289SOL    HW267446   5.085   4.994   6.437 -1.2027 -0.7415 -0.5290
22290SOL     OW67447   0.227   1.127   5.985 -0.2562 -0.8109  0.4087
22290SOL    HW167448   0.172   1.157   5.913 -0.4331  0.9874  1.2247
22290SOL    HW267449   0.204   1.035   5.996 -0.1214 -1.1766 -1.8714
22291SOL     OW67450   7.756   6.983   9.082  0.0468  0.3310  0.1023
22291SOL    HW167451   7.802   7.014   9.160  0.2155  0.5443 -0.0785
22291SOL    HW267452   7.723   6.897   9.106  1.5114 -0.3260 -0.1212
22292SOL     OW67453   5.426   6.938   5.764  0.2725  0.4900  0.0854
22292SOL    HW167454   5.382   6.995   5.826 -0.2859  1.2068 -0.9268
22292SOL    HW267455   5.498   6.991   5.729  1.6372 -0.4708  1.3035
22293SOL     OW67456   3.636   9.298   3.493 -0.9304  0.2943 -0.2760
22293SOL    HW167457   3.575   9.371   3.485  0.6594  1.5831 -1.1799
22293SOL    HW267458   3.589   9.224   3.453 -2.6366  0.7109  0.8358
22294SOL     OW67459   2.036   8.661   7.513 -0.1265  0.3347  0.3443
22294SOL    HW167460   2.033   8.719   7.590  0.7148  0.4168  0.3295
22294SOL    HW267461   2.029   8.573   7.549  0.6413  0.3527  0.5623
22295SOL     OW67462   5.976   0.595   1.318 -0.3568 -0.5793 -0.1336
22295SOL    HW167463   5.947   0.686   1.313  0.0890 -0.4296  0.0209
22295SOL    HW267464   5.913   0.554   1.378  0.0481 -0.1310  0.6105
22296SOL     OW67465   0.822   8.909   9.789  0.3308 -0.1047 -0.4143
22296SOL    HW167466   0.908   8.865   9.782  0.0056 -1.2064  1.7683
22296SOL    HW267467   0.759   8.837   9.791 -0.4852  0.6100 -0.0078
22297SOL     OW67468   2.617   4.629   4.228  0.2405  0.2685  0.0698
22297SOL    HW167469   2.611   4.715   4.187 -0.1273  0.2020 -0.0186
22297SOL    HW267470   2.557   4.574   4.177 -0.1537  0.1632  0.6417
22298SOL     OW67471   6.382   4.318   3.152  0.0815  0.5898 -0.4701
22298SOL    HW167472   6.423   4.375   3.087  0.8599 -0.8329 -1.2907
22298SOL    HW267473   6.447   4.250   3.168 -0.1230  0.8564  1.7923
22299SOL     OW67474   0.666   3.073   0.723  0.0905 -0.2484 -0.1308
22299SOL    HW167475   0.604   3.145   0.713  1.3848  0.8685 -0.2717
22299SOL    HW267476   0.617   3.007   0.774 -1.7743 -0.1381 -1.6666
22300SOL     OW67477   1.502   1.530   4.975 -0.1382  0.0755  0.4714
22300SOL    HW167478   1.547   1.610   5.002 -0.2426  0.1521  0.4193
22300SOL    HW267479   1.449   1.505   5.050  1.1061 -0.8326  1.0834
22301SOL     OW67480   9.302   0.126   5.449  0.5288 -0.1102 -0.0702
22301SOL    HW167481   9.218   0.084   5.435 -0.7215  1.2775  2.5340
22301SOL    HW267482   9.364   0.053   5.455 -0.3162 -1.1351 -2.4732
22302SOL     OW67483   4.339   8.731   1.935 -0.6018  0.1549  0.1153
22302SOL    HW167484   4.303   8.804   1.986  1.8217  1.1738  0.4870
22302SOL    HW267485   4.431   8.728   1.960  0.4093 -0.1791 -3.1914
22303SOL     OW67486   0.601   1.854   1.692  0.5271  0.1177  0.2963
22303SOL    HW167487   0.578   1.918   1.625  1.4496 -1.0427 -1.1869
22303SOL    HW267488   0.544   1.876   1.766  1.6358  3.4189  0.3698
22304SOL     OW67489   2.515   5.721   0.512  0.4309 -0.0645  0.1700
22304SOL    HW167490   2.528   5.657   0.442 -0.0489 -0.8369  0.7716
22304SOL    HW267491   2.434   5.693   0.555 -0.1490  1.3360  0.0364
22305SOL     OW67492   5.638   4.725   2.644 -0.0494  0.1369  0.0227
22305SOL    HW167493   5.688   4.722   2.563  1.3409  0.8016  0.8148
22305SOL    HW267494   5.684   4.665   2.703 -3.0363 -3.1134 -0.6574
22306SOL     OW67495   5.495   1.800   3.300  0.3146  0.5629  0.5939
22306SOL    HW167496   5.535   1.885   3.280  1.6486  0.4061  2.3207
22306SOL    HW267497   5.421   1.821   3.357  1.4714  0.5579  2.1841
22307SOL     OW67498   2.960   6.628   5.042 -0.0965  0.4195  0.4921
22307SOL    HW167499   2.994   6.612   5.130  1.4379  3.9971  0.7124
22307SOL    HW267500   3.026   6.592   4.983 -0.3834 -0.6215  0.7896
22308SOL     OW67501   8.590   8.023   5.139 -0.0018  0.5724 -0.6022
22308SOL    HW167502   8.674   8.042   5.097  0.1041 -0.5511 -0.9380
22308SOL    HW267503   8.570   7.933   5.113 -0.5691  0.2922  0.7037
22309SOL     OW67504   4.376   8.873   1.363 -0.0434  0.3491  0.5327
22309SOL    HW167505   4.451   8.834   1.407  0.6302  0.2279 -0.6755
22309SOL    HW267506   4.372   8.962   1.397 -0.5346 -0.2017  2.0136
22310SOL     OW67507   8.762   1.903   7.120  0.3279  0.1930 -0.5134
22310SOL    HW167508   8.810   1.901   7.203 -1.1440  2.6029  0.5158
22310SOL    HW267509   8.795   1.981   7.075 -0.2917  0.0265 -1.2828
22311SOL     OW67510   8.905   5.925   9.799  0.4244 -0.2068 -0.5776
22311SOL    HW167511   8.959   5.945   9.875  1.4663 -1.6957 -0.8777
22311SOL    HW267512   8.821   5.896   9.836  0.6431 -0.1549 -0.0341
22312SOL     OW67513   5.641   3.788   2.409 -0.0735 -0.5069 -0.3466
22312SOL    HW167514   5.639   3.870   2.360  0.1756 -0.8035 -0.8675
22312SOL    HW267515   5.711   3.801   2.474 -0.7418  0.0698  0.2741
22313SOL     OW67516   7.713   2.364   4.123 -0.2040 -0.2849 -0.1102
22313SOL    HW167517   7.713   2.281   4.170 -1.0869 -0.5982 -0.6310
22313SOL    HW267518   7.635   2.360   4.067  1.6975 -0.6640 -2.9403
22314SOL     OW67519   4.876   8.149   8.694 -0.2181  0.4739 -0.3212
22314SOL    HW167520   4.948   8.177   8.750  0.4778 -0.3504 -0.7682
22314SOL    HW267521   4.802   8.205   8.719  0.0998  0.2134  1.3251
22315SOL     OW67522   6.574   2.714   5.495  0.0920 -0.2127 -0.0059
22315SOL    HW167523   6.530   2.632   5.472  0.1570 -0.7572  1.7222
22315SOL    HW267524   6.642   2.689   5.558 -1.9970  1.5004  3.1785
22316SOL     OW67525   8.069   9.778   3.902 -0.0671 -0.4945 -0.0757
22316SOL    HW167526   8.127   9.707   3.928  0.6414  0.5566  1.3847
22316SOL    HW267527   8.089   9.793   3.809  1.1846 -0.9187  0.1131
22317SOL     OW67528   4.073   2.406   3.644  0.3411  0.6253  0.1158
22317SOL    HW167529   4.147   2.442   3.595  0.7792 -1.1168 -0.5775
22317SOL    HW267530   4.092   2.313   3.652  0.0611  0.7117  3.2316
22318SOL     OW67531   7.376   3.597   9.723  0.0611 -0.2699  0.2950
22318SOL    HW167532   7.440   3.570   9.789  1.1636 -0.0660 -0.6662
22318SOL    HW267533   7.409   3.680   9.690 -0.5032 -0.3485 -0.4936
22319SOL     OW67534   5.544   1.295   7.293 -0.3270 -0.1594  0.6985
22319SOL    HW167535   5.452   1.310   7.316 -0.6242  0.7278 -0.8878
22319SOL    HW267536   5.593   1.325   7.369 -1.3248  0.2807  1.1944
22320SOL     OW67537   7.638   3.770   1.918  0.1939  0.2730  0.0428
22320SOL    HW167538   7.572   3.773   1.987  1.1050  1.4042  0.9236
22320SOL    HW267539   7.591   3.792   1.838 -1.0022 -1.6542  0.1543
22321SOL     OW67540   3.684   8.154   2.710 -0.6433 -0.0864  0.3303
22321SOL    HW167541   3.688   8.088   2.641 -2.0481 -0.8868  0.9567
22321SOL    HW267542   3.741   8.120   2.780  0.0568  0.2752 -0.0530
22322SOL     OW67543   9.405   3.417   2.841 -0.5223 -0.1184 -0.3804
22322SOL    HW167544   9.362   3.332   2.846  0.1400 -0.5021 -0.9047
22322SOL    HW267545   9.480   3.410   2.900 -0.1154 -0.1281 -0.8822
22323SOL     OW67546   7.657   6.643   8.839  0.6884 -0.4533 -0.1125
22323SOL    HW167547   7.652   6.737   8.820 -0.0045 -0.4360  0.1074
22323SOL    HW267548   7.749   6.620   8.825  0.6474  0.0212 -1.2490
22324SOL     OW67549   6.906   9.638   5.800  0.0156  0.0502 -0.2333
22324SOL    HW167550   6.922   9.720   5.846 -0.9746  1.2955 -2.0177
22324SOL    HW267551   6.991   9.613   5.765  0.6534 -0.5722  1.6135
22325SOL     OW67552   6.568   4.509   1.328 -0.1923  0.5995 -0.5870
22325SOL    HW167553   6.598   4.435   1.381 -0.9817 -0.0014 -0.9574
22325SOL    HW267554   6.542   4.575   1.392 -0.3033  0.2183 -0.2319
22326SOL     OW67555   6.127   8.456   0.200 -0.2911  0.2642  0.5967
22326SOL    HW167556   6.195   8.455   0.267 -0.8083 -0.6996  1.1136
22326SOL    HW267557   6.171   8.493   0.123  1.3425 -1.9457  0.3904
22327SOL     OW67558   6.658   7.649   1.381 -0.4888 -0.2141  0.5782
22327SOL    HW167559   6.681   7.557   1.399 -1.2236 -0.3471  0.8777
22327SOL    HW267560   6.581   7.643   1.325 -2.4112  0.1835  3.0092
22328SOL     OW67561   7.596   3.379   9.367  0.2921  0.5777  0.0784
22328SOL    HW167562   7.641   3.302   9.400 -1.2498 -0.6204 -0.5009
22328SOL    HW267563   7.544   3.347   9.293  0.8884  2.4856 -1.2803
22329SOL     OW67564   4.773   0.976   5.903 -0.5444  0.2183  0.4054
22329SOL    HW167565   4.750   0.889   5.936  1.5434 -0.2042  0.9038
22329SOL    HW267566   4.713   0.991   5.830 -1.2646 -1.4235  0.6149
22330SOL     OW67567   7.385   0.785   2.844 -0.4381 -1.0373  0.0172
22330SOL    HW167568   7.388   0.866   2.896 -1.8232 -0.2074 -1.0991
22330SOL    HW267569   7.456   0.732   2.878  0.7187  0.7803  0.5982
22331SOL     OW67570   8.996   3.933   0.905 -0.1958  0.4786 -0.3556
22331SOL    HW167571   8.902   3.943   0.920 -0.6739  0.2909 -2.7137
22331SOL    HW267572   9.036   4.006   0.952 -1.1030 -1.2875  3.4733
22332SOL     OW67573   6.602   2.102   6.274 -0.4710  0.0191 -0.3970
22332SOL    HW167574   6.566   2.067   6.192  1.3333  0.7349 -1.5625
22332SOL    HW267575   6.649   2.029   6.313 -0.3491 -0.0203 -0.6144
22333SOL     OW67576   4.784   7.304   4.491  0.1549  0.4566 -0.1163
22333SOL    HW167577   4.797   7.337   4.402 -0.1634  0.9432  0.0114
22333SOL    HW267578   4.838   7.226   4.496  0.6273  0.7470 -0.5556
22334SOL     OW67579   2.030   4.993   5.047 -0.2001  0.1659 -0.2865
22334SOL    HW167580   1.963   5.061   5.043  0.1364  0.5213  0.1312
22334SOL    HW267581   2.112   5.040   5.036  0.0470 -0.1462  0.2124
22335SOL     OW67582   6.545   6.800   9.898 -0.4953 -0.3282 -0.1081
22335SOL    HW167583   6.630   6.758   9.903 -0.8208 -1.0132 -0.1657
22335SOL    HW267584   6.500   6.755   9.826 -1.9281 -1.9362  1.6738
22336SOL     OW67585   5.772   9.196   9.586 -0.7701 -0.5650  0.2951
22336SOL    HW167586   5.696   9.161   9.540 -0.9949 -1.1855  1.1045
22336SOL    HW267587   5.778   9.287   9.557 -0.8309 -0.9631 -1.0209
22337SOL     OW67588   9.677   8.827   5.070 -1.1321  0.2091 -0.0807
22337SOL    HW167589   9.712   8.908   5.032  0.1784 -0.0408  0.5422
22337SOL    HW267590   9.731   8.758   5.032 -1.2340 -0.2341  0.5657
22338SOL     OW67591   9.769   6.872   5.069 -0.8070 -0.1790 -0.0952
22338SOL    HW167592   9.843   6.912   5.114 -0.1744 -0.8937 -0.4786
22338SOL    HW267593   9.785   6.890   4.976 -1.6577  0.5447 -0.1186
22339SOL     OW67594   3.790   0.535   3.640 -0.3189 -0.2096 -0.0400
22339SOL    HW167595   3.703   0.502   3.617 -1.0183  1.3653  0.2544
22339SOL    HW267596   3.776   0.587   3.719  0.7061  0.9121 -0.5704
22340SOL     OW67597   6.416   4.337   5.545  0.0590  0.3965  0.2307
22340SOL    HW167598   6.445   4.269   5.484 -1.0614 -0.3113  0.4528
22340SOL    HW267599   6.488   4.400   5.547  1.6013 -1.2966  0.8368
22341SOL     OW67600   8.565   8.735   8.402  0.5236  0.1657 -0.0474
22341SOL    HW167601   8.612   8.731   8.318 -0.4314  1.7531 -0.7142
22341SOL    HW267602   8.587   8.822   8.437 -0.2502  0.0963  0.6370
22342SOL     OW67603   3.265   9.750   2.197 -0.1127  0.0575 -0.7855
22342SOL    HW167604   3.308   9.811   2.256 -1.1132  1.3758 -1.3810
22342SOL    HW267605   3.313   9.758   2.115 -0.0021 -0.2602 -0.7534
22343SOL     OW67606   8.984   6.835   2.363  0.5473  0.2094  0.3022
22343SOL    HW167607   8.899   6.857   2.326  0.9275  0.9536 -0.1500
22343SOL    HW267608   9.041   6.821   2.287  0.9040  0.0181  0.5982
22344SOL     OW67609   0.576   1.508   3.487 -0.0466  0.3536 -1.0186
22344SOL    HW167610   0.665   1.471   3.485  1.0595  2.6850  0.7237
22344SOL    HW267611   0.553   1.517   3.394  2.2194  1.1487 -1.5772
22345SOL     OW67612   6.750   7.334   8.598  0.4795 -0.0170  0.4250
22345SOL    HW167613   6.774   7.427   8.599  0.9330 -0.0429 -1.9324
22345SOL    HW267614   6.828   7.289   8.631  1.3140  0.3348 -0.9375
22346SOL     OW67615   1.875   2.960   3.205 -0.4682 -0.1292 -0.1396
22346SOL    HW167616   1.970   2.945   3.203 -0.6020 -1.2850  0.9055
22346SOL    HW267617   1.856   2.984   3.295 -1.6524 -4.0208  0.8589
22347SOL     OW67618   3.095   1.191   5.980  0.1084  0.1229  0.2910
22347SOL    HW167619   3.059   1.279   5.974 -0.2807 -0.1042 -1.5452
22347SOL    HW267620   3.151   1.192   6.057 -0.2418  1.8410  0.5540
22348SOL     OW67621   9.344   0.916   3.740 -0.2003 -0.0706  0.1693
22348SOL    HW167622   9.265   0.963   3.766 -0.3800 -0.6176  0.6487
22348SOL    HW267623   9.319   0.870   3.660 -0.6883 -1.0284  0.8536
22349SOL     OW67624   0.540   8.857   2.805 -0.5164 -0.3241 -0.0785
22349SOL    HW167625   0.533   8.860   2.710  2.1227  0.4533 -0.3231
22349SOL    HW267626   0.592   8.778   2.822 -0.0703  0.1154  0.6326
22350SOL     OW67627   7.518   0.730   1.065  0.4759 -0.0560 -0.5130
22350SOL    HW167628   7.480   0.711   1.151 -0.4005 -1.0288 -1.1002
22350SOL    HW267629   7.557   0.648   1.037  0.3161  0.1203 -1.2660
22351SOL     OW67630   5.011   2.993   1.122  0.4156 -0.4763 -0.2246
22351SOL    HW167631   5.103   3.001   1.098  0.6824 -0.2361  0.8343
22351SOL    HW267632   5.009   2.923   1.187 -0.4590 -1.9598 -1.7595
22352SOL     OW67633   7.110   6.787   7.296  0.2578 -0.0501  0.1658
22352SOL    HW167634   7.075   6.785   7.207 -0.0471  0.6119  0.2656
22352SOL    HW267635   7.205   6.777   7.285  0.6462  3.3331 -0.5166
22353SOL     OW67636   9.587   5.484   2.257 -0.1411 -0.0544 -0.2097
22353SOL    HW167637   9.657   5.442   2.307 -0.2407 -1.6563 -1.3437
22353SOL    HW267638   9.525   5.413   2.238 -0.7219  0.7727 -1.5198
22354SOL     OW67639   8.131   7.369   2.312  0.0495 -0.1988  0.2640
22354SOL    HW167640   8.058   7.385   2.371  1.1481  0.1026  1.5821
22354SOL    HW267641   8.099   7.299   2.254 -1.1805 -0.2592  0.9686
22355SOL     OW67642   3.942   3.391   9.502  0.2724  0.0961 -0.4628
22355SOL    HW167643   4.012   3.420   9.560 -0.6063  1.6335 -0.1269
22355SOL    HW267644   3.970   3.304   9.472  1.8245  0.2539  0.4438
22356SOL     OW67645   9.568   0.454   8.309  0.4032  0.0273 -0.0826
22356SOL    HW167646   9.647   0.454   8.363  0.9600 -1.9701 -0.8150
22356SOL    HW267647   9.553   0.362   8.288 -1.4680  0.4769 -0.9275
22357SOL     OW67648   2.948   6.193   7.403  0.1984 -0.5730  0.1377
22357SOL    HW167649   2.964   6.287   7.411 -0.0237 -0.3565 -1.6243
22357SOL    HW267650   3.032   6.153   7.426  0.2339  0.0312  1.1240
22358SOL     OW67651   8.066   4.851   3.366 -0.6862  0.7562  0.2472
22358SOL    HW167652   8.119   4.929   3.385 -0.1243  0.7161 -1.0917
22358SOL    HW267653   8.125   4.792   3.321 -1.6418  0.3598 -0.5086
22359SOL     OW67654   9.917   2.979   3.826  0.1744  0.2596  0.3553
22359SOL    HW167655   9.959   3.018   3.750  4.4598 -1.3160  1.6076
22359SOL    HW267656   9.919   3.048   3.893  0.1354  0.3844  0.2281
22360SOL     OW67657   2.572   9.146   0.888 -0.2036  0.0319  0.2601
22360SOL    HW167658   2.573   9.175   0.980  0.0032 -0.2591  0.3508
22360SOL    HW267659   2.656   9.100   0.877 -1.8966 -3.5954  1.1009
22361SOL     OW67660   7.798   4.200   1.381  0.4998  0.2041 -0.5747
22361SOL    HW167661   7.738   4.137   1.420 -0.3261  2.6504  2.4674
22361SOL    HW267662   7.838   4.152   1.307 -3.1207 -2.3946 -1.1174
22362SOL     OW67663   9.852   4.836   9.924  0.2344 -0.2339  0.1635
22362SOL    HW167664   9.800   4.913   9.898 -1.4796 -1.5107 -0.4022
22362SOL    HW267665   9.864   4.787   9.842 -0.5919 -1.6346  0.8407
22363SOL     OW67666   7.346   8.018   3.800 -0.1410 -0.1606  0.2135
22363SOL    HW167667   7.340   8.010   3.895  0.8806 -1.0742  0.2150
22363SOL    HW267668   7.403   8.094   3.786 -0.7816  0.3451  0.3143
22364SOL     OW67669   4.867   2.493   7.903  0.1449 -0.1239  0.0702
22364SOL    HW167670   4.799   2.556   7.881 -2.7218 -3.5954 -2.2209
22364SOL    HW267671   4.849   2.468   7.993 -0.7571  0.0004 -0.0660
22365SOL     OW67672   6.647   7.689   6.011  0.3601 -0.1772 -0.3033
22365SOL    HW167673   6.730   7.668   5.970  1.0524 -0.0624  0.9914
22365SOL    HW267674   6.661   7.774   6.052 -0.8211  0.4764 -1.1786
22366SOL     OW67675   2.815   5.809   4.782 -0.3485 -0.0890  0.6882
22366SOL    HW167676   2.734   5.810   4.832 -1.2189 -2.1831 -0.5521
22366SOL    HW267677   2.789   5.831   4.693  0.6697  0.5229  0.5232
22367SOL     OW67678   4.545   4.967   2.872  0.0183  0.0626  0.0816
22367SOL    HW167679   4.625   4.959   2.924  1.1218  0.6670 -1.4569
22367SOL    HW267680   4.478   4.993   2.935  1.4359  1.3775  1.1144
22368SOL     OW67681   4.183   9.030   6.470 -0.3355  0.4368 -0.4394
22368SOL    HW167682   4.145   8.985   6.545  1.2534 -0.0684  0.1031
22368SOL    HW267683   4.237   9.099   6.508  0.3417  0.2909 -1.1175
22369SOL     OW67684   4.756   9.536   6.394 -0.2327  0.0636 -0.3931
22369SOL    HW167685   4.749   9.610   6.333 -0.5499 -0.2394 -0.7317
22369SOL    HW267686   4.710   9.465   6.350  1.3424 -0.7731 -0.7443
22370SOL     OW67687   6.741   8.983   9.862  0.3706  0.1987 -0.3053
22370SOL    HW167688   6.671   9.035   9.822  0.9508  0.8386 -0.5114
22370SOL    HW267689   6.781   9.042   9.926 -0.0999 -0.5950  0.7404
22371SOL     OW67690   2.994   8.166   4.218 -0.1698 -0.9367  1.0887
22371SOL    HW167691   2.963   8.076   4.203 -0.1209 -1.0082  1.4089
22371SOL    HW267692   3.065   8.156   4.282 -0.3632 -0.6408  1.3523
22372SOL     OW67693   9.174   8.332   6.481  0.0423  0.3427 -0.2961
22372SOL    HW167694   9.236   8.260   6.490 -0.8855 -0.6080 -1.1700
22372SOL    HW267695   9.225   8.405   6.445  1.4444  0.8147  2.3787
22373SOL     OW67696   4.723   6.769   2.055  0.0437  0.2997 -0.4305
22373SOL    HW167697   4.786   6.697   2.062 -0.9625 -0.5799 -0.2281
22373SOL    HW267698   4.643   6.736   2.095 -0.4126  1.5867 -0.2054
22374SOL     OW67699   3.159   4.233   1.049  0.3898  0.0770 -0.5232
22374SOL    HW167700   3.227   4.289   1.087  0.3862 -0.6299  0.5625
22374SOL    HW267701   3.113   4.197   1.125 -1.4089  0.7832 -1.2466
22375SOL     OW67702   1.943   3.770   2.376  0.2235  0.0792  0.0382
22375SOL    HW167703   2.015   3.816   2.419 -0.5845  0.1415  1.3820
22375SOL    HW267704   1.897   3.726   2.448 -0.4477 -0.8439 -0.9271
22376SOL     OW67705   0.183   7.365   8.300  0.0030  0.0500 -0.0565
22376SOL    HW167706   0.222   7.425   8.237  1.1149 -0.0383  0.5292
22376SOL    HW267707   0.089   7.385   8.297  0.2744  1.3466 -0.3534
22377SOL     OW67708   6.137   2.376   1.775 -0.2734  0.5093  0.0890
22377SOL    HW167709   6.182   2.438   1.718  0.1089  1.3401  1.2840
22377SOL    HW267710   6.175   2.389   1.861 -0.9557 -0.6312  0.5923
22378SOL     OW67711   4.314   2.687   3.744 -0.4765  0.2249 -0.4117
22378SOL    HW167712   4.233   2.663   3.789 -1.0386  3.0252  0.2819
22378SOL    HW267713   4.299   2.778   3.716  2.0288  0.4586 -1.1847
22379SOL     OW67714   8.418   6.149   1.435  0.1063  0.6804  0.0860
22379SOL    HW167715   8.489   6.085   1.435  0.2626  0.8502 -0.4782
22379SOL    HW267716   8.345   6.105   1.390 -0.3473  0.2991  1.1563
22380SOL     OW67717   3.089   4.441   9.310  0.3168  0.2092  1.0099
22380SOL    HW167718   3.053   4.357   9.340  1.4729 -0.8667 -0.4945
22380SOL    HW267719   3.172   4.450   9.356  1.4175 -0.7656 -0.6601
22381SOL     OW67720   6.373   9.787   4.234  0.0174 -0.1852  0.0296
22381SOL    HW167721   6.432   9.855   4.268 -1.8012  0.7407  1.4963
22381SOL    HW267722   6.397   9.708   4.283  0.5725 -0.0377  0.0087
22382SOL     OW67723   4.242   4.411   2.726  0.1502 -0.4184  0.0788
22382SOL    HW167724   4.150   4.395   2.707  0.6037  0.3284 -3.4137
22382SOL    HW267725   4.251   4.506   2.718  1.1012 -0.3979  1.1700
22383SOL     OW67726   6.226   0.976   3.209 -0.2466 -0.3905  0.2248
22383SOL    HW167727   6.278   0.898   3.192 -0.1316 -0.0688 -0.9188
22383SOL    HW267728   6.262   1.043   3.152 -1.7046 -0.0801 -0.3833
22384SOL     OW67729   4.312   3.241   8.371 -0.3127  0.7830  0.0387
22384SOL    HW167730   4.350   3.271   8.288  1.2738 -0.7248  0.1364
22384SOL    HW267731   4.381   3.257   8.436 -1.1206  0.9550  0.8757
22385SOL     OW67732   4.786   2.352   6.710  0.3286 -0.1746  0.3147
22385SOL    HW167733   4.740   2.425   6.752  0.2211  0.1279 -0.3293
22385SOL    HW267734   4.878   2.376   6.717  0.3424 -0.3547  0.8028
22386SOL     OW67735   0.713   8.602   9.699 -0.6773  0.5023 -0.2441
22386SOL    HW167736   0.774   8.528   9.693 -1.1212  0.1790 -0.9130
22386SOL    HW267737   0.693   8.609   9.792 -1.2153 -0.7179 -0.2455
22387SOL     OW67738   6.555   3.900   1.002  0.0655 -0.6781 -0.4622
22387SOL    HW167739   6.491   3.959   0.961 -1.3341 -1.0973  1.0356
22387SOL    HW267740   6.640   3.936   0.976 -0.6492  2.9204  1.5028
22388SOL     OW67741   6.394   3.774   0.042 -0.5484 -0.0473 -0.4702
22388SOL    HW167742   6.416   3.689   0.081  2.0708  0.5949 -0.3692
22388SOL    HW267743   6.335   3.815   0.105 -0.6263 -1.1699  0.2188
22389SOL     OW67744   0.699   4.153   7.521  0.3780 -0.2604  0.1763
22389SOL    HW167745   0.608   4.147   7.550  0.6689  0.3450  1.2748
22389SOL    HW267746   0.709   4.243   7.490  0.4873 -0.4625 -0.4024
22390SOL     OW67747   5.494   4.333   5.140 -0.0903  0.1256  0.2255
22390SOL    HW167748   5.432   4.343   5.212  0.7313 -0.0198  0.9701
22390SOL    HW267749   5.504   4.422   5.105 -0.5547  0.1839  0.2390
22391SOL     OW67750   8.734   1.017   8.962 -0.0921  0.3162 -0.5492
22391SOL    HW167751   8.771   1.021   9.050  0.1008  0.1034 -0.6224
22391SOL    HW267752   8.709   1.107   8.942 -0.6656  0.2791 -0.0472
22392SOL     OW67753   0.991   9.731   1.755  0.4431  0.1447  0.3159
22392SOL    HW167754   1.047   9.672   1.705 -1.9388 -2.2582  0.2333
22392SOL    HW267755   1.015   9.715   1.846  0.4907 -0.2139  0.2423
22393SOL     OW67756   6.794   2.853   2.030  0.3533  0.1907 -0.3536
22393SOL    HW167757   6.722   2.869   1.969  0.4137  1.4038 -0.1281
22393SOL    HW267758   6.865   2.908   1.998 -0.1009  2.0800  1.6584
22394SOL     OW67759   9.126   4.501   4.559 -0.6228  0.2097  0.2315
22394SOL    HW167760   9.102   4.580   4.607  0.1683 -0.8275  2.5267
22394SOL    HW267761   9.068   4.433   4.595  1.8339 -1.1861  1.8931
22395SOL     OW67762   6.441   4.351   0.995  0.9284 -0.4390  0.0901
22395SOL    HW167763   6.354   4.392   0.998  1.2531  0.2077  1.0554
22395SOL    HW267764   6.445   4.298   1.075  2.3767  1.5712  1.4270
22396SOL     OW67765   5.483   4.821   1.141 -0.1535  0.2264 -0.0626
22396SOL    HW167766   5.435   4.739   1.152 -0.2487  0.2798 -0.0772
22396SOL    HW267767   5.449   4.858   1.060 -1.6578  1.3194  1.0140
22397SOL     OW67768   1.559   0.827   3.679  0.2313 -0.5420 -0.4855
22397SOL    HW167769   1.579   0.910   3.722 -2.3350  0.0694 -0.2943
22397SOL    HW267770   1.590   0.761   3.741  2.9064  0.1750 -0.9314
22398SOL     OW67771   7.485   6.281   0.384 -0.1186 -0.3230 -0.1073
22398SOL    HW167772   7.535   6.294   0.465  1.4972 -0.0979 -1.1117
22398SOL    HW267773   7.427   6.357   0.380  0.8209  0.4304  0.1220
22399SOL     OW67774   3.346   4.729   7.235  0.1837 -0.5151  0.0882
22399SOL    HW167775   3.438   4.756   7.242 -0.0812  0.0487  1.7992
22399SOL    HW267776   3.316   4.769   7.153  0.4036  2.7105  1.4434
22400SOL     OW67777   6.655   5.695   4.844  0.2267  0.4835 -0.1012
22400SOL    HW167778   6.639   5.682   4.938 -1.6422  0.5436 -0.3735
22400SOL    HW267779   6.715   5.625   4.820  0.4851  0.2819  1.0747
22401SOL     OW67780   9.411   1.479   7.955 -0.3324  0.3642 -0.1389
22401SOL    HW167781   9.499   1.505   7.984 -0.2249 -0.6037  0.4683
22401SOL    HW267782   9.427   1.410   7.890 -0.6319  0.4421 -0.2957
22402SOL     OW67783   7.843   2.141   2.000 -0.5141  0.2913 -0.5059
22402SOL    HW167784   7.906   2.161   2.070 -1.9590  2.4730  0.2921
22402SOL    HW267785   7.878   2.186   1.923  0.6922 -1.4922 -1.0542
22403SOL     OW67786   2.954   6.243   5.364 -0.3265  0.3681 -0.0626
22403SOL    HW167787   3.038   6.209   5.393  0.8683  1.5102 -2.0242
22403SOL    HW267788   2.892   6.171   5.382  1.1392 -0.7307  0.8400
22404SOL     OW67789   3.443   2.788   1.947  0.1277 -0.5584 -0.5565
22404SOL    HW167790   3.443   2.829   2.033  0.6254  0.7491 -1.1468
22404SOL    HW267791   3.351   2.766   1.930 -0.1933  0.5753 -0.3271
22405SOL     OW67792   1.321   4.692   5.274 -0.7866 -0.6025  1.0967
22405SOL    HW167793   1.317   4.611   5.326 -0.6053 -2.4078 -1.4878
22405SOL    HW267794   1.275   4.670   5.193 -2.0115  2.4073  0.8500
22406SOL     OW67795   7.966   9.522   2.541  0.5289 -0.1301 -0.6092
22406SOL    HW167796   7.974   9.461   2.468  1.8113  0.3527 -0.9101
22406SOL    HW267797   7.879   9.560   2.533  0.1900 -0.9984 -1.1459
22407SOL     OW67798   8.197   8.670   7.106 -0.8585 -0.6891  0.1203
22407SOL    HW167799   8.217   8.718   7.025 -1.1869  0.0811  0.4846
22407SOL    HW267800   8.126   8.611   7.082 -0.6593 -0.7767 -0.2601
22408SOL     OW67801   8.138   6.971   8.531 -0.0940 -0.0692 -0.6141
22408SOL    HW167802   8.122   6.944   8.622 -0.9577 -1.0717 -1.0448
22408SOL    HW267803   8.212   6.916   8.503 -0.6270 -0.6550 -0.8948
22409SOL     OW67804   0.032   3.939   8.445  0.0274 -0.3383 -0.2086
22409SOL    HW167805  -0.026   3.867   8.469 -0.1674 -0.4056 -0.8626
22409SOL    HW267806   0.120   3.907   8.468 -0.0561 -0.7962 -0.5002
22410SOL     OW67807   7.043   9.141   9.331  0.7628  0.6402  0.1830
22410SOL    HW167808   7.079   9.214   9.382  0.5201  2.0008 -1.4814
22410SOL    HW267809   7.085   9.063   9.368  2.5481  1.7917  0.7484
22411SOL     OW67810   9.492   0.370   8.902 -0.4712 -0.7287  0.0016
22411SOL    HW167811   9.562   0.407   8.850 -0.9486 -0.0160 -0.1523
22411SOL    HW267812   9.432   0.331   8.838 -0.3158 -1.1717  0.1198
22412SOL     OW67813   2.752   1.743   7.309  0.0463 -0.5244  0.1738
22412SOL    HW167814   2.725   1.730   7.219  1.1959 -0.6235 -0.1727
22412SOL    HW267815   2.670   1.752   7.358 -0.5882  1.1232 -1.0991
22413SOL     OW67816   1.957   9.265   7.271 -0.0662 -0.1529 -0.0368
22413SOL    HW167817   1.987   9.312   7.193  1.8149 -1.1741  0.0265
22413SOL    HW267818   2.037   9.238   7.315 -1.0219 -3.3420 -0.0397
22414SOL     OW67819   5.107   9.159   0.184  0.0895  0.0176 -0.0154
22414SOL    HW167820   5.176   9.117   0.132 -0.1800  0.4035 -0.7043
22414SOL    HW267821   5.046   9.089   0.204 -0.1842 -0.0020 -0.8696
22415SOL     OW67822   3.784   4.816   7.828  0.1040  0.5080  0.1528
22415SOL    HW167823   3.804   4.879   7.898  1.1509  0.7951 -0.3904
22415SOL    HW267824   3.829   4.736   7.855  3.1102  1.4566 -1.5952
22416SOL     OW67825   4.911   3.848   6.307 -0.6800 -0.1040  0.0024
22416SOL    HW167826   4.921   3.753   6.293 -1.1598 -0.0222 -1.0180
22416SOL    HW267827   4.937   3.862   6.398 -1.3818 -1.3420  0.4182
22417SOL     OW67828   0.059   7.734   3.469  0.6350  0.5179  0.3216
22417SOL    HW167829   0.103   7.806   3.424  0.8800  0.0294 -0.2326
22417SOL    HW267830   0.128   7.690   3.519  0.8474 -0.3758 -0.7126
22418SOL     OW67831   5.965   6.111   9.509 -0.1254  0.5385 -0.3929
22418SOL    HW167832   5.904   6.046   9.473 -0.5563  1.6343 -1.7329
22418SOL    HW267833   6.051   6.082   9.478 -0.3885  0.9421 -1.5554
22419SOL     OW67834   6.212   8.325   3.865 -0.1628 -0.0677 -0.1218
22419SOL    HW167835   6.303   8.302   3.886 -0.6094 -1.6038  0.2142
22419SOL    HW267836   6.209   8.420   3.875  1.0392 -0.1421  1.3775
22420SOL     OW67837   6.544   1.509   9.410 -0.1869  0.3594  0.3319
22420SOL    HW167838   6.550   1.414   9.416 -0.5925  0.3803  1.2217
22420SOL    HW267839   6.606   1.542   9.475  2.5884  0.7924 -2.3290
22421SOL     OW67840   3.475   9.480   2.625 -0.2718 -0.0699 -0.3955
22421SOL    HW167841   3.535   9.476   2.551 -2.4219  0.1398 -2.2309
22421SOL    HW267842   3.474   9.572   2.651  0.5693 -0.1641 -0.0023
22422SOL     OW67843   6.361   5.381   9.020  0.3724 -0.2893 -0.5218
22422SOL    HW167844   6.387   5.473   9.030 -0.7151 -0.0380  0.2139
22422SOL    HW267845   6.266   5.382   9.031  0.2634 -1.4230 -1.1843
22423SOL     OW67846   5.409   5.641   5.367  0.5492  0.1623 -0.0763
22423SOL    HW167847   5.436   5.664   5.455 -1.4415  1.1740  0.3369
22423SOL    HW267848   5.390   5.724   5.324 -0.2782 -0.3875 -0.8367
22424SOL     OW67849   6.261   9.092   2.502  0.0176 -0.3872  0.0686
22424SOL    HW167850   6.348   9.059   2.524 -0.0185 -0.4010  0.1921
22424SOL    HW267851   6.232   9.035   2.430  0.5123  0.2510 -0.6436
22425SOL     OW67852   3.027   1.998   4.628  0.1821 -0.6240  0.1039
22425SOL    HW167853   3.092   2.049   4.676  0.2217  0.4163 -1.0178
22425SOL    HW267854   3.029   2.034   4.539 -4.3207  1.8216  0.7216
22426SOL     OW67855   6.805   2.312   9.272 -0.1848 -0.1039 -0.4055
22426SOL    HW167856   6.812   2.406   9.259 -1.7753  0.3928  1.7765
22426SOL    HW267857   6.719   2.289   9.236 -0.9075 -0.2042  1.2817
22427SOL     OW67858   4.402   7.002   6.596  0.1099  0.1883 -0.2635
22427SOL    HW167859   4.495   7.017   6.617 -0.1779  0.5332  0.8363
22427SOL    HW267860   4.359   7.083   6.620 -0.7817 -0.6826  1.2372
22428SOL     OW67861   0.446   4.165   6.111 -0.1047 -0.1506  0.1254
22428SOL    HW167862   0.424   4.130   6.197  0.4155  0.8126  0.6718
22428SOL    HW267863   0.363   4.166   6.063 -0.1179 -2.1936  0.0264
22429SOL     OW67864   0.516   8.908   6.362  0.2632 -0.4315  0.1146
22429SOL    HW167865   0.421   8.898   6.357  0.2426 -0.3233  0.3018
22429SOL    HW267866   0.529   8.991   6.407  0.4476 -0.4598  0.1141
22430SOL     OW67867   2.516   8.122   5.242 -0.4767  0.2823  0.0570
22430SOL    HW167868   2.508   8.055   5.174  0.7446  1.4665 -1.3351
22430SOL    HW267869   2.477   8.200   5.202  1.8636  1.4861 -0.0648
22431SOL     OW67870   9.344   1.330   8.934 -0.2390 -0.2634 -0.0967
22431SOL    HW167871   9.418   1.316   8.993 -0.6474  0.2248  0.5456
22431SOL    HW267872   9.283   1.259   8.954 -0.2087 -0.3167 -0.1957
22432SOL     OW67873   1.006   2.097   9.946 -0.7553 -0.1060  0.2653
22432SOL    HW167874   0.979   2.089   9.855  0.1365 -1.8117  0.1052
22432SOL    HW267875   1.101   2.082   9.944 -0.5571  0.8905  1.3468
22433SOL     OW67876   2.450   0.820   5.454  0.4377  0.2227 -0.1010
22433SOL    HW167877   2.540   0.806   5.485  1.0492  2.0470 -0.8763
22433SOL    HW267878   2.396   0.770   5.514  1.7265  1.7567  2.5439
22434SOL     OW67879   1.785   1.620   9.749  0.1041  0.3460 -0.1395
22434SOL    HW167880   1.837   1.555   9.701 -3.2671 -1.4216 -1.7982
22434SOL    HW267881   1.716   1.569   9.791 -0.2782  2.5125  2.0883
22435SOL     OW67882   3.997   7.576   9.454  0.4354 -0.1186 -0.8236
22435SOL    HW167883   4.053   7.653   9.450 -0.3103  0.6335  1.7942
22435SOL    HW267884   4.058   7.502   9.443  1.6831  0.7400  0.0275
22436SOL     OW67885   5.141   3.291   3.644  0.3368  0.1849  0.1324
22436SOL    HW167886   5.143   3.348   3.720  1.5074 -0.2181  0.4201
22436SOL    HW267887   5.059   3.242   3.653  0.0702  0.7198  0.6850
22437SOL     OW67888   1.729   7.451   8.327 -0.0688 -0.0584  0.5077
22437SOL    HW167889   1.752   7.520   8.389 -0.0841  0.0537  0.3891
22437SOL    HW267890   1.722   7.496   8.243  0.5844 -0.3116  0.3108
22438SOL     OW67891   9.897   1.124   0.594 -0.2190  0.0024 -0.1241
22438SOL    HW167892   9.822   1.119   0.652 -0.6274  1.0096 -0.5470
22438SOL    HW267893   9.931   1.035   0.590  0.3001  0.0306  2.2632
22439SOL     OW67894   2.610   0.856   0.891  0.1711 -0.2688  0.3198
22439SOL    HW167895   2.543   0.914   0.928 -0.6055 -0.4128 -0.8163
22439SOL    HW267896   2.686   0.913   0.877 -0.0763  0.1353  0.6075
22440SOL     OW67897   8.546   7.956   6.155  0.1690 -0.3730  0.2661
22440SOL    HW167898   8.584   8.020   6.216  1.3620 -0.5695 -0.2440
22440SOL    HW267899   8.620   7.900   6.130 -0.1666  0.0391 -1.7788
22441SOL     OW67900   7.537   9.874   9.613  0.8853  0.2250 -0.1629
22441SOL    HW167901   7.548   9.922   9.530  1.6525  1.2464  0.5013
22441SOL    HW267902   7.443   9.856   9.618  0.7900  0.3849 -1.1226
22442SOL     OW67903   9.140   3.586   2.319 -0.6677  0.0632  0.6897
22442SOL    HW167904   9.061   3.560   2.367 -0.6476 -0.2342  0.5606
22442SOL    HW267905   9.213   3.562   2.376 -0.6519 -0.1312  0.5904
22443SOL     OW67906   1.253   3.903   5.585 -0.1607  0.1550 -0.0336
22443SOL    HW167907   1.314   3.942   5.648 -0.2364  0.1617  0.0345
22443SOL    HW267908   1.277   3.944   5.501 -0.8781  1.0928  0.1957
22444SOL     OW67909   6.896   4.068   7.407  0.6421  0.4437  0.3167
22444SOL    HW167910   6.980   4.084   7.364  1.0498 -1.2830  0.3938
22444SOL    HW267911   6.915   4.000   7.472 -0.3837  1.5371  1.8245
22445SOL     OW67912   2.065   1.926   6.042  0.0872 -0.1152  0.6887
22445SOL    HW167913   2.158   1.910   6.023 -0.2264 -0.4262 -0.7268
22445SOL    HW267914   2.066   1.993   6.110  1.3693  1.0531 -0.3961
22446SOL     OW67915   8.961   0.417   4.656 -0.0647 -0.1243  0.3666
22446SOL    HW167916   8.907   0.339   4.668 -0.6876  0.2751  0.1850
22446SOL    HW267917   8.904   0.490   4.680 -0.2762  0.4481 -1.6438
22447SOL     OW67918   0.099   4.380   2.739 -0.5424 -0.2192  0.0927
22447SOL    HW167919   0.062   4.469   2.745 -2.6668 -0.9648 -1.1059
22447SOL    HW267920   0.085   4.343   2.826 -2.1545 -0.2533 -0.1421
22448SOL     OW67921   8.715   3.929   0.121 -0.2489  0.0334 -0.0290
22448SOL    HW167922   8.766   3.882   0.187 -0.2223 -0.2243 -0.2333
22448SOL    HW267923   8.660   3.989   0.172 -1.6079 -1.4875  0.3478
22449SOL     OW67924   8.065   4.853   4.015  0.0871  0.0766 -0.0450
22449SOL    HW167925   8.132   4.879   3.952 -0.6095 -1.3769 -1.4494
22449SOL    HW267926   7.999   4.923   4.011  0.3696  0.3244 -0.4204
22450SOL     OW67927   7.236   9.870   9.617 -0.4467 -0.5928  0.2872
22450SOL    HW167928   7.208   9.831   9.700  0.1293 -0.8617  0.3650
22450SOL    HW267929   7.195   9.956   9.616 -1.7317 -1.1784  0.1240
22451SOL     OW67930   9.011   9.650   3.645  0.1446  0.2572 -0.4050
22451SOL    HW167931   8.932   9.617   3.603  0.7087 -0.9756 -0.5374
22451SOL    HW267932   9.003   9.622   3.736 -0.7753  2.3754  0.2266
22452SOL     OW67933   7.546   8.769   6.598  0.1877 -0.1379 -0.0802
22452SOL    HW167934   7.496   8.705   6.549  0.2687  0.3097 -0.7727
22452SOL    HW267935   7.576   8.723   6.676  0.0549 -0.8666 -0.4574
22453SOL     OW67936   7.671   0.084   1.486 -0.3354  0.7797 -0.0731
22453SOL    HW167937   7.698   0.156   1.428 -1.8197  0.7389 -0.8529
22453SOL    HW267938   7.585   0.110   1.519 -0.2676 -0.0030  0.7607
22454SOL     OW67939   8.362   6.236   6.836  0.3747  0.5675  0.1461
22454SOL    HW167940   8.313   6.268   6.912  1.3090 -0.2069  1.1043
22454SOL    HW267941   8.311   6.265   6.761 -1.5136 -0.1361  1.0956
22455SOL     OW67942   0.665   9.913   6.860 -0.5239  0.4178 -0.0522
22455SOL    HW167943   0.612   9.836   6.845  0.9376 -0.8924  1.1428
22455SOL    HW267944   0.640   9.943   6.948  0.0145  0.3395  0.1357
22456SOL     OW67945   1.356   9.894   0.682 -0.2755 -0.0066 -0.3167
22456SOL    HW167946   1.397   9.956   0.742  0.0152 -0.5004 -0.0051
22456SOL    HW267947   1.335   9.947   0.604  0.7795  0.2900 -0.4144
22457SOL     OW67948   7.220   0.557   2.834  0.1655  0.1977 -0.4133
22457SOL    HW167949   7.184   0.557   2.922 -0.2807 -2.1066 -0.5369
22457SOL    HW267950   7.287   0.625   2.835  0.8024 -0.3942  1.9721
22458SOL     OW67951   5.668   2.182   0.196  0.3934 -0.1951 -0.5804
22458SOL    HW167952   5.684   2.196   0.103  2.1530 -1.0635 -0.4451
22458SOL    HW267953   5.642   2.090   0.202  0.3391 -0.1564 -0.2086
22459SOL     OW67954   9.019   0.747   9.265  0.9627 -0.1286  0.0984
22459SOL    HW167955   9.072   0.793   9.330  1.3549 -0.2003 -0.1715
22459SOL    HW267956   8.929   0.765   9.291  0.9625  3.5679 -1.8476
22460SOL     OW67957   7.638   0.920   7.999  0.3113 -0.3370 -0.4752
22460SOL    HW167958   7.674   0.833   8.015 -0.9176 -0.7899 -0.1273
22460SOL    HW267959   7.560   0.925   8.054 -1.1568 -0.0386 -2.4791
22461SOL     OW67960   3.180   5.503   9.785 -0.1617  0.1650  0.2362
22461SOL    HW167961   3.223   5.580   9.748 -0.7698  0.6709  0.5569
22461SOL    HW267962   3.205   5.503   9.877  0.8040 -0.7103 -0.0149
22462SOL     OW67963   1.356   4.251   7.666  0.0923  0.9088 -0.1965
22462SOL    HW167964   1.320   4.258   7.577  1.7839  1.1091 -0.9123
22462SOL    HW267965   1.354   4.340   7.700  0.7917  1.0969 -0.6196
22463SOL     OW67966   5.316   5.863   8.504 -0.0307  0.3458  0.0495
22463SOL    HW167967   5.401   5.834   8.471  0.6289 -1.3590  2.8829
22463SOL    HW267968   5.259   5.863   8.427  1.9340 -0.9127 -1.4943
22464SOL     OW67969   4.472   0.188   3.021 -0.8439  0.3916 -0.1088
22464SOL    HW167970   4.521   0.108   3.040 -0.6820 -0.0702 -2.2639
22464SOL    HW267971   4.540   0.255   3.009 -0.8430  0.2367 -0.9778
22465SOL     OW67972   7.679   7.225   9.875  0.3496 -0.0136  0.4354
22465SOL    HW167973   7.712   7.207   9.963 -0.0506 -0.2153  0.5471
22465SOL    HW267974   7.628   7.147   9.853  0.5798 -0.0306 -0.0380
22466SOL     OW67975   8.731   0.671   4.607  0.3414  0.1678  0.2234
22466SOL    HW167976   8.644   0.709   4.615 -0.6289 -1.7085 -0.7606
22466SOL    HW267977   8.771   0.684   4.693 -0.2183  2.5621  0.1992
22467SOL     OW67978   2.983   4.661   9.888 -0.1457 -0.0943  0.1029
22467SOL    HW167979   2.997   4.747   9.848  0.6242 -0.2060  0.1193
22467SOL    HW267980   2.902   4.670   9.938  0.7424  1.0847  1.3737
22468SOL     OW67981   2.127   9.354   2.548  0.0809 -0.3247  0.4781
22468SOL    HW167982   2.211   9.374   2.507 -0.0320  0.2168  0.5090
22468SOL    HW267983   2.088   9.439   2.567 -0.4660 -0.5726  0.4878
22469SOL     OW67984   5.598   3.986   1.932 -0.2725  0.9890 -0.0192
22469SOL    HW167985   5.600   3.957   1.841 -0.5066  0.7397  0.0548
22469SOL    HW267986   5.588   4.081   1.926 -1.1163  0.8952 -0.2488
22470SOL     OW67987   2.217   4.181   6.681 -0.0387 -0.0321  0.1127
22470SOL    HW167988   2.150   4.249   6.691  0.5642  0.4660  0.9188
22470SOL    HW267989   2.173   4.109   6.637 -1.5829 -0.4241  2.1699
22471SOL     OW67990   5.889   2.680   8.615 -0.1659 -0.1284 -0.1863
22471SOL    HW167991   5.794   2.686   8.632 -0.9711 -3.6046 -2.3945
22471SOL    HW267992   5.895   2.671   8.520  2.2325 -1.7209  0.0532
22472SOL     OW67993   7.515   1.279   8.190  0.0572 -0.0920  0.0061
22472SOL    HW167994   7.568   1.346   8.232  0.1519  0.5110 -1.0711
22472SOL    HW267995   7.571   1.240   8.124 -0.4844 -0.2017 -0.3979
22473SOL     OW67996   0.955   9.057   9.382 -0.6728  0.2896 -0.1113
22473SOL    HW167997   1.003   9.085   9.304  1.4090 -0.1551  0.9311
22473SOL    HW267998   0.944   8.963   9.371 -3.0797  0.6291 -1.2097
22474SOL     OW67999   3.681   7.305   9.247  0.3345 -0.0607 -0.0806
22474SOL    HW168000   3.723   7.390   9.257  1.4585 -0.7187  1.2026
22474SOL    HW268001   3.717   7.269   9.166  0.7004  0.2331 -0.0491
22475SOL     OW68002   9.771   7.530   0.191 -0.6298  0.6412  0.3071
22475SOL    HW168003   9.689   7.562   0.229 -0.8689  1.6358 -0.9684
22475SOL    HW268004   9.746   7.454   0.139 -0.2578 -0.9154  2.2546
22476SOL     OW68005   4.137   0.234   0.595 -0.8747 -0.8726  0.3328
22476SOL    HW168006   4.181   0.203   0.674 -2.0676 -0.3550  1.2351
22476SOL    HW268007   4.208   0.255   0.534  0.0337 -3.2200  0.4761
22477SOL     OW68008   9.588   4.726   7.768 -0.0857  0.0871 -0.4344
22477SOL    HW168009   9.635   4.726   7.851  0.9290  0.0707 -0.9974
22477SOL    HW268010   9.643   4.675   7.708 -0.8676 -0.0210 -1.0861
22478SOL     OW68011   2.650   1.252   9.931 -0.5804 -0.1581 -0.8202
22478SOL    HW168012   2.594   1.204   9.992  4.1824 -3.7474  1.2982
22478SOL    HW268013   2.665   1.191   9.859  1.5662  0.1213 -0.6587
22479SOL     OW68014   4.193   3.343   9.285  0.5006  0.6962 -0.0637
22479SOL    HW168015   4.139   3.289   9.342 -0.5633  2.7731  1.0143
22479SOL    HW268016   4.275   3.353   9.332 -0.7762  3.3774  1.8678
22480SOL     OW68017   8.446   3.985   4.318 -0.0495 -0.3404 -0.1282
22480SOL    HW168018   8.466   4.054   4.255  0.0565  0.1988  0.4797
22480SOL    HW268019   8.423   3.909   4.265  0.2466  0.0406 -0.8128
22481SOL     OW68020   2.501   4.437   8.882  0.3800  0.3688  0.2277
22481SOL    HW168021   2.509   4.377   8.808 -2.2584 -1.0007  0.9104
22481SOL    HW268022   2.580   4.491   8.879  1.1490 -0.7637 -2.5436
22482SOL     OW68023   5.240   2.067   9.180  0.3177  0.0786  0.3523
22482SOL    HW168024   5.213   1.978   9.201 -0.3046 -0.0465 -0.8566
22482SOL    HW268025   5.323   2.057   9.133 -0.7844 -0.0823 -1.6824
22483SOL     OW68026   0.025   6.368   3.808 -0.4394  0.1280  0.2298
22483SOL    HW168027  -0.009   6.381   3.719  0.0742 -0.8653 -0.1298
22483SOL    HW268028   0.072   6.285   3.803  0.5360  0.6068  1.1501
22484SOL     OW68029   7.979   5.162   3.215 -0.1747  0.5779 -1.2061
22484SOL    HW168030   8.072   5.139   3.208 -0.6824 -1.5077 -2.1833
22484SOL    HW268031   7.975   5.254   3.190  1.5599  0.5540 -1.7307
22485SOL     OW68032   6.477   4.920   7.159  0.3550 -0.4914  0.0094
22485SOL    HW168033   6.500   4.991   7.218  1.5206 -1.2790  0.5384
22485SOL    HW268034   6.382   4.911   7.169  0.1580  1.0418 -0.1652
22486SOL     OW68035   2.953   8.581   3.411 -0.4416  0.5616 -0.1834
22486SOL    HW168036   2.929   8.511   3.472 -0.3248 -0.5323 -1.3404
22486SOL    HW268037   2.990   8.649   3.466  0.9366 -0.9459  0.8508
22487SOL     OW68038   4.506   4.736   7.280 -0.5464 -0.0191  0.2687
22487SOL    HW168039   4.592   4.702   7.305 -0.1325  1.1026  0.4370
22487SOL    HW268040   4.524   4.797   7.208 -0.9696  1.5564  1.4482
22488SOL     OW68041   6.419   5.946   0.759 -0.3421  0.4615  0.0112
22488SOL    HW168042   6.476   5.978   0.829  0.0453  1.2736 -0.6592
22488SOL    HW268043   6.474   5.887   0.708 -1.2126 -1.8145  1.5694
22489SOL     OW68044   0.098   5.224   5.283 -0.2553  0.2806  0.7997
22489SOL    HW168045   0.130   5.250   5.196 -0.3018 -1.0372  0.3634
22489SOL    HW268046   0.174   5.185   5.326 -0.1982  1.0412  1.4313
22490SOL     OW68047   7.791   8.313   7.960 -0.2495  0.2958 -0.4324
22490SOL    HW168048   7.793   8.390   8.018 -1.0194 -1.3703  1.9530
22490SOL    HW268049   7.699   8.305   7.936 -0.5325 -0.9358  0.9297
22491SOL     OW68050   1.581   6.003   6.656  0.5867  0.1181 -0.1059
22491SOL    HW168051   1.657   6.010   6.714  0.8143 -0.2081 -0.3658
22491SOL    HW268052   1.598   5.925   6.603 -1.0189 -1.3572  1.4199
22492SOL     OW68053   4.209   5.992   5.241 -0.4508  0.0786 -0.1813
22492SOL    HW168054   4.193   5.941   5.321 -0.5484  0.1633 -0.1465
22492SOL    HW268055   4.169   5.940   5.172 -2.1456  0.9469  0.0850
22493SOL     OW68056   9.237   1.807   4.795  0.0756  0.5774 -0.0437
22493SOL    HW168057   9.170   1.788   4.860  0.1804  1.9776  0.5087
22493SOL    HW268058   9.254   1.900   4.804  0.9001  0.5862 -1.3295
22494SOL     OW68059   1.695   5.978   8.135  0.0285  0.5257 -0.0915
22494SOL    HW168060   1.686   5.900   8.080 -0.9724  2.2516 -2.5351
22494SOL    HW268061   1.729   6.045   8.076 -3.1760  3.1133  0.7378
22495SOL     OW68062   1.087   6.377   2.032  0.1175 -0.9036 -0.3150
22495SOL    HW168063   0.997   6.400   2.055 -0.4082  0.9839 -3.6020
22495SOL    HW268064   1.080   6.340   1.943  2.5864 -0.6793 -0.6758
22496SOL     OW68065   8.183   5.823   8.609  0.1275 -0.4381  0.1284
22496SOL    HW168066   8.092   5.833   8.581  0.5584  0.0457 -1.1259
22496SOL    HW268067   8.176   5.786   8.698 -1.3002  0.5755  0.4735
22497SOL     OW68068   6.192   1.543   6.919  0.2178 -0.2898 -0.4553
22497SOL    HW168069   6.204   1.622   6.972  0.3307 -0.8285  0.3388
22497SOL    HW268070   6.151   1.574   6.839  2.3169  0.9064 -1.1457
22498SOL     OW68071   6.149   2.349   8.553 -0.1422  0.0114  0.4881
22498SOL    HW168072   6.196   2.428   8.581  0.2199  0.0186 -0.1152
22498SOL    HW268073   6.202   2.277   8.587  0.2948  0.0198 -0.1729
22499SOL     OW68074   1.865   2.095   2.961  0.3338 -0.0789  0.0852
22499SOL    HW168075   1.870   2.079   3.055 -0.3023 -0.7003  0.0201
22499SOL    HW268076   1.951   2.069   2.928  0.4272 -0.2283  0.4394
22500SOL     OW68077   3.055   2.245   7.329  0.3491  0.3050  0.2214
22500SOL    HW168078   3.023   2.202   7.250 -1.1326 -0.6494  1.2781
22500SOL    HW268079   3.149   2.226   7.331 -0.1282 -2.4929  0.3275
22501SOL     OW68080   7.422   2.804   5.441 -0.0355  0.2794 -0.6823
22501SOL    HW168081   7.457   2.718   5.418 -1.0129 -0.3110 -0.0077
22501SOL    HW268082   7.500   2.857   5.457  0.6796  0.2113 -3.3371
22502SOL     OW68083   2.934   9.718   4.348 -0.5137  0.2012  0.4176
22502SOL    HW168084   3.007   9.665   4.317 -0.9793 -0.6913  0.8016
22502SOL    HW268085   2.886   9.660   4.408 -3.3885 -0.4704 -2.2040
22503SOL     OW68086   1.014   0.660   1.178  0.4854 -0.1121  0.0658
22503SOL    HW168087   0.955   0.730   1.151 -0.7440 -1.1289 -0.0109
22503SOL    HW268088   1.041   0.618   1.097 -0.7100 -1.2044  0.1982
22504SOL     OW68089   9.760   7.610   5.036 -0.3425  0.2319  0.2210
22504SOL    HW168090   9.835   7.612   5.096 -1.3621  1.0588  1.5497
22504SOL    HW268091   9.739   7.517   5.028  0.3502  0.0445  0.4626
22505SOL     OW68092   8.546   2.449   6.746 -0.0214 -0.3012  0.6219
22505SOL    HW168093   8.549   2.542   6.722 -0.7727 -0.3366  0.3751
22505SOL    HW268094   8.636   2.418   6.733 -0.2148 -0.1500 -1.4646
22506SOL     OW68095   6.615   3.699   0.580  0.2841  0.2614 -0.0419
22506SOL    HW168096   6.623   3.794   0.584  1.2459  0.1607  0.9329
22506SOL    HW268097   6.624   3.670   0.672 -0.8292 -0.7085 -0.2075
22507SOL     OW68098   0.705   5.457   3.924 -0.5136  0.3462  0.3927
22507SOL    HW168099   0.761   5.502   3.860  0.7329 -1.2281  0.2983
22507SOL    HW268100   0.765   5.430   3.994 -1.2793 -0.6721  0.6934
22508SOL     OW68101   4.440   9.654   4.337  0.1569  0.1104  0.3498
22508SOL    HW168102   4.415   9.625   4.249  0.9856 -0.5872  0.3337
22508SOL    HW268103   4.361   9.639   4.390 -0.1751  0.0342 -0.1581
22509SOL     OW68104   7.471   1.731   8.639 -0.5239  0.4655 -0.3698
22509SOL    HW168105   7.487   1.659   8.577 -0.1845  0.1198  0.1111
22509SOL    HW268106   7.445   1.687   8.720 -0.6587  0.9001 -0.1759
22510SOL     OW68107   6.472   0.918   6.616 -0.2736 -0.1737 -0.0682
22510SOL    HW168108   6.458   0.846   6.554  0.8462  0.3684 -0.9881
22510SOL    HW268109   6.383   0.943   6.644 -0.7654 -0.8734 -0.9398
22511SOL     OW68110   4.960   0.144   1.017  0.1163 -0.1068  0.6383
22511SOL    HW168111   4.865   0.129   1.008 -0.3800  2.7358  0.1926
22511SOL    HW268112   4.994   0.134   0.928  0.6680 -2.9551  1.0514
22512SOL     OW68113   1.777   9.728   1.420  0.1721 -0.0973  0.1956
22512SOL    HW168114   1.817   9.733   1.333 -2.9410 -1.4183 -1.4926
22512SOL    HW268115   1.746   9.817   1.437  0.9954  0.2196  0.0593
22513SOL     OW68116   5.930   8.501   4.554  0.1126  0.2011 -0.2720
22513SOL    HW168117   6.025   8.500   4.557  0.3017  0.1906 -3.0210
22513SOL    HW268118   5.905   8.408   4.552  0.0494  0.2040  0.4140
22514SOL     OW68119   7.870   2.094   9.957  0.2183  0.3323  0.3537
22514SOL    HW168120   7.856   2.098  10.051 -0.2614 -0.1325  0.3128
22514SOL    HW268121   7.785   2.065   9.922  0.7477 -0.7481 -0.0937
22515SOL     OW68122   9.025   0.552   7.765 -0.0226 -0.3671  0.0025
22515SOL    HW168123   9.041   0.464   7.800 -0.7866  0.3254  2.2795
22515SOL    HW268124   8.943   0.544   7.716  0.2764 -1.0644 -0.3907
22516SOL     OW68125   6.885   3.350   1.359 -0.3465 -0.3388 -0.2188
22516SOL    HW168126   6.922   3.427   1.314 -1.3919  1.0126  1.1422
22516SOL    HW268127   6.825   3.312   1.294 -0.6685  0.6793 -0.5509
22517SOL     OW68128   9.362   1.561   2.339 -0.4126 -0.1322  0.0833
22517SOL    HW168129   9.292   1.533   2.280 -0.4917  0.9324 -0.3390
22517SOL    HW268130   9.388   1.481   2.384  0.0026 -1.0949 -1.7556
22518SOL     OW68131   7.995   2.876   4.605  0.3564 -0.4876  0.2789
22518SOL    HW168132   8.078   2.911   4.638 -0.5814 -0.3864  2.7693
22518SOL    HW268133   7.953   2.839   4.683 -3.1459  1.9074 -0.2577
22519SOL     OW68134   5.777   3.200   5.918 -0.0805 -0.3204  0.0958
22519SOL    HW168135   5.866   3.177   5.889 -0.5841 -0.4274 -1.4659
22519SOL    HW268136   5.791   3.254   5.996  1.4987  1.5759 -1.3802
22520SOL     OW68137   6.117   5.547   9.212 -0.0529  0.3419 -0.5461
22520SOL    HW168138   6.088   5.507   9.130  0.1447 -0.8549 -0.0608
22520SOL    HW268139   6.195   5.596   9.188  0.0417 -0.0493 -1.0692
22521SOL     OW68140   7.739   9.922   3.026 -0.6564 -0.9591 -0.3907
22521SOL    HW168141   7.739   9.956   2.936 -0.1411  1.0376  0.3075
22521SOL    HW268142   7.647   9.926   3.053 -0.6548 -0.4498 -0.4501
22522SOL     OW68143   5.526   7.453   5.942  0.0151 -0.1971 -0.1871
22522SOL    HW168144   5.537   7.538   5.985  1.7591  0.2246 -1.3528
22522SOL    HW268145   5.509   7.475   5.850 -1.3437 -1.1070 -0.1745
22523SOL     OW68146   2.603   6.920   4.806 -0.2809  0.0330 -0.4281
22523SOL    HW168147   2.623   6.995   4.862  0.9186 -1.8235  1.8214
22523SOL    HW268148   2.687   6.895   4.768 -0.4508 -0.8157 -0.2724
22524SOL     OW68149   5.481   3.785   6.773 -0.0570 -0.5266  0.1217
22524SOL    HW168150   5.481   3.776   6.868  2.2362 -0.6384  0.1502
22524SOL    HW268151   5.477   3.694   6.741  0.0717 -0.5356  0.1301
22525SOL     OW68152   6.484   2.614   3.832 -0.3710  0.2583 -0.2719
22525SOL    HW168153   6.412   2.661   3.875 -1.8672 -2.4237  0.3831
22525SOL    HW268154   6.469   2.628   3.738  1.2463  3.7797 -0.1577
22526SOL     OW68155   1.664   2.755   9.397 -0.1454 -0.1529 -0.0046
22526SOL    HW168156   1.600   2.807   9.445  1.6460  3.7074 -1.3488
22526SOL    HW268157   1.735   2.739   9.460 -0.2997 -0.1390  0.1720
22527SOL     OW68158   7.628   8.233   2.716 -0.2788 -0.8003 -0.2158
22527SOL    HW168159   7.642   8.246   2.622 -0.4195  2.5355  0.1094
22527SOL    HW268160   7.605   8.320   2.749 -0.2907 -1.8737  2.9229
22528SOL     OW68161   7.226   3.898   4.855 -0.3261  0.2703  0.1055
22528SOL    HW168162   7.277   3.951   4.794  1.3592 -1.0605  0.3070
22528SOL    HW268163   7.135   3.925   4.839  0.3407  2.1463 -0.7996
22529SOL     OW68164   3.772   2.497   4.751  0.2591 -0.0581  0.6385
22529SOL    HW168165   3.735   2.510   4.838 -0.1751 -0.0288  0.4515
22529SOL    HW268166   3.704   2.529   4.691  0.4866 -0.2368  0.2840
22530SOL     OW68167   5.421   1.551   7.155  0.3703 -0.8536  0.0257
22530SOL    HW168168   5.378   1.520   7.234 -0.1496  0.0990  0.1363
22530SOL    HW268169   5.424   1.475   7.096  1.3161 -1.7408  1.1693
22531SOL     OW68170   4.624   0.163   6.952  0.3896 -0.0888 -0.2906
22531SOL    HW168171   4.636   0.104   6.877 -2.0549  1.4757 -2.0764
22531SOL    HW268172   4.598   0.105   7.024 -2.3736 -1.2911 -2.0919
22532SOL     OW68173   6.276   9.413   3.133 -0.7366 -0.8387  0.1929
22532SOL    HW168174   6.237   9.329   3.109 -0.3548 -0.5668 -1.5001
22532SOL    HW268175   6.229   9.477   3.080 -1.2592  0.0929  1.7086
22533SOL     OW68176   7.542   1.534   3.986 -0.1462  0.4952 -0.5920
22533SOL    HW168177   7.475   1.505   3.925 -0.5891 -1.4828  0.7496
22533SOL    HW268178   7.625   1.518   3.941 -0.4622 -1.1277 -0.6501
22534SOL     OW68179   7.347   6.811   8.197  0.2733 -0.0917  0.0674
22534SOL    HW168180   7.366   6.886   8.140  0.7749 -0.2410  0.0391
22534SOL    HW268181   7.252   6.815   8.209  0.0314 -0.4974 -1.4011
22535SOL     OW68182   1.232   3.422   2.193 -0.7811  0.5861 -0.3983
22535SOL    HW168183   1.242   3.421   2.097  0.1987  2.4901 -0.3730
22535SOL    HW268184   1.144   3.459   2.207 -0.0166  2.6502 -0.6179
22536SOL     OW68185   2.356   1.217   0.373 -0.0779 -0.1518  0.5990
22536SOL    HW168186   2.342   1.144   0.433 -1.7044 -0.0009  0.4563
22536SOL    HW268187   2.313   1.292   0.415 -0.7069  0.0928 -0.4373
22537SOL     OW68188   2.441   9.604   2.874 -0.0960  0.6213  0.1987
22537SOL    HW168189   2.511   9.551   2.913 -0.8871  1.1782  2.5747
22537SOL    HW268190   2.361   9.576   2.919 -2.0563 -1.8294 -4.2183
22538SOL     OW68191   2.906   1.677   8.289 -0.1566  0.7271  0.2956
22538SOL    HW168192   2.853   1.625   8.227  1.0781 -0.0274 -0.1607
22538SOL    HW268193   2.996   1.665   8.259  0.5751 -0.2859  2.6714
22539SOL     OW68194   0.125   6.671   6.110  0.3999 -0.3659 -0.1007
22539SOL    HW168195   0.188   6.618   6.158 -0.6446 -1.0237  0.5840
22539SOL    HW268196   0.164   6.758   6.107  2.3855 -1.2242 -1.6686
22540SOL     OW68197   7.863   1.762   2.240 -0.0251  0.2222  0.4368
22540SOL    HW168198   7.846   1.770   2.334 -0.3321  1.2187  0.3197
22540SOL    HW268199   7.916   1.839   2.219 -0.4520  0.3308 -0.2974
22541SOL     OW68200   1.486   4.270   7.025  0.7838 -0.1418  0.0964
22541SOL    HW168201   1.447   4.298   6.942  0.0024  0.1499  0.5541
22541SOL    HW268202   1.465   4.340   7.086  2.0371  0.0339  0.3697
22542SOL     OW68203   0.388   2.342   5.895  0.7276 -0.2393 -0.7941
22542SOL    HW168204   0.295   2.321   5.885  0.9450 -0.8337 -1.7356
22542SOL    HW268205   0.430   2.300   5.820  1.9713 -1.3465  0.4708
22543SOL     OW68206   8.671   4.752   7.649  0.1464 -0.1110  0.4208
22543SOL    HW168207   8.628   4.687   7.704 -0.4731  1.5521  1.9932
22543SOL    HW268208   8.599   4.807   7.617  0.7189  0.2023 -0.3458
22544SOL     OW68209   4.523   0.718   9.040 -0.3949 -0.4923 -0.0423
22544SOL    HW168210   4.435   0.755   9.033 -0.3036 -0.1925  0.3790
22544SOL    HW268211   4.577   0.773   8.983 -0.4697 -0.6469 -0.2632
22545SOL     OW68212   2.818   5.347   7.290  0.0732  0.0683 -0.2358
22545SOL    HW168213   2.738   5.304   7.260 -0.4786  0.8727  0.0556
22545SOL    HW268214   2.887   5.283   7.273 -0.8896 -1.5058  1.4659
22546SOL     OW68215   1.196   3.402   6.483  0.6978 -0.2859 -0.7481
22546SOL    HW168216   1.164   3.488   6.510  0.2087 -0.5748 -0.3961
22546SOL    HW268217   1.135   3.375   6.414 -0.7408 -1.4552  0.8837
22547SOL     OW68218   8.671   3.771   3.841  0.3183 -0.1950  0.0117
22547SOL    HW168219   8.656   3.690   3.792  0.3458  0.1173 -0.5244
22547SOL    HW268220   8.765   3.774   3.854  0.4647  0.3935 -1.1083
22548SOL     OW68221   3.435   6.610   8.415 -0.1821 -0.2491 -0.3966
22548SOL    HW168222   3.380   6.532   8.411 -2.6372  1.4000 -1.2160
22548SOL    HW268223   3.408   6.661   8.339  1.9740  1.0450 -0.3681
22549SOL     OW68224   5.168   6.211   5.460 -0.5433  0.1100  0.4664
22549SOL    HW168225   5.213   6.190   5.378 -0.2160  0.6190  0.5131
22549SOL    HW268226   5.117   6.132   5.480  0.3372 -0.4915  0.4207
22550SOL     OW68227   0.732   1.756   4.214 -0.2273 -0.2655 -0.2158
22550SOL    HW168228   0.723   1.804   4.131  0.0917 -0.1087 -0.1615
22550SOL    HW268229   0.810   1.702   4.202  0.4930  0.6116  0.3959
22551SOL     OW68230   8.138   4.870   9.818 -0.2093  0.6346 -0.2872
22551SOL    HW168231   8.194   4.942   9.849 -0.3384  0.5116  0.2478
22551SOL    HW268232   8.117   4.821   9.898  0.5968 -0.5123 -0.7613
22552SOL     OW68233   9.647   3.311   3.869  0.5776  0.6682 -0.1169
22552SOL    HW168234   9.684   3.399   3.878  0.1183  0.7655  0.9878
22552SOL    HW268235   9.644   3.277   3.958 -1.5701  0.4868 -0.2130
22553SOL     OW68236   7.715   6.108   6.293  0.4411 -0.3595 -0.3194
22553SOL    HW168237   7.656   6.168   6.248 -0.6013 -0.6274  0.6645
22553SOL    HW268238   7.786   6.164   6.325  0.3580  0.0752 -0.8844
22554SOL     OW68239   9.040   3.803   8.219  0.6442  0.4472 -0.2743
22554SOL    HW168240   9.074   3.797   8.308 -0.6233  1.5347  0.3076
22554SOL    HW268241   8.979   3.730   8.212 -0.2597  1.1374  0.2243
22555SOL     OW68242   3.294   1.860   8.596 -0.1023  0.5374 -0.0052
22555SOL    HW168243   3.262   1.851   8.686 -1.7663  2.1812 -0.3851
22555SOL    HW268244   3.216   1.853   8.541  0.8133  0.0764 -1.3089
22556SOL     OW68245   8.705   2.499   8.442 -0.9140 -0.4487  0.1957
22556SOL    HW168246   8.639   2.491   8.511 -0.8673 -0.5019  0.2343
22556SOL    HW268247   8.675   2.574   8.389 -0.2523  0.4295  1.0318
22557SOL     OW68248   0.508   8.587   1.625  0.0785  0.1622 -0.1573
22557SOL    HW168249   0.577   8.652   1.639  0.5974 -0.8885  2.8465
22557SOL    HW268250   0.428   8.639   1.618  0.7919  1.2483 -0.5356
22558SOL     OW68251   4.121   7.925   0.163  0.3168  0.5194 -0.6955
22558SOL    HW168252   4.095   7.868   0.091 -0.5219  0.9645 -0.7661
22558SOL    HW268253   4.043   7.978   0.181  0.9849  1.4574 -0.4561
22559SOL     OW68254   1.983   9.412   1.351  0.0050 -0.2956 -0.5463
22559SOL    HW168255   1.983   9.318   1.333  0.2047 -0.3479 -0.2827
22559SOL    HW268256   2.047   9.448   1.290  1.3506 -0.5910  0.6092
22560SOL     OW68257   5.371   2.574   7.109 -0.7054 -0.3465  0.0557
22560SOL    HW168258   5.382   2.668   7.099 -1.4651 -0.1811  0.6590
22560SOL    HW268259   5.337   2.563   7.198 -3.7813 -0.8971 -1.0750
22561SOL     OW68260   0.276   1.689   8.328  0.2983 -0.4957  0.2577
22561SOL    HW168261   0.190   1.719   8.299  1.1491  0.3449 -1.5980
22561SOL    HW268262   0.323   1.768   8.352  0.2537 -1.0376  2.2880
22562SOL     OW68263   6.655   0.766   8.648 -0.6885 -0.1246  0.7898
22562SOL    HW168264   6.635   0.859   8.639  0.3086 -0.0004 -0.4809
22562SOL    HW268265   6.723   0.762   8.715  0.8037  0.3380 -0.6216
22563SOL     OW68266   4.603   6.356   4.733  0.7950 -0.0484 -0.0754
22563SOL    HW168267   4.686   6.394   4.761  1.1031  0.1661 -1.2337
22563SOL    HW268268   4.536   6.405   4.782  1.3333 -0.0412  0.6583
22564SOL     OW68269   6.843   4.545   0.024  0.1808 -0.7213 -0.4563
22564SOL    HW168270   6.927   4.508  -0.005  0.3014 -1.3138  0.5788
22564SOL    HW268271   6.864   4.589   0.107 -0.2032  0.6587 -1.0606
22565SOL     OW68272   6.019   2.382   6.692 -0.2675  0.3362 -0.2932
22565SOL    HW168273   6.010   2.414   6.602  0.4632  1.8094  0.1143
22565SOL    HW268274   6.113   2.385   6.709 -0.3612 -0.2936  0.4023
22566SOL     OW68275   7.044   7.590   1.473 -0.4930 -0.0095  0.2163
22566SOL    HW168276   7.121   7.622   1.425 -1.1962  0.6791 -0.4904
22566SOL    HW268277   6.980   7.661   1.465 -1.0999 -0.4519  1.0456
22567SOL     OW68278   0.628   4.835   1.671  0.0273 -0.3600  0.1799
22567SOL    HW168279   0.613   4.757   1.724 -0.7569  0.9460  1.9725
22567SOL    HW268280   0.714   4.821   1.632  0.7449 -1.2947  1.9827
22568SOL     OW68281   4.536   9.100   9.756  0.0535 -0.0584  0.6032
22568SOL    HW168282   4.516   9.013   9.721  0.1759 -1.0509  2.8383
22568SOL    HW268283   4.628   9.095   9.782 -0.0536  0.5925  1.1325
22569SOL     OW68284   2.563   1.357   8.565 -0.4348 -0.3055 -0.3874
22569SOL    HW168285   2.579   1.426   8.500  0.7486 -0.1303  0.0619
22569SOL    HW268286   2.496   1.302   8.525  0.4316 -0.3439 -1.8927
22570SOL     OW68287   6.110   6.282   2.895  0.1463 -0.0240  0.0602
22570SOL    HW168288   6.122   6.353   2.958  2.0805 -0.5872  0.3915
22570SOL    HW268289   6.145   6.316   2.812 -1.0878  0.2143 -0.3824
22571SOL     OW68290   8.163   7.093   0.256  0.1738  0.5165 -0.1749
22571SOL    HW168291   8.227   7.149   0.211  1.7380  0.1146  1.4754
22571SOL    HW268292   8.082   7.144   0.253  0.7049  1.3566 -1.6760
22572SOL     OW68293   0.922   8.352   6.739  0.4883 -0.1342  0.3700
22572SOL    HW168294   0.948   8.265   6.709  0.5794 -0.7661  2.1332
22572SOL    HW268295   0.971   8.412   6.684  1.1317 -1.2206 -0.2819
22573SOL     OW68296   9.030   2.827   8.666  0.0004 -0.8701  0.2588
22573SOL    HW168297   8.990   2.798   8.748 -0.2018 -0.3591  0.3423
22573SOL    HW268298   9.124   2.830   8.686 -0.1543  0.4352  0.8462
22574SOL     OW68299   7.271   0.335   8.983  0.7800 -0.1699  0.0494
22574SOL    HW168300   7.233   0.333   9.071 -0.0106 -4.2354 -0.1675
22574SOL    HW268301   7.198   0.359   8.926  1.3118  2.5529  0.3869
22575SOL     OW68302   9.204   9.906   3.998 -0.1290  0.4638 -0.4050
22575SOL    HW168303   9.223   9.812   3.997 -0.8719  0.2805  0.9812
22575SOL    HW268304   9.121   9.913   3.949  0.2593  0.4972 -1.0761
22576SOL     OW68305   8.024   0.272   8.732 -0.1826 -0.3518 -0.0150
22576SOL    HW168306   8.010   0.366   8.715  0.3017 -0.4974 -1.3380
22576SOL    HW268307   8.115   0.257   8.708 -0.0119 -1.0136  0.9871
22577SOL     OW68308   4.061   7.275   5.188  0.3407  0.0362 -0.1708
22577SOL    HW168309   3.985   7.224   5.162 -1.1241  1.9536  0.1525
22577SOL    HW268310   4.050   7.289   5.282  1.1838  0.2034 -0.0886
22578SOL     OW68311   3.766   8.469   9.033 -0.1517  0.4821 -0.1885
22578SOL    HW168312   3.695   8.533   9.041 -0.5399 -0.0609  0.8811
22578SOL    HW268313   3.814   8.497   8.955 -2.4175  0.0132 -1.8874
22579SOL     OW68314   9.940   3.240   8.754  0.3283  0.1131  0.6741
22579SOL    HW168315   9.940   3.162   8.699  1.4422  0.1689  0.5685
22579SOL    HW268316  10.020   3.287   8.729 -0.0308  0.9970  1.1416
22580SOL     OW68317   6.592   2.318   6.447  0.4702 -0.3268 -0.0537
22580SOL    HW168318   6.590   2.239   6.394  0.9653 -0.4448  0.1031
22580SOL    HW268319   6.683   2.326   6.476  0.0379 -0.8133  1.5924
22581SOL     OW68320   0.396   7.112   3.951 -0.3460  0.5428  0.4118
22581SOL    HW168321   0.345   7.049   3.902  0.3577  0.7677 -0.6490
22581SOL    HW268322   0.470   7.134   3.893  0.3251  1.0705  1.4320
22582SOL     OW68323   2.175   1.092   2.772 -0.1996  0.3008  0.1421
22582SOL    HW168324   2.192   1.047   2.855 -1.9037 -0.7708 -0.0210
22582SOL    HW268325   2.189   1.184   2.791  1.6161 -0.1180  0.9953
22583SOL     OW68326   3.356   7.326   5.976  0.2872 -0.2232  0.8644
22583SOL    HW168327   3.313   7.307   6.060 -1.0599 -1.4459 -0.0403
22583SOL    HW268328   3.436   7.273   5.978  0.6429  0.3340  1.6733
22584SOL     OW68329   0.009   8.848   9.020  0.2459  0.0647 -0.0407
22584SOL    HW168330  -0.069   8.800   9.046  0.8722 -0.7186  0.4435
22584SOL    HW268331   0.077   8.820   9.083  1.3497 -0.5746 -1.4581
22585SOL     OW68332   8.008   0.972   2.403  0.6156  0.0871 -0.0376
22585SOL    HW168333   8.054   1.042   2.450  0.5634  0.1989 -0.1542
22585SOL    HW268334   7.935   1.016   2.359  1.6793  0.2914 -1.6728
22586SOL     OW68335   9.403   8.764   6.871  0.1468  0.3398  0.0608
22586SOL    HW168336   9.371   8.757   6.781 -1.8799  1.3666  0.6497
22586SOL    HW268337   9.332   8.807   6.919  2.3698  2.7648  1.4892
22587SOL     OW68338   2.365   3.706   6.296 -0.0949 -0.1999  1.0062
22587SOL    HW168339   2.290   3.759   6.324  0.0990 -0.4639  2.0827
22587SOL    HW268340   2.403   3.674   6.378  0.4569 -1.0909  0.4142
22588SOL     OW68341   8.190   8.758   5.993 -0.0701 -0.2652 -0.1074
22588SOL    HW168342   8.223   8.801   5.914 -1.3362 -1.6435 -1.4674
22588SOL    HW268343   8.113   8.809   6.018  0.9052  0.7761  0.8902
22589SOL     OW68344   7.066   9.410   0.660 -0.1995  0.4028  0.2266
22589SOL    HW168345   7.013   9.432   0.583 -1.1412 -0.4314  0.6192
22589SOL    HW268346   7.133   9.351   0.627 -0.6513 -0.0190  0.0599
22590SOL     OW68347   7.952   2.915   1.957 -0.4513  0.3014 -0.8583
22590SOL    HW168348   7.924   2.992   2.007 -1.2600  0.4565 -1.5414
22590SOL    HW268349   7.898   2.916   1.878 -0.6937 -1.1311 -0.7433
22591SOL     OW68350   4.701   9.206   5.193  0.5008  0.0449  0.4639
22591SOL    HW168351   4.749   9.189   5.274  0.5526 -1.8917  0.0645
22591SOL    HW268352   4.623   9.255   5.221  1.6571  1.4515  1.3632
22592SOL     OW68353   0.518   3.056   1.090  0.0441  0.1080 -0.0337
22592SOL    HW168354   0.462   3.006   1.150 -0.8934  1.3254  0.1439
22592SOL    HW268355   0.541   2.993   1.021 -0.9797 -0.6167  0.2554
22593SOL     OW68356   1.918   4.420   2.616  0.2908 -0.4354 -0.1797
22593SOL    HW168357   1.865   4.489   2.575 -2.4846 -0.7043  2.5189
22593SOL    HW268358   1.968   4.381   2.544 -1.7147  1.1938 -2.6298
22594SOL     OW68359   5.894   1.440   7.029 -0.0800  0.0051  0.2814
22594SOL    HW168360   5.839   1.492   7.087 -1.3260 -1.0401  0.0867
22594SOL    HW268361   5.839   1.422   6.953  0.8901 -0.1978 -0.3879
22595SOL     OW68362   7.321   7.397   9.154  0.2801  0.1800  0.1956
22595SOL    HW168363   7.398   7.439   9.115  0.5247 -0.1428  0.3185
22595SOL    HW268364   7.259   7.468   9.169  0.2897  0.3495 -0.5225
22596SOL     OW68365   5.309   5.795   5.160 -0.2932 -0.7683  0.5232
22596SOL    HW168366   5.308   5.745   5.079  0.3452  1.0061 -0.6373
22596SOL    HW268367   5.240   5.860   5.150 -0.5550 -0.8572  1.6316
22597SOL     OW68368   7.921   9.847   8.391 -0.3675 -0.3343 -0.1004
22597SOL    HW168369   8.010   9.847   8.425 -0.1453 -0.3932 -0.6780
22597SOL    HW268370   7.885   9.762   8.417  0.7749 -1.6715 -2.4964
22598SOL     OW68371   3.853   7.816   3.215 -0.2049 -0.1229  0.1895
22598SOL    HW168372   3.790   7.745   3.201  0.8949 -0.8695 -1.1052
22598SOL    HW268373   3.935   7.785   3.177  0.4527  1.6409  0.0517
22599SOL     OW68374   2.217   2.446   0.972  0.0997 -0.8003  0.0505
22599SOL    HW168375   2.301   2.491   0.972 -0.8554  1.0896  0.4831
22599SOL    HW268376   2.208   2.414   1.062 -0.2259  0.2326  0.4074
22600SOL     OW68377   7.341   2.511   5.002  0.1794  0.1681 -0.0708
22600SOL    HW168378   7.357   2.567   4.926 -1.3940  0.6837 -0.0626
22600SOL    HW268379   7.303   2.570   5.067  0.0972 -0.5835  0.5727
22601SOL     OW68380   8.138   7.076   2.480  0.4271 -0.1736  0.1442
22601SOL    HW168381   8.231   7.056   2.485  0.2416 -1.0812  0.0802
22601SOL    HW268382   8.122   7.097   2.388  0.6464  0.4188  0.2363
22602SOL     OW68383   6.010   3.164   3.198 -0.2513 -0.0574  0.2376
22602SOL    HW168384   5.951   3.117   3.140 -0.8706  0.3707  0.5086
22602SOL    HW268385   5.974   3.151   3.286  1.5022 -1.9649  0.7737
22603SOL     OW68386   9.828   2.050   8.631  0.2919  0.1141 -0.2077
22603SOL    HW168387   9.806   2.119   8.694 -0.4091  0.1364 -0.4695
22603SOL    HW268388   9.766   1.980   8.649  1.4080 -0.7238  0.4784
22604SOL     OW68389   8.151   3.912   1.596  0.2131  0.6374  0.8937
22604SOL    HW168390   8.164   3.817   1.601  0.0548  0.6602  1.8956
22604SOL    HW268391   8.168   3.933   1.504  0.2684 -0.3562  0.6590
22605SOL     OW68392   2.265   4.605   8.898  0.1684  0.0019 -0.1248
22605SOL    HW168393   2.274   4.697   8.873  1.3639 -0.1846 -0.4160
22605SOL    HW268394   2.352   4.568   8.885 -0.2547 -1.1279  0.1889
22606SOL     OW68395   1.294   5.479   8.244  0.1209  0.1443  0.5927
22606SOL    HW168396   1.236   5.555   8.236 -0.1267 -0.0084  0.9195
22606SOL    HW268397   1.252   5.411   8.191 -0.5570 -0.2942  1.6652
22607SOL     OW68398   2.130   7.053   9.039 -0.1046 -0.1552  1.0362
22607SOL    HW168399   2.165   6.974   9.082  1.1684 -0.2294 -0.0731
22607SOL    HW268400   2.036   7.038   9.034  0.1318 -1.6828  0.7330
22608SOL     OW68401   4.628   2.018   9.308  0.0895  0.3875 -0.0185
22608SOL    HW168402   4.575   2.001   9.230  0.5138  0.8343 -0.4144
22608SOL    HW268403   4.716   1.989   9.284  0.9273  3.1925 -0.8387
22609SOL     OW68404   3.460   5.105   7.066 -0.6592  0.1408 -0.1601
22609SOL    HW168405   3.509   5.060   7.134 -0.3060 -0.8617 -1.0457
22609SOL    HW268406   3.499   5.192   7.062  0.5878 -0.4019 -0.3470
22610SOL     OW68407   6.510   6.295   7.267 -0.1725 -0.1277  0.3749
22610SOL    HW168408   6.603   6.312   7.254  0.3743 -2.9363 -0.0622
22610SOL    HW268409   6.507   6.226   7.333 -2.0951  1.2965  1.8870
22611SOL     OW68410   5.941   9.618   5.110 -0.3088 -0.1128 -0.1259
22611SOL    HW168411   6.028   9.607   5.073  0.3853 -0.4463  1.5559
22611SOL    HW268412   5.933   9.550   5.176 -1.2175  0.9044  0.8680
22612SOL     OW68413   1.426   5.607   6.169  0.2257 -0.1376  0.3331
22612SOL    HW168414   1.440   5.637   6.259  0.8452  1.6721 -0.3318
22612SOL    HW268415   1.359   5.665   6.134 -0.2540 -1.0390 -0.2972
22613SOL     OW68416   1.129   7.858   8.202  0.9017 -0.0422  0.5288
22613SOL    HW168417   1.197   7.826   8.262  1.5922 -0.2576 -0.3455
22613SOL    HW268418   1.152   7.950   8.187  1.5357 -0.3462 -0.4587
22614SOL     OW68419   9.656   2.790   7.791  0.3293  0.5520  0.0375
22614SOL    HW168420   9.654   2.881   7.762  0.8427 -0.1836 -2.5330
22614SOL    HW268421   9.749   2.766   7.788 -0.0417 -0.9274 -2.5468
22615SOL     OW68422   7.259   1.747   5.038  0.1397  0.3741  0.2189
22615SOL    HW168423   7.271   1.681   4.970  0.6417  0.2071  0.4679
22615SOL    HW268424   7.230   1.697   5.115  1.3037  0.3238  0.6492
22616SOL     OW68425   0.532   1.707   0.138 -0.5648  0.6883  0.1610
22616SOL    HW168426   0.513   1.613   0.142  1.9966  0.0432 -0.6163
22616SOL    HW268427   0.540   1.734   0.229 -2.2091  0.3863  0.4126
22617SOL     OW68428   8.442   4.035   9.410 -0.1958  0.3736  0.5622
22617SOL    HW168429   8.434   4.119   9.367  0.2072 -0.9177 -2.2420
22617SOL    HW268430   8.355   4.018   9.446 -0.5392  1.5358  0.3064
22618SOL     OW68431   2.787   6.593   7.522  0.2548  0.6813 -0.1707
22618SOL    HW168432   2.855   6.535   7.490 -1.8100 -0.6871 -2.3539
22618SOL    HW268433   2.756   6.552   7.603  2.2369  1.5885  1.1366
22619SOL     OW68434   3.319   9.809   8.801  0.0878  0.4879 -0.2811
22619SOL    HW168435   3.288   9.817   8.891  0.0499  1.3984 -0.3590
22619SOL    HW268436   3.356   9.896   8.781 -2.8389  1.4555 -2.2259
22620SOL     OW68437   7.762   0.475   1.774 -0.0823  0.2345  0.3617
22620SOL    HW168438   7.769   0.384   1.804 -0.4699 -1.5073 -4.0516
22620SOL    HW268439   7.677   0.478   1.730  1.4665  1.4712 -2.8639
22621SOL     OW68440   9.654   3.458   2.992  0.4994  0.2871 -0.1327
22621SOL    HW168441   9.711   3.391   2.953 -2.9154 -1.3496 -2.8291
22621SOL    HW268442   9.682   3.540   2.950  3.1597  0.3009  1.4327
22622SOL     OW68443   6.533   5.720   6.252  0.3954  0.1910  0.0812
22622SOL    HW168444   6.490   5.653   6.304 -0.5257 -0.1628 -1.0821
22622SOL    HW268445   6.587   5.769   6.314  2.5007 -2.7025  0.7295
22623SOL     OW68446   0.789   9.913   4.261  0.3103  0.1875 -0.0106
22623SOL    HW168447   0.858   9.947   4.318  0.3571  0.3486 -0.1627
22623SOL    HW268448   0.781   9.978   4.192  0.0537  0.1344 -0.0317
22624SOL     OW68449   9.338   7.626   5.981 -0.0993 -0.4814  0.0526
22624SOL    HW168450   9.412   7.638   5.921 -1.9775 -1.0732 -2.5612
22624SOL    HW268451   9.296   7.712   5.983  1.0749  0.1036  2.2551
22625SOL     OW68452   3.504   2.090   9.361  0.2010  0.1247 -0.1034
22625SOL    HW168453   3.435   2.100   9.296  0.1433 -1.4834 -0.3163
22625SOL    HW268454   3.461   2.113   9.444 -0.1820  0.5678 -0.4197
22626SOL     OW68455   5.420   0.543   8.119  0.0882 -0.3427 -0.0727
22626SOL    HW168456   5.424   0.450   8.143  0.4997 -0.5332 -0.8728
22626SOL    HW268457   5.466   0.587   8.190  2.1027 -0.9955 -0.9055
22627SOL     OW68458   1.275   8.516   6.766 -0.7654  0.4925  0.2330
22627SOL    HW168459   1.187   8.530   6.799 -0.7969 -0.7269  0.7164
22627SOL    HW268460   1.316   8.458   6.830 -0.2760 -0.5622 -0.9984
22628SOL     OW68461   9.323   1.453   4.994 -0.1261  0.2057  0.1138
22628SOL    HW168462   9.405   1.455   4.945 -0.4317 -0.7398 -0.4825
22628SOL    HW268463   9.275   1.379   4.956 -0.4486 -0.4612  1.7528
22629SOL     OW68464   4.991   0.196   3.890  0.1985 -0.3395  0.2175
22629SOL    HW168465   4.983   0.101   3.901  1.1698 -0.5314 -0.6214
22629SOL    HW268466   4.958   0.213   3.802 -2.3700  0.4678  1.2470
22630SOL     OW68467   2.193   9.415   4.536  0.7392  0.6075 -0.0168
22630SOL    HW168468   2.148   9.472   4.598  0.0496  0.6714 -0.5589
22630SOL    HW268469   2.280   9.402   4.574  0.9218  2.0214  0.1198
22631SOL     OW68470   7.997   0.114   0.539 -0.3650  0.1887  0.6259
22631SOL    HW168471   7.931   0.049   0.561 -1.0435  0.4113 -0.6313
22631SOL    HW268472   8.044   0.076   0.465  0.2499  0.4749  0.8634
22632SOL     OW68473   0.060   1.787   1.717  0.1125 -0.0145 -0.0437
22632SOL    HW168474   0.098   1.874   1.707  2.0031 -0.9562 -1.8838
22632SOL    HW268475  -0.035   1.801   1.713  0.3967  1.8382 -1.5040
22633SOL     OW68476   7.251   4.720   3.062 -0.0464  0.4336  0.0946
22633SOL    HW168477   7.208   4.663   3.126 -2.8037  1.5359 -0.6269
22633SOL    HW268478   7.211   4.696   2.979  2.0609  0.3688 -0.9507
22634SOL     OW68479   7.225   3.812   4.552 -0.4928  0.4871 -0.5020
22634SOL    HW168480   7.152   3.771   4.598 -0.7679  0.4325 -0.9820
22634SOL    HW268481   7.232   3.899   4.590 -0.4844  0.3172 -0.1070
22635SOL     OW68482   8.996   8.396   5.950 -0.7078  0.3432  0.2426
22635SOL    HW168483   8.968   8.394   5.859 -1.4995  0.3401  0.4794
22635SOL    HW268484   9.075   8.450   5.950 -1.3929  1.3643 -0.2548
22636SOL     OW68485   2.404   7.534   4.046  0.2119  0.1799 -0.3641
22636SOL    HW168486   2.445   7.460   4.002  0.5086 -0.0652  0.3085
22636SOL    HW268487   2.472   7.568   4.104 -0.1689  0.4974 -0.0998
22637SOL     OW68488   1.656   1.289   4.490 -0.3185 -0.1146 -0.1217
22637SOL    HW168489   1.648   1.197   4.466  1.4056 -0.5134  0.6765
22637SOL    HW268490   1.566   1.320   4.496 -0.9106 -1.4615 -1.4227
22638SOL     OW68491   4.062   8.816   2.478 -0.1354  0.1990  0.6016
22638SOL    HW168492   4.112   8.742   2.446  1.3371  0.8695  1.2766
22638SOL    HW268493   3.974   8.802   2.443  0.9852  0.1034 -2.4579
22639SOL     OW68494   8.784   0.424   2.893 -0.2357  0.7077 -0.0083
22639SOL    HW168495   8.833   0.480   2.834  0.1117 -0.8826 -1.2989
22639SOL    HW268496   8.698   0.414   2.852 -0.0774 -0.2077 -0.1366
22640SOL     OW68497   5.164   8.874   3.074 -0.2982  0.3121 -0.0257
22640SOL    HW168498   5.084   8.822   3.072 -0.3500  0.4189 -1.2662
22640SOL    HW268499   5.168   8.916   2.988  1.1547  0.2090 -0.0282
22641SOL     OW68500   0.638   3.416   4.378  0.2547  0.0295  0.1365
22641SOL    HW168501   0.618   3.472   4.453 -0.0081 -0.6218  0.5559
22641SOL    HW268502   0.572   3.347   4.381 -0.4065  0.5641 -1.2916
22642SOL     OW68503   4.806   1.091   8.897  0.2920 -0.5981 -0.2580
22642SOL    HW168504   4.793   1.183   8.871 -3.1725 -0.9638 -0.1707
22642SOL    HW268505   4.868   1.096   8.971  1.0241  1.5252 -0.9380
22643SOL     OW68506   5.792   6.926   7.630  0.1495  0.0070 -0.8426
22643SOL    HW168507   5.864   6.892   7.683 -0.4293 -0.2949 -0.2460
22643SOL    HW268508   5.814   7.018   7.616 -0.9782  0.8353  2.1801
22644SOL     OW68509   5.293   6.720   7.684 -0.6350 -0.3533  0.2718
22644SOL    HW168510   5.388   6.731   7.685 -0.3664 -1.8326 -1.8399
22644SOL    HW268511   5.261   6.793   7.631 -0.0229 -2.5213 -3.5262
22645SOL     OW68512   4.691   9.783   9.527 -0.1887 -0.0578 -0.0996
22645SOL    HW168513   4.734   9.868   9.535  2.2837 -1.1198 -1.1248
22645SOL    HW268514   4.717   9.751   9.440 -1.2981 -1.7607  0.1475
22646SOL     OW68515   8.506   3.219   7.005  0.0063 -0.7792 -0.6426
22646SOL    HW168516   8.444   3.274   7.054  0.8581 -1.4443  1.2500
22646SOL    HW268517   8.571   3.280   6.971 -0.2766 -0.3745 -0.4622
22647SOL     OW68518   6.382   1.713   1.274 -0.1281 -0.4004  0.2276
22647SOL    HW168519   6.400   1.788   1.330  0.6708 -0.8466  0.5890
22647SOL    HW268520   6.375   1.749   1.185 -1.1946  0.2838  0.5690
22648SOL     OW68521   2.518   2.778   3.627  0.4447  0.0226 -0.1597
22648SOL    HW168522   2.480   2.779   3.715 -1.8693  0.2498 -1.1070
22648SOL    HW268523   2.521   2.870   3.601  2.4979  0.1072  0.1725
22649SOL     OW68524   5.316   5.179   7.286 -0.0726 -0.4173  0.4043
22649SOL    HW168525   5.303   5.271   7.262 -1.1597  0.1164  2.7158
22649SOL    HW268526   5.273   5.130   7.216 -0.7278  0.8772 -0.1475
22650SOL     OW68527   7.129   6.403   1.853  0.4261  0.0282  0.4965
22650SOL    HW168528   7.210   6.436   1.891  0.7696 -1.4727  1.1742
22650SOL    HW268529   7.063   6.468   1.877  0.9353 -0.0852  2.3762
22651SOL     OW68530   8.450   6.035   6.033  0.5116 -0.0086  0.2730
22651SOL    HW168531   8.489   5.950   6.055  1.0217  0.3110  0.6226
22651SOL    HW268532   8.508   6.071   5.966  0.7511  0.4135  0.7020
22652SOL     OW68533   3.112   0.059   3.873 -0.0816  0.0597 -0.8924
22652SOL    HW168534   3.040   0.115   3.843 -1.0244  0.2361  1.5013
22652SOL    HW268535   3.190   0.113   3.860 -0.7582  1.1727 -0.5591
22653SOL     OW68536   3.170   9.792   7.509 -0.0042  0.2084  0.1353
22653SOL    HW168537   3.110   9.810   7.437 -0.5128 -0.6797  0.3145
22653SOL    HW268538   3.134   9.713   7.550  0.5063  0.4697  1.1066
22654SOL     OW68539   3.207   8.199   5.815 -0.0922 -0.7927 -0.4235
22654SOL    HW168540   3.209   8.115   5.770 -1.7802 -0.1996 -1.6688
22654SOL    HW268541   3.289   8.242   5.790  1.1909 -2.3491  0.8968
22655SOL     OW68542   6.159   5.142   0.643 -0.0730  0.1385  0.0226
22655SOL    HW168543   6.108   5.082   0.589  1.9628 -1.6737 -0.0526
22655SOL    HW268544   6.110   5.149   0.725 -1.4735  0.1834 -0.7975
22656SOL     OW68545   1.469   1.054   1.618 -0.4842  0.2130 -0.2949
22656SOL    HW168546   1.496   1.138   1.654 -0.9275  0.3574 -0.2990
22656SOL    HW268547   1.489   1.060   1.524 -0.4889  0.3022 -0.2900
22657SOL     OW68548   5.020   3.811   5.762 -0.8284  0.4878  0.5666
22657SOL    HW168549   5.021   3.716   5.752 -0.9652  0.4217  1.1533
22657SOL    HW268550   5.022   3.826   5.857  2.8631  1.1085  0.5386
22658SOL     OW68551   0.226   7.937   6.829  0.5247 -0.0657  0.2175
22658SOL    HW168552   0.244   7.850   6.864  1.8272  1.3063  3.3448
22658SOL    HW268553   0.276   7.996   6.885 -1.2487  2.8292 -1.0242
22659SOL     OW68554   1.769   3.158   6.420  0.3541  0.4764 -0.2893
22659SOL    HW168555   1.813   3.223   6.475 -0.0287 -0.3749  1.0654
22659SOL    HW268556   1.732   3.209   6.348  1.4608  1.5279 -0.1556
22660SOL     OW68557   1.927   5.281   3.753 -0.1514 -0.5489 -0.0555
22660SOL    HW168558   1.983   5.245   3.684  0.6370 -0.7751  0.6923
22660SOL    HW268559   1.858   5.216   3.764 -0.1365 -0.6354 -0.4468
22661SOL     OW68560   9.588   0.104   3.252 -0.2888  0.9639 -0.3389
22661SOL    HW168561   9.661   0.104   3.314 -1.0380  0.5876  0.5734
22661SOL    HW268562   9.612   0.038   3.187  0.1193  0.7258  0.0441
22662SOL     OW68563   8.251   8.109   7.156  0.0753  0.9786 -0.1386
22662SOL    HW168564   8.289   8.185   7.200  2.2328 -1.3689  2.3901
22662SOL    HW268565   8.188   8.074   7.219  1.6761 -1.2505  0.3444
22663SOL     OW68566   9.501   9.933   1.532  0.6517  0.2292 -0.0954
22663SOL    HW168567   9.488  10.003   1.468 -1.4298  1.2209  1.3121
22663SOL    HW268568   9.529   9.978   1.612  0.7574 -0.7041  0.4116
22664SOL     OW68569   0.128   4.218   8.313  0.0816  0.2032 -0.0058
22664SOL    HW168570   0.083   4.177   8.387  0.5092  1.2194  0.8442
22664SOL    HW268571   0.144   4.147   8.252 -3.4678 -0.0861 -0.7849
22665SOL     OW68572   0.496   9.434   8.027  0.0874  0.0123  0.2022
22665SOL    HW168573   0.571   9.421   8.085 -0.7711 -0.8940  1.1556
22665SOL    HW268574   0.484   9.528   8.023  0.4998  0.1071  1.0617
22666SOL     OW68575   2.691   6.645   4.529  0.0068 -0.0994  0.0347
22666SOL    HW168576   2.624   6.584   4.560  0.9179 -0.9926  0.3198
22666SOL    HW268577   2.770   6.619   4.578  0.6734  0.6010 -0.6564
22667SOL     OW68578   4.054   0.574   3.449  0.1195  0.3829  0.1421
22667SOL    HW168579   4.004   0.644   3.491 -2.7010 -0.6455 -1.2766
22667SOL    HW268580   4.028   0.495   3.496  2.2660  0.0429  0.8644
22668SOL     OW68581   4.473   9.419   2.471  0.6548  0.1591  0.6562
22668SOL    HW168582   4.478   9.326   2.446  0.6698  0.4198 -0.3635
22668SOL    HW268583   4.403   9.455   2.416  0.6612  0.7640  1.0330
22669SOL     OW68584   2.798   8.024   5.591 -0.0757  0.1844 -0.3239
22669SOL    HW168585   2.793   8.102   5.537 -0.8905 -0.0959 -0.6556
22669SOL    HW268586   2.824   8.056   5.678 -0.3360  0.8050 -0.4750
22670SOL     OW68587   8.156   2.178   9.561  0.1393 -0.9985 -0.4093
22670SOL    HW168588   8.083   2.121   9.537  0.6255 -0.2433 -4.2842
22670SOL    HW268589   8.130   2.265   9.533  1.5640 -0.2686  0.4078
22671SOL     OW68590   6.338   2.155   8.593  0.1827  0.3967  0.0737
22671SOL    HW168591   6.393   2.123   8.664  0.5990  1.4913  0.2674
22671SOL    HW268592   6.399   2.167   8.519 -0.5058 -2.3221 -1.0536
22672SOL     OW68593   4.351   8.912   7.215  0.3397  0.2300  0.0710
22672SOL    HW168594   4.390   8.843   7.268 -1.4908 -0.3015  0.7889
22672SOL    HW268595   4.324   8.979   7.278 -1.5933 -0.2742 -0.1729
22673SOL     OW68596   8.419   9.877   6.034 -0.2164  0.1690 -0.2695
22673SOL    HW168597   8.331   9.895   6.068  0.7479  0.8222  2.0670
22673SOL    HW268598   8.411   9.891   5.940 -2.6058  0.2160 -0.1287
22674SOL     OW68599   3.339   0.941   9.861  0.4170 -0.4312 -0.1400
22674SOL    HW168600   3.296   0.924   9.777 -0.6385 -0.0439  0.3068
22674SOL    HW268601   3.296   0.881   9.922  0.2705  0.2043  0.3873
22675SOL     OW68602   7.483   7.076   0.317  0.3698 -0.4263  0.2063
22675SOL    HW168603   7.388   7.066   0.317  0.1109  1.4459 -1.2491
22675SOL    HW268604   7.501   7.139   0.386  0.2896  0.7950 -0.8463
22676SOL     OW68605   6.309   1.838   4.122 -0.7857  0.0864 -0.2938
22676SOL    HW168606   6.370   1.813   4.053  0.2061 -2.0542  1.2502
22676SOL    HW268607   6.362   1.886   4.185 -0.7994 -1.1831  0.7209
22677SOL     OW68608   3.642   5.137   8.697  0.3037  0.2836 -0.1016
22677SOL    HW168609   3.547   5.139   8.689  0.3727  0.9142 -0.9335
22677SOL    HW268610   3.668   5.056   8.653  0.0724 -0.5417  1.2473
22678SOL     OW68611   6.740   7.430   4.315 -0.2393  0.9258 -0.0945
22678SOL    HW168612   6.721   7.519   4.343 -0.5544  0.6234  0.6875
22678SOL    HW268613   6.657   7.383   4.323  0.4438 -0.0854  2.1221
22679SOL     OW68614   3.760   8.225   6.548  0.1442  0.4481 -0.1579
22679SOL    HW168615   3.770   8.300   6.489  0.1549 -0.2029 -1.0115
22679SOL    HW268616   3.749   8.150   6.489 -1.6483  0.0031  0.6689
22680SOL     OW68617   3.304   7.307   0.861  0.3334 -0.1678 -0.4364
22680SOL    HW168618   3.334   7.324   0.950  0.6204 -0.8247 -0.3988
22680SOL    HW268619   3.362   7.359   0.806  1.3808 -1.1704 -0.3429
22681SOL     OW68620   5.857   7.845   6.546 -0.2038  0.6494 -0.3859
22681SOL    HW168621   5.801   7.923   6.548 -0.2438  0.6083  1.6286
22681SOL    HW268622   5.939   7.874   6.585  0.4541  0.1587 -1.3819
22682SOL     OW68623   2.652   0.756   2.550  0.0908  0.1408 -1.5333
22682SOL    HW168624   2.728   0.704   2.524  1.6785  0.7169  1.4572
22682SOL    HW268625   2.623   0.716   2.632 -0.6453  2.0119 -0.8250
22683SOL     OW68626   6.510   9.592   4.386 -0.2783  0.4634  0.2575
22683SOL    HW168627   6.602   9.588   4.412  0.3894  1.0790 -1.8420
22683SOL    HW268628   6.480   9.502   4.389  1.0758 -0.0690 -1.2730
22684SOL     OW68629   0.404   1.092   0.779 -0.5643 -0.0695 -0.3257
22684SOL    HW168630   0.474   1.027   0.764 -0.4915  0.0633 -0.5656
22684SOL    HW268631   0.441   1.152   0.844 -0.3662  0.1295 -0.6172
22685SOL     OW68632   3.143   1.879   5.939 -0.3181 -0.1895  0.1184
22685SOL    HW168633   3.180   1.947   5.883  0.1541 -0.7133 -0.2199
22685SOL    HW268634   3.054   1.868   5.908  0.1971 -1.0808 -1.1295
22686SOL     OW68635   1.071   7.541   0.401  0.1918 -0.0539  0.3994
22686SOL    HW168636   1.115   7.458   0.421  0.1837 -0.1238  0.1185
22686SOL    HW268637   1.067   7.586   0.486  0.8538 -0.0227  0.4141
22687SOL     OW68638   2.904   8.366   8.717 -0.3916  0.1845 -0.2791
22687SOL    HW168639   2.984   8.418   8.720 -0.9445  1.0245  0.0807
22687SOL    HW268640   2.833   8.430   8.711 -0.9568 -0.5426 -3.0086
22688SOL     OW68641   2.222   7.084   0.617  1.0056 -0.2684  0.1182
22688SOL    HW168642   2.144   7.139   0.616 -0.3237 -1.9697  1.6831
22688SOL    HW268643   2.294   7.143   0.639 -0.3329  0.8718  1.6012
22689SOL     OW68644   4.814   3.476   6.540 -0.4228 -0.1745  0.1042
22689SOL    HW168645   4.852   3.523   6.466  0.2529 -2.2270 -0.9348
22689SOL    HW268646   4.720   3.491   6.532 -0.1833  1.4630  0.1698
22690SOL     OW68647   9.614   7.862   7.874 -0.2880 -0.7263 -0.2902
22690SOL    HW168648   9.704   7.875   7.846 -0.2002 -0.1968  0.2254
22690SOL    HW268649   9.619   7.790   7.937 -0.5582 -2.2809 -1.9527
22691SOL     OW68650   4.272   0.160   1.048  0.4734 -0.1877 -0.1094
22691SOL    HW168651   4.280   0.243   1.096  1.0463 -0.9451  1.1538
22691SOL    HW268652   4.218   0.105   1.105  0.6867 -0.9244 -0.6075
22692SOL     OW68653   4.631   5.421   6.446  0.2909 -0.5770  0.2364
22692SOL    HW168654   4.561   5.484   6.427  0.0958 -0.9609 -0.3784
22692SOL    HW268655   4.596   5.338   6.413  1.3278 -0.6404 -0.7450
22693SOL     OW68656   2.804   4.763   1.662 -0.0341 -0.2372  0.0447
22693SOL    HW168657   2.874   4.775   1.726 -0.0434  0.2926 -0.0347
22693SOL    HW268658   2.819   4.833   1.598 -0.3249 -0.4487 -0.2561
22694SOL     OW68659   7.702   0.703   1.903 -0.4019 -0.1273  0.0538
22694SOL    HW168660   7.654   0.658   1.833 -2.6281 -0.3829  1.6575
22694SOL    HW268661   7.793   0.674   1.892 -0.9050 -1.1090 -1.9597
22695SOL     OW68662   8.842   5.405   0.972 -0.2917 -0.4037  0.0953
22695SOL    HW168663   8.773   5.339   0.980 -0.1643 -0.3410  2.6944
22695SOL    HW268664   8.796   5.485   0.944 -1.5263 -0.1538  2.5261
22696SOL     OW68665   3.302   2.052   2.064  0.6760 -0.0778 -0.0696
22696SOL    HW168666   3.230   2.098   2.019  1.2581  0.2764 -0.6532
22696SOL    HW268667   3.313   1.971   2.014 -1.9468 -2.1242  2.3319
22697SOL     OW68668   0.349   8.254   3.940 -0.2791 -0.5487 -0.3293
22697SOL    HW168669   0.389   8.167   3.940  2.8960  0.7061  2.2746
22697SOL    HW268670   0.375   8.292   3.856  1.1327 -0.9763 -0.1043
22698SOL     OW68671   7.572   5.231   7.618 -0.4137  0.1648 -0.0245
22698SOL    HW168672   7.582   5.232   7.523 -0.7614  0.8191 -0.0663
22698SOL    HW268673   7.657   5.258   7.652 -0.5434  0.8146 -0.1922
22699SOL     OW68674   0.198   6.878   0.922  0.3368  0.5227  0.2018
22699SOL    HW168675   0.273   6.923   0.883  0.5999 -0.7411 -0.8213
22699SOL    HW268676   0.231   6.842   1.004  1.5592 -1.8798 -1.2332
22700SOL     OW68677   5.703   2.605   6.157  0.1224 -0.1024  0.5931
22700SOL    HW168678   5.779   2.649   6.119  0.4458 -2.6725 -2.0293
22700SOL    HW268679   5.628   2.645   6.113  0.2735 -0.7152 -0.2294
22701SOL     OW68680   2.040   3.407   7.825 -0.4261 -0.2386  0.1914
22701SOL    HW168681   2.125   3.364   7.818 -1.3716 -2.7723  2.6530
22701SOL    HW268682   1.990   3.374   7.750  0.4387  0.7262 -0.8642
22702SOL     OW68683   3.898   7.005   0.940  0.4518 -0.1671  0.3227
22702SOL    HW168684   3.825   7.044   0.893  0.1525  2.6549  2.7828
22702SOL    HW268685   3.970   7.003   0.877 -0.7382  0.4421 -1.1086
22703SOL     OW68686   9.707   1.598   2.918  0.4762  0.2103  0.1024
22703SOL    HW168687   9.663   1.669   2.871 -0.5284 -0.7853 -0.5303
22703SOL    HW268688   9.794   1.593   2.878 -0.5788 -1.0626 -2.2233
22704SOL     OW68689   3.069   7.306   8.348  0.1704  0.1882 -0.2847
22704SOL    HW168690   3.072   7.325   8.254 -0.7430  1.3056 -0.1050
22704SOL    HW268691   3.004   7.367   8.383  1.7693  1.0465  1.3567
22705SOL     OW68692   4.011   7.100   9.476  0.3108 -0.2642 -0.1653
22705SOL    HW168693   4.092   7.149   9.488  1.0146 -1.3384 -0.3983
22705SOL    HW268694   3.946   7.146   9.530  0.6586  1.5646 -1.2243
22706SOL     OW68695   3.600   6.017   6.556 -0.2662  0.0506  0.4187
22706SOL    HW168696   3.686   6.053   6.535  0.5763 -1.0966  1.7290
22706SOL    HW268697   3.544   6.043   6.482  1.3029  0.3872 -0.6962
22707SOL     OW68698   0.402   2.565   0.210 -0.1368 -0.2080 -0.3198
22707SOL    HW168699   0.493   2.575   0.181 -0.4452 -0.0748 -1.2757
22707SOL    HW268700   0.350   2.574   0.129 -1.1673  2.2586  0.5036
22708SOL     OW68701   3.987   2.678   4.674 -0.4534 -0.8852 -0.4330
22708SOL    HW168702   3.915   2.641   4.725 -0.9183 -0.7424 -0.9723
22708SOL    HW268703   3.972   2.772   4.676  1.2619 -0.5698  1.7467
22709SOL     OW68704   3.177   5.261   0.655 -0.1324 -0.0225 -0.6823
22709SOL    HW168705   3.138   5.297   0.736  0.1078  0.5332 -0.8118
22709SOL    HW268706   3.237   5.194   0.686 -1.1896 -0.8966 -0.4754
22710SOL     OW68707   0.214   6.426   2.018 -0.9215  0.4968  0.2990
22710SOL    HW168708   0.149   6.370   2.060 -2.0910  1.0339 -0.7224
22710SOL    HW268709   0.281   6.366   1.987  0.4769  0.1404  3.6408
22711SOL     OW68710   8.097   5.001   1.996 -0.2126 -0.2842 -0.2389
22711SOL    HW168711   8.017   4.976   1.949  0.6528 -3.7276 -0.1310
22711SOL    HW268712   8.154   5.038   1.929 -1.1937  0.5393 -0.6514
22712SOL     OW68713   3.463   3.880   7.058 -0.0407  0.2229 -0.0462
22712SOL    HW168714   3.466   3.972   7.030 -1.1329  0.5120  0.7239
22712SOL    HW268715   3.552   3.848   7.044  0.3824  1.4195 -0.2503
22713SOL     OW68716   2.024   6.449   6.110 -0.7390  0.8306 -0.8034
22713SOL    HW168717   2.081   6.504   6.057  0.3682  0.1791 -0.3173
22713SOL    HW268718   2.082   6.407   6.173 -1.9106  0.9651  0.4212
22714SOL     OW68719   4.984   5.736  -0.026  0.2086 -0.3948  0.0289
22714SOL    HW168720   4.991   5.641  -0.037  1.0938 -0.4095  0.6450
22714SOL    HW268721   5.004   5.751   0.066 -2.0792  0.2028  0.4929
22715SOL     OW68722   8.642   0.966   7.508 -0.8889 -0.0790 -0.1664
22715SOL    HW168723   8.599   0.953   7.592 -2.3517  0.9352 -0.7248
22715SOL    HW268724   8.578   1.014   7.455 -0.6322 -1.9787 -2.3697
22716SOL     OW68725   5.632   7.106   5.645  0.4351  0.4086  0.2923
22716SOL    HW168726   5.686   7.180   5.674  0.3165  1.1900 -1.3494
22716SOL    HW268727   5.695   7.037   5.625  0.8376  1.1342 -1.0999
22717SOL     OW68728   5.335   2.645   2.544 -0.1716  0.0958  0.2522
22717SOL    HW168729   5.419   2.675   2.579  0.3116 -0.5701 -0.3082
22717SOL    HW268730   5.281   2.630   2.621 -0.2248  1.7592  0.5830
22718SOL     OW68731   6.875   6.747   3.104  0.4446 -0.0807 -0.1883
22718SOL    HW168732   6.958   6.779   3.069  1.7816 -2.2499  0.7625
22718SOL    HW268733   6.888   6.748   3.199 -0.5451 -0.6213 -0.0389
22719SOL     OW68734   8.284   1.101   9.261  0.4663  0.0281  0.0995
22719SOL    HW168735   8.354   1.141   9.210  0.2141  2.6150  1.6148
22719SOL    HW268736   8.204   1.130   9.217  0.2684 -2.2133 -1.1249
22720SOL     OW68737   8.371   4.875   1.665 -0.0156  0.0144  0.1418
22720SOL    HW168738   8.434   4.918   1.608 -1.4000 -0.2596 -1.6758
22720SOL    HW268739   8.401   4.784   1.669  0.9574  0.3512  1.1829
22721SOL     OW68740   3.101   2.378   8.508 -0.0118 -0.3591  0.0276
22721SOL    HW168741   3.132   2.469   8.518 -0.6021 -0.2938  1.6642
22721SOL    HW268742   3.180   2.328   8.489  0.1249  0.6645 -2.4657
22722SOL     OW68743   9.781   3.202   2.926  0.1346 -0.5281  0.2334
22722SOL    HW168744   9.762   3.169   3.014  2.5559  0.6563  1.2864
22722SOL    HW268745   9.827   3.129   2.883 -0.3007 -0.8032  0.2246
22723SOL     OW68746   3.898   5.185   7.445 -0.3099 -0.9906  0.0281
22723SOL    HW168747   3.814   5.223   7.472  0.1158  1.2810 -1.5206
22723SOL    HW268748   3.926   5.133   7.521 -3.0263 -1.7523  0.6257
22724SOL     OW68749   4.517   6.254   2.106  0.0239  0.1069  0.6611
22724SOL    HW168750   4.495   6.330   2.052 -0.1766  0.7764  1.6450
22724SOL    HW268751   4.575   6.201   2.051 -1.6985 -0.2317 -0.9153
22725SOL     OW68752   3.541   0.356   4.551 -0.9177  0.1033  0.2819
22725SOL    HW168753   3.510   0.267   4.563  1.9282 -1.1656 -0.9052
22725SOL    HW268754   3.567   0.361   4.459  1.8805  1.0843  1.0088
22726SOL     OW68755   9.505   1.568   5.510 -0.2190 -0.2364 -0.5492
22726SOL    HW168756   9.477   1.557   5.419 -2.7612  1.1690 -0.0420
22726SOL    HW268757   9.497   1.481   5.549 -0.2388 -0.6180 -1.3912
22727SOL     OW68758   0.235   2.484   6.300  0.9584 -0.3779  0.1868
22727SOL    HW168759   0.282   2.499   6.382  1.4226 -0.9821  0.0313
22727SOL    HW268760   0.286   2.417   6.254 -0.5341 -1.7381  0.4325
22728SOL     OW68761   4.624   9.000   4.418 -0.4090 -0.3001 -0.3332
22728SOL    HW168762   4.583   8.916   4.395 -1.0559  0.0602 -0.5316
22728SOL    HW268763   4.718   8.982   4.419 -0.5911 -1.4093  1.0993
22729SOL     OW68764   9.507   6.693   3.192 -0.0613 -0.2223 -0.0083
22729SOL    HW168765   9.568   6.627   3.160  0.0848  0.3432 -0.9321
22729SOL    HW268766   9.447   6.645   3.249  0.5998 -0.9759  0.0580
22730SOL     OW68767   9.818   5.316   8.562  0.0360  0.7240 -0.1681
22730SOL    HW168768   9.873   5.275   8.495  0.7807  0.5324  0.5497
22730SOL    HW268769   9.829   5.410   8.547 -0.0519  0.6805 -0.5157
22731SOL     OW68770   1.230   2.872   7.279  0.0532  0.2188 -0.3515
22731SOL    HW168771   1.283   2.928   7.335 -1.4245  1.8435 -0.4983
22731SOL    HW268772   1.283   2.862   7.199  1.7852 -1.4056  0.9217
22732SOL     OW68773   4.895   9.959   2.252  0.3113 -0.5477 -0.2581
22732SOL    HW168774   4.986   9.932   2.245 -0.0890 -1.8908 -0.5963
22732SOL    HW268775   4.877   9.959   2.346  0.0456 -2.5319 -0.2791
22733SOL     OW68776   7.235   8.856   5.169  0.0840 -0.1974  0.2788
22733SOL    HW168777   7.250   8.791   5.237 -0.9116  0.3852  1.0870
22733SOL    HW268778   7.143   8.848   5.147 -0.3101  1.5418  1.0826
22734SOL     OW68779   6.704   2.443   4.866 -0.3792 -0.5580 -0.5031
22734SOL    HW168780   6.614   2.476   4.860 -0.2704  0.0096  0.6292
22734SOL    HW268781   6.700   2.376   4.934 -0.2392 -1.6557 -1.5557
22735SOL     OW68782   4.711   1.900   1.432 -0.1907 -0.1603 -0.6163
22735SOL    HW168783   4.701   1.824   1.489 -0.4437  1.1323  1.1740
22735SOL    HW268784   4.805   1.918   1.434 -0.2830  0.3037  0.0178
22736SOL     OW68785   5.415   2.693   0.205  0.0129  0.0185 -0.2083
22736SOL    HW168786   5.465   2.616   0.233 -0.1349 -0.7058 -1.8437
22736SOL    HW268787   5.325   2.675   0.234  0.0535 -0.2263 -0.2329
22737SOL     OW68788   1.619   8.723   5.963  0.5927  0.4407  0.3170
22737SOL    HW168789   1.559   8.788   5.925  1.4212  1.1859  0.2347
22737SOL    HW268790   1.628   8.656   5.895 -0.6098 -0.0133  0.5675
22738SOL     OW68791   4.262   3.675   3.608 -0.2128 -0.6415 -0.0933
22738SOL    HW168792   4.189   3.660   3.669  0.3492 -0.9181  0.5223
22738SOL    HW268793   4.315   3.596   3.615  1.0167  0.2248  0.6999
22739SOL     OW68794   3.935   3.369   6.280  0.5464 -0.1281 -0.4752
22739SOL    HW168795   3.864   3.309   6.258 -0.7549  1.2463 -0.2161
22739SOL    HW268796   3.958   3.410   6.196 -0.0535  0.5454 -0.3184
22740SOL     OW68797   9.747   5.012   3.777 -0.0157 -0.1231  0.1300
22740SOL    HW168798   9.788   4.967   3.703 -0.9137 -1.9100  0.6550
22740SOL    HW268799   9.708   5.091   3.739 -0.8179 -1.2032 -1.4028
22741SOL     OW68800   4.257   2.974   8.309  0.0498  0.2158  0.4137
22741SOL    HW168801   4.218   2.919   8.377 -0.9496 -0.4646 -0.6639
22741SOL    HW268802   4.264   3.061   8.349 -0.7351 -0.1146  1.2964
22742SOL     OW68803   6.984   8.070   7.749 -0.1563  0.0615  0.3575
22742SOL    HW168804   7.041   8.138   7.714  1.0374 -2.1473 -2.4112
22742SOL    HW268805   6.923   8.051   7.678 -1.1320 -1.0141  1.4441
22743SOL     OW68806   9.899   3.703   2.957 -0.3285  0.2403 -0.2882
22743SOL    HW168807   9.956   3.655   3.019  0.0151 -0.4716 -1.1301
22743SOL    HW268808   9.929   3.793   2.963 -1.0714  0.4226  1.4323
22744SOL     OW68809   1.376   6.562   7.921 -0.3519 -0.6067  0.8095
22744SOL    HW168810   1.384   6.640   7.867  2.5497 -1.2396  0.1214
22744SOL    HW268811   1.322   6.589   7.995  1.3217  2.4017  1.1170
22745SOL     OW68812   9.807   0.822   0.264  0.2519  0.1876  0.0124
22745SOL    HW168813   9.801   0.736   0.307 -0.4208  0.5133  0.5879
22745SOL    HW268814   9.878   0.867   0.310  0.1113  0.2116  0.2092
22746SOL     OW68815   7.473   3.465   7.475  0.8967  0.4949 -0.0650
22746SOL    HW168816   7.544   3.510   7.521  0.6322 -0.9734  1.9176
22746SOL    HW268817   7.410   3.442   7.544 -0.0437 -0.9100 -1.3196
22747SOL     OW68818   3.358   9.381   8.582 -0.3698  0.7739  0.4651
22747SOL    HW168819   3.333   9.460   8.534  2.2293  1.4637  0.0865
22747SOL    HW268820   3.285   9.365   8.642 -2.0022  2.0950 -1.0649
22748SOL     OW68821   3.755   2.034   4.163 -0.2582 -0.1796  0.3408
22748SOL    HW168822   3.768   2.128   4.174  1.9928 -0.2592 -0.9768
22748SOL    HW268823   3.781   1.996   4.247  2.8767  0.1741 -0.3349
22749SOL     OW68824   5.478   8.647   6.231 -0.0849 -0.3923 -0.1857
22749SOL    HW168825   5.454   8.583   6.164 -2.1398 -0.3679  0.4592
22749SOL    HW268826   5.479   8.597   6.313  0.4285 -0.0170  0.0422
22750SOL     OW68827   6.570   3.552   6.440  0.8657  0.5244  0.1972
22750SOL    HW168828   6.525   3.625   6.483  1.3087  0.9654 -0.0763
22750SOL    HW268829   6.499   3.499   6.402  0.4824  0.2317  1.2900
22751SOL     OW68830   3.162   4.334   2.138  0.3600 -0.5822  0.4654
22751SOL    HW168831   3.079   4.301   2.104 -0.0315  1.0658 -0.3187
22751SOL    HW268832   3.207   4.257   2.172 -1.1162 -1.6409  0.1277
22752SOL     OW68833   6.565   4.515   2.681 -0.5823 -0.9877  0.2552
22752SOL    HW168834   6.493   4.579   2.678 -0.4714 -0.8305  0.8843
22752SOL    HW268835   6.638   4.559   2.638 -0.4849 -0.6575  0.7483
22753SOL     OW68836   7.950   9.818   4.762  0.6091 -0.3055  0.0570
22753SOL    HW168837   7.877   9.766   4.795  0.7540  0.6203  2.0313
22753SOL    HW268838   8.024   9.758   4.761  0.1363 -0.8832 -0.5623
22754SOL     OW68839   8.532   4.684   7.064  0.3238  0.4344 -0.0523
22754SOL    HW168840   8.581   4.616   7.109 -1.8927 -0.5041  1.0955
22754SOL    HW268841   8.455   4.698   7.119 -1.1512  1.1966 -2.1881
22755SOL     OW68842   6.421   2.518   8.077 -0.7203  0.2887  0.3623
22755SOL    HW168843   6.435   2.427   8.101  0.9989  0.3013 -0.4709
22755SOL    HW268844   6.472   2.568   8.140 -0.3011  0.5772 -0.1975
22756SOL     OW68845   7.948   6.918   5.038 -0.1236 -0.5962  0.6274
22756SOL    HW168846   7.896   6.991   5.071  1.1599  0.5869  0.1394
22756SOL    HW268847   7.946   6.927   4.943  1.6390 -0.0072  0.6139
22757SOL     OW68848   1.300   3.155   5.312  0.0820  0.2277  0.3149
22757SOL    HW168849   1.274   3.184   5.225  0.9378  0.9304  0.2724
22757SOL    HW268850   1.354   3.227   5.345  0.9484 -0.6460  0.8482
22758SOL     OW68851   0.943   4.514   4.167 -0.2930  0.1884 -0.0682
22758SOL    HW168852   0.928   4.602   4.202  3.5360  0.2963  1.8276
22758SOL    HW268853   1.026   4.521   4.119  0.0794 -2.3599  0.0520
22759SOL     OW68854  -0.004   8.465   1.571 -0.1122 -0.1514 -0.3627
22759SOL    HW168855   0.080   8.433   1.539  0.0512 -2.5366  2.0864
22759SOL    HW268856  -0.059   8.387   1.577 -2.5922  1.3362 -1.8895
22760SOL     OW68857   1.954   8.721   4.010 -0.4085  0.6485 -0.5635
22760SOL    HW168858   1.939   8.796   3.952  1.6253  0.6801 -1.1630
22760SOL    HW268859   2.043   8.692   3.987 -0.3890 -0.6987  1.0569
22761SOL     OW68860   6.248   6.342   9.496  0.3504 -0.2346  0.0600
22761SOL    HW168861   6.267   6.267   9.440  0.4962 -0.1545 -0.0004
22761SOL    HW268862   6.166   6.378   9.463 -0.1712 -0.8829  0.6359
22762SOL     OW68863   6.935   6.806   5.833  0.9067  0.1265 -0.0415
22762SOL    HW168864   6.993   6.796   5.908  1.4785 -1.6373 -0.6623
22762SOL    HW268865   6.852   6.767   5.862  0.2541  1.8689  0.5513
22763SOL     OW68866   7.347   0.189   7.685 -0.1309  0.0188  0.0981
22763SOL    HW168867   7.433   0.179   7.724 -1.2906 -2.5157  2.3535
22763SOL    HW268868   7.323   0.280   7.702  2.0446  0.7669 -0.5835
22764SOL     OW68869   5.644   7.936   6.743  0.0823  0.2402 -0.1270
22764SOL    HW168870   5.597   7.854   6.723  0.2305 -0.3679  1.8101
22764SOL    HW268871   5.617   7.958   6.832  1.8365  1.0447  0.2416
22765SOL     OW68872   2.087   4.559   0.825 -0.7015 -0.3238 -0.5533
22765SOL    HW168873   2.081   4.644   0.869  0.6172 -1.5372  2.1623
22765SOL    HW268874   2.059   4.495   0.891  0.8691 -2.2232 -1.6258
22766SOL     OW68875   1.814   0.769   2.701  0.1259  0.2346  0.4324
22766SOL    HW168876   1.819   0.863   2.721  3.5229 -0.2323  2.4772
22766SOL    HW268877   1.780   0.729   2.782  1.0432 -0.5008  0.4666
22767SOL     OW68878   5.912   6.094   3.994 -0.0659  0.3041  0.1328
22767SOL    HW168879   5.891   6.072   4.085  0.3282 -0.4919  0.0378
22767SOL    HW268880   6.006   6.108   3.993  0.1793 -1.2311 -0.4477
22768SOL     OW68881   3.052   2.262   3.195 -0.4667 -0.3112 -0.3800
22768SOL    HW168882   2.988   2.271   3.124  1.5120 -3.1892 -2.7796
22768SOL    HW268883   3.129   2.224   3.153  1.5251 -0.4358  3.0442
22769SOL     OW68884   5.895   2.200   4.128  0.3485  0.1784 -0.6026
22769SOL    HW168885   5.838   2.276   4.143  1.2466  1.1466 -1.8653
22769SOL    HW268886   5.899   2.156   4.213 -0.2243  1.5300  0.1598
22770SOL     OW68887   2.192   1.737   5.182  0.1850  0.1763 -0.1459
22770SOL    HW168888   2.132   1.787   5.127  1.8971  0.9746 -1.3703
22770SOL    HW268889   2.279   1.758   5.148  1.1632 -1.0950  1.4350
22771SOL     OW68890   9.899   0.371   8.750 -0.4321 -0.4301 -0.3230
22771SOL    HW168891   9.941   0.457   8.749  0.0004 -0.5994 -3.1102
22771SOL    HW268892   9.964   0.311   8.713 -1.2814 -1.6995  0.1531
22772SOL     OW68893   2.805   0.524   3.693 -0.0644 -0.2413 -0.2200
22772SOL    HW168894   2.769   0.475   3.619 -0.2525 -1.0186  0.3712
22772SOL    HW268895   2.750   0.499   3.767 -0.9681  1.8304 -0.1232
22773SOL     OW68896   8.047   9.570   1.983  0.1144  0.0854 -0.0661
22773SOL    HW168897   8.132   9.568   2.026  0.1115  1.5497  0.0414
22773SOL    HW268898   7.994   9.629   2.037 -0.1380  1.3035 -1.5915
22774SOL     OW68899   2.602   7.230   3.715  0.0209 -0.0311 -0.5571
22774SOL    HW168900   2.672   7.166   3.715 -0.0780 -0.1408 -0.9151
22774SOL    HW268901   2.639   7.306   3.761  0.1262 -0.3503 -0.1079
22775SOL     OW68902   2.775   6.431   7.085  0.1910 -0.3621 -0.3997
22775SOL    HW168903   2.685   6.460   7.099  0.2916  0.6612 -1.7011
22775SOL    HW268904   2.775   6.339   7.110 -1.2910 -0.4525 -0.6879
22776SOL     OW68905   9.967   9.287   6.150  0.3504  0.7573 -0.4275
22776SOL    HW168906   9.898   9.266   6.087  0.1919 -0.8379  0.2125
22776SOL    HW268907   9.937   9.366   6.194 -1.5978 -0.4062  0.5011
22777SOL     OW68908   3.019   4.165   4.370 -0.0822 -0.5550 -0.4801
22777SOL    HW168909   3.027   4.191   4.462  1.8250 -1.2115 -0.4115
22777SOL    HW268910   2.926   4.144   4.359 -0.2404 -1.0796  1.4797
22778SOL     OW68911   1.175   1.845   4.975 -0.1561 -0.0548 -0.2328
22778SOL    HW168912   1.159   1.913   4.910 -0.2215  0.3995  0.2503
22778SOL    HW268913   1.123   1.770   4.946 -1.4140  0.6576  0.1200
22779SOL     OW68914   5.561   9.096   9.440  0.3356  0.0932 -0.1694
22779SOL    HW168915   5.557   9.032   9.368 -0.5155 -0.4297  0.3175
22779SOL    HW268916   5.565   9.042   9.519  0.9281  0.6614  0.1950
22780SOL     OW68917   5.689   6.081   6.168 -0.5318 -0.6133  0.1088
22780SOL    HW168918   5.638   6.048   6.094  0.7078 -1.7328 -0.2865
22780SOL    HW268919   5.732   6.003   6.204  1.2710  0.3375  0.1153
22781SOL     OW68920   4.459   3.392   0.225 -0.1451  0.1458  0.3123
22781SOL    HW168921   4.522   3.346   0.169  1.5313  2.5281  0.0966
22781SOL    HW268922   4.381   3.402   0.170  1.5277  2.5944 -1.8403
22782SOL     OW68923   1.478   9.908   4.746  0.2080  0.1904  0.2315
22782SOL    HW168924   1.407   9.859   4.789 -0.4049  1.1208  0.2984
22782SOL    HW268925   1.512   9.848   4.680 -0.7244 -0.2297  0.1159
22783SOL     OW68926   7.146   0.982   3.707 -0.1853 -0.2767  0.0590
22783SOL    HW168927   7.163   1.049   3.641  0.2540  2.2563  2.5467
22783SOL    HW268928   7.205   0.910   3.684 -1.4532 -0.4196 -3.3273
22784SOL     OW68929   7.609   5.542   5.396  0.0444 -0.2086 -0.0474
22784SOL    HW168930   7.539   5.512   5.454 -0.0262 -0.1701 -0.1129
22784SOL    HW268931   7.647   5.462   5.361  0.0872 -0.2324  0.0520
22785SOL     OW68932   3.372   7.156   5.591  0.0693 -0.2766  0.1739
22785SOL    HW168933   3.456   7.192   5.621 -0.1666  0.3399  0.1210
22785SOL    HW268934   3.369   7.175   5.497  0.0698 -0.6971  0.0899
22786SOL     OW68935   0.011   6.974   5.193  1.0450  0.0338 -0.0671
22786SOL    HW168936   0.032   7.025   5.272 -1.5343 -0.8972  1.3463
22786SOL    HW268937   0.060   7.017   5.123  0.5619  3.2365  1.3729
22787SOL     OW68938   1.810   6.083   4.870  0.3466 -0.2047 -0.5176
22787SOL    HW168939   1.747   6.074   4.942  0.8854 -0.6834 -0.0918
22787SOL    HW268940   1.817   6.178   4.857  2.0440  0.0678  1.7235
22788SOL     OW68941   2.129   3.164   2.605 -0.3051 -0.5394 -0.3766
22788SOL    HW168942   2.162   3.178   2.516 -0.0482 -1.9981 -0.5397
22788SOL    HW268943   2.035   3.156   2.596 -0.4577  0.9029 -0.2812
22789SOL     OW68944   6.793   8.026   8.636 -0.1567 -0.9727  0.4213
22789SOL    HW168945   6.730   7.970   8.590 -0.0075 -0.1023 -0.8875
22789SOL    HW268946   6.755   8.114   8.632  1.4616 -0.2955 -1.0717
22790SOL     OW68947   4.301   9.033   3.085 -0.0081  0.0071 -0.0906
22790SOL    HW168948   4.228   9.075   3.130 -0.3362 -0.0460 -0.5606
22790SOL    HW268949   4.339   9.103   3.032  1.9981  0.7597  2.1728
22791SOL     OW68950   3.318   0.088   4.697  0.2169  0.1933 -0.0292
22791SOL    HW168951   3.291   0.166   4.649  0.9449 -0.7452 -2.0800
22791SOL    HW268952   3.311   0.016   4.633 -1.6211 -1.6882  2.1047
22792SOL     OW68953   6.399   8.352   9.546  0.2615  0.3498 -0.2297
22792SOL    HW168954   6.423   8.261   9.530 -1.4440 -0.0296 -0.8484
22792SOL    HW268955   6.465   8.403   9.499  0.9862 -0.5727 -0.2318
22793SOL     OW68956   9.647   1.821   0.356  0.3678 -0.1636  0.0831
22793SOL    HW168957   9.572   1.857   0.308  1.6155 -0.0622 -1.8665
22793SOL    HW268958   9.653   1.876   0.434 -1.6701 -0.2716  0.3722
22794SOL     OW68959   0.589   8.821   9.523  0.1676  0.6249 -0.6009
22794SOL    HW168960   0.619   8.797   9.435  0.3848  0.4453 -0.4794
22794SOL    HW268961   0.616   8.748   9.578  0.5472  1.0085 -0.2782
22795SOL     OW68962   7.680   1.932   9.853 -0.0408 -0.1705 -0.5165
22795SOL    HW168963   7.723   1.944   9.768  0.6257 -1.0770 -0.3260
22795SOL    HW268964   7.590   1.960   9.838  0.6625  2.0586 -0.8479
22796SOL     OW68965   0.395   5.793   6.325  0.5951 -0.1596  0.2951
22796SOL    HW168966   0.489   5.779   6.318  0.8155  1.2311  0.2899
22796SOL    HW268967   0.380   5.815   6.417  0.2992 -0.2245  0.2650
22797SOL     OW68968   8.390   5.881   9.237  0.4677  0.5851  0.0639
22797SOL    HW168969   8.427   5.969   9.226 -0.9645  1.0706 -1.1561
22797SOL    HW268970   8.370   5.852   9.148 -0.1415 -0.5084  0.5370
22798SOL     OW68971   6.683   4.890   9.031 -0.0252 -0.5298  0.5424
22798SOL    HW168972   6.603   4.868   9.078 -1.0347 -0.3003 -1.0340
22798SOL    HW268973   6.683   4.833   8.954  1.5693 -0.8513  0.7290
22799SOL     OW68974   1.951   4.679   4.981 -0.0859 -0.1995 -0.6672
22799SOL    HW168975   1.992   4.754   5.025 -1.2432 -0.5736  1.1401
22799SOL    HW268976   2.024   4.621   4.959  0.5649  0.1005  0.6017
22800SOL     OW68977   3.185   5.660   2.255 -0.4981 -0.4951  0.3900
22800SOL    HW168978   3.175   5.570   2.226  1.2605 -0.5358 -0.2398
22800SOL    HW268979   3.280   5.676   2.252 -0.6798  1.0598  1.4439
22801SOL     OW68980   7.492   2.821   3.712 -1.0090  0.1731  0.0769
22801SOL    HW168981   7.460   2.902   3.672 -2.4642 -0.7796 -0.7740
22801SOL    HW268982   7.434   2.806   3.787 -1.5740 -0.7132 -0.5121
22802SOL     OW68983   9.116   2.827   4.703  0.1948 -0.0324 -0.2437
22802SOL    HW168984   9.129   2.914   4.665  0.8201 -0.0147  0.0048
22802SOL    HW268985   9.132   2.767   4.630  1.4413  0.0017 -0.0211
22803SOL     OW68986   0.295   9.523   5.475 -0.1307  0.4464 -0.0609
22803SOL    HW168987   0.378   9.547   5.516  0.0144 -0.3071  0.0995
22803SOL    HW268988   0.260   9.454   5.530 -0.2491 -0.1286 -0.8463
22804SOL     OW68989   3.866   4.934   8.751  0.3966  0.1048 -0.4605
22804SOL    HW168990   3.942   4.979   8.788  0.7032 -1.4996  1.0013
22804SOL    HW268991   3.791   4.969   8.798  0.5457 -0.2845  0.0763
22805SOL     OW68992   2.007   5.353   5.310  0.2787  0.1460 -0.0154
22805SOL    HW168993   2.018   5.434   5.360 -0.5233  0.3034 -0.0715
22805SOL    HW268994   2.028   5.377   5.220  1.0298  0.0393  0.1297
22806SOL     OW68995   7.750   4.294   0.368 -0.4747 -0.1722  0.4585
22806SOL    HW168996   7.826   4.272   0.422  0.4884  0.6409 -0.5185
22806SOL    HW268997   7.675   4.283   0.426  0.0722 -3.6376  0.7373
22807SOL     OW68998   2.319   7.036   8.174  0.0343  0.1637 -0.0710
22807SOL    HW168999   2.224   7.035   8.189  0.2638  0.0242  1.5585
22807SOL    HW269000   2.353   7.099   8.238  1.2128 -1.1010  0.5979
22808SOL     OW69001   1.020   5.393   7.572 -0.0461 -0.5283  0.2385
22808SOL    HW169002   1.000   5.443   7.651  1.9675  0.4507  0.1935
22808SOL    HW269003   1.108   5.359   7.586  1.3736  1.6476 -2.4758
22809SOL     OW69004   8.739   3.574   6.032 -0.6583  0.8035 -0.2677
22809SOL    HW169005   8.817   3.520   6.037 -1.2948 -0.3263 -1.5858
22809SOL    HW269006   8.678   3.534   6.095 -0.6189  0.8803 -0.1814
22810SOL     OW69007   5.441   0.260   8.814  1.1165  0.1334  0.2284
22810SOL    HW169008   5.506   0.222   8.873  0.7089  0.6387  1.0170
22810SOL    HW269009   5.423   0.346   8.851 -0.4401 -0.2240  0.3626
22811SOL     OW69010   0.180   9.404   8.662  0.1717 -0.6300 -0.0145
22811SOL    HW169011   0.098   9.386   8.616 -0.3553 -0.7601  0.9519
22811SOL    HW269012   0.160   9.478   8.719  0.6455 -0.8421  0.4354
22812SOL     OW69013   3.945   1.988   8.577  0.0535  0.0584  0.2664
22812SOL    HW169014   3.882   1.960   8.510 -0.0075 -0.7680  0.6519
22812SOL    HW269015   3.906   1.959   8.660  2.1999 -3.1231  0.3420
22813SOL     OW69016   3.553   3.097   3.125 -0.3125 -0.1073  0.4284
22813SOL    HW169017   3.589   3.013   3.155 -1.1852 -1.2724 -1.5903
22813SOL    HW269018   3.554   3.152   3.203 -0.4362 -2.2379  2.0338
22814SOL     OW69019   9.291   7.994   2.777 -0.3336 -0.1697  0.5555
22814SOL    HW169020   9.220   7.932   2.760 -0.7958  0.8560 -1.6709
22814SOL    HW269021   9.252   8.059   2.836 -1.5795  0.8222 -1.2714
22815SOL     OW69022   9.201   0.891   7.476 -0.4617  0.0929  0.0456
22815SOL    HW169023   9.153   0.873   7.557 -0.2904 -2.0556 -0.2879
22815SOL    HW269024   9.162   0.834   7.410  1.5519 -0.6612 -0.5802
22816SOL     OW69025   1.089   2.113   8.250  0.0810  0.2607 -0.6338
22816SOL    HW169026   1.047   2.132   8.166  1.0728 -1.3988 -1.5592
22816SOL    HW269027   1.016   2.103   8.311 -0.9112 -1.8590 -2.0472
22817SOL     OW69028   8.660   1.418   6.366  0.4767  0.4148  0.1110
22817SOL    HW169029   8.654   1.334   6.321  0.5082  0.2728  0.3717
22817SOL    HW269030   8.574   1.459   6.351 -0.2469 -0.4888  1.5987
22818SOL     OW69031   8.135   9.060   8.408 -0.0135 -0.0101 -1.0154
22818SOL    HW169032   8.202   9.069   8.477  0.8200  3.1651 -2.0746
22818SOL    HW269033   8.161   8.981   8.361  0.2638 -1.4306  1.3250
22819SOL     OW69034   6.019   8.948   3.500 -0.8107 -0.2741  0.0701
22819SOL    HW169035   6.084   9.006   3.459 -1.4144  0.7249  0.4918
22819SOL    HW269036   6.070   8.892   3.558 -0.3913  1.1517  1.1445
22820SOL     OW69037   3.157   2.707   3.843 -0.0095 -0.5147  0.0972
22820SOL    HW169038   3.082   2.697   3.901 -0.6083  1.3427 -0.3155
22820SOL    HW269039   3.154   2.630   3.786 -1.8078 -0.2936 -0.1446
22821SOL     OW69040   6.144   7.808   5.860  0.0535  0.2343 -0.6697
22821SOL    HW169041   6.159   7.903   5.854  0.3774  0.3365  1.0397
22821SOL    HW269042   6.230   7.772   5.882 -0.1330 -0.4285 -1.0148
22822SOL     OW69043   6.216   3.507   3.866  0.2035  0.1071  0.3167
22822SOL    HW169044   6.154   3.487   3.796  2.0220 -0.3341 -1.2905
22822SOL    HW269045   6.267   3.581   3.832 -0.4643  1.5542  2.2920
22823SOL     OW69046   4.430   9.495   0.834  0.1432 -0.2236  0.3100
22823SOL    HW169047   4.395   9.424   0.887  1.6289 -1.3615 -0.1615
22823SOL    HW269048   4.367   9.506   0.764 -0.6439 -0.3291  0.9852
22824SOL     OW69049   8.140   6.636   9.064  0.1718  0.0907 -0.2470
22824SOL    HW169050   8.234   6.643   9.084  0.3315  1.5772 -1.3781
22824SOL    HW269051   8.104   6.720   9.092 -0.2711  0.7183 -2.5578
22825SOL     OW69052   5.135   8.386   4.328  0.2965  0.6461  0.1706
22825SOL    HW169053   5.201   8.449   4.300  0.5040  0.7022  0.7732
22825SOL    HW269054   5.055   8.439   4.338  0.4539  0.8123  0.6093
22826SOL     OW69055   0.648   5.759   3.328 -0.3133  0.0672 -0.8072
22826SOL    HW169056   0.590   5.800   3.264 -0.8580  1.2657  0.4094
22826SOL    HW269057   0.596   5.688   3.365 -0.8164  0.7972 -0.1037
22827SOL     OW69058   8.393   6.321   4.050 -0.6134 -0.2001  0.1590
22827SOL    HW169059   8.395   6.229   4.023 -0.2673 -0.3175  0.5566
22827SOL    HW269060   8.466   6.328   4.113  2.0979  1.2659 -2.8356
22828SOL     OW69061   8.397   9.592   3.442 -0.3212  0.1308  0.3084
22828SOL    HW169062   8.378   9.533   3.515  0.2590 -2.1869 -1.3298
22828SOL    HW269063   8.459   9.545   3.388 -0.5674  1.8777 -1.6143
22829SOL     OW69064   1.911   0.955   9.811 -0.8143  0.1880  0.1101
22829SOL    HW169065   1.942   0.929   9.724 -1.5336  0.7553 -0.3339
22829SOL    HW269066   1.840   1.018   9.793 -0.8717  0.4252  1.1100
22830SOL     OW69067   5.130   1.323   5.980  0.1722  0.1233 -0.7325
22830SOL    HW169068   5.132   1.236   6.019 -1.5810 -0.7764 -2.4702
22830SOL    HW269069   5.187   1.317   5.903  1.1016  0.9483 -0.1416
22831SOL     OW69070   8.775   1.189   1.970 -0.5618  0.6921 -0.2283
22831SOL    HW169071   8.855   1.233   1.941 -0.6179  1.0559  0.1677
22831SOL    HW269072   8.739   1.246   2.037 -0.1870 -0.3506  0.9036
22832SOL     OW69073   7.491   8.477   8.248  0.3034  0.0495  0.2055
22832SOL    HW169074   7.410   8.527   8.253 -0.0228 -0.4612  0.0653
22832SOL    HW269075   7.464   8.390   8.221  1.0114  0.1977 -1.0685
22833SOL     OW69076   7.838   9.499   0.980  0.5375  0.2401 -0.2494
22833SOL    HW169077   7.819   9.589   1.007 -0.3628  0.5135 -1.6772
22833SOL    HW269078   7.760   9.450   1.006  0.9113 -0.0867  0.2770
22834SOL     OW69079   9.033   4.009   4.101  0.1007  1.2165 -0.2963
22834SOL    HW169080   9.111   4.042   4.056  0.2441  1.1058 -0.1318
22834SOL    HW269081   9.047   4.032   4.193 -0.7677  2.5428 -0.4792
22835SOL     OW69082   5.461   8.881   7.562  0.1134 -0.2118  0.5587
22835SOL    HW169083   5.470   8.799   7.513 -1.6025 -0.2078  0.1644
22835SOL    HW269084   5.532   8.879   7.626  1.3612 -1.0187 -0.8011
22836SOL     OW69085   9.733   2.899   5.103  0.2009  0.6459 -0.0684
22836SOL    HW169086   9.716   2.859   5.188  0.1163 -0.3670 -0.5508
22836SOL    HW269087   9.729   2.993   5.120 -0.3499  0.4574  0.9369
22837SOL     OW69088   2.807   7.659   7.889  0.0434  0.1147  0.3519
22837SOL    HW169089   2.855   7.732   7.848  2.0540 -2.0626 -1.5285
22837SOL    HW269090   2.841   7.655   7.978 -1.2503  2.3353  1.0225
22838SOL     OW69091   3.491   5.034   6.507  0.0624 -0.6086  0.1481
22838SOL    HW169092   3.489   5.076   6.593  0.7371  0.1542 -0.1968
22838SOL    HW269093   3.484   4.940   6.526  0.9882 -0.5046  1.0895
22839SOL     OW69094   7.239   3.734   1.225 -0.1515  0.0815  0.2260
22839SOL    HW169095   7.275   3.655   1.265 -0.2808  0.5831  1.3515
22839SOL    HW269096   7.292   3.747   1.146  2.0870  0.7350  1.7587
22840SOL     OW69097   9.465   3.778   6.021  0.2745  0.0593 -0.0867
22840SOL    HW169098   9.498   3.742   5.939  2.4840  1.7808 -0.0454
22840SOL    HW269099   9.509   3.728   6.089 -0.1543 -0.1548  0.0369
22841SOL     OW69100   2.916   1.182   6.886 -0.3622  0.3281 -0.0819
22841SOL    HW169101   2.956   1.138   6.811 -0.4858 -0.1932  0.1515
22841SOL    HW269102   2.843   1.125   6.911 -0.0783  0.2861  0.6743
22842SOL     OW69103   0.548   6.238   7.442  0.3383 -0.1441  0.4999
22842SOL    HW169104   0.497   6.197   7.373  1.4702 -1.1125  0.2117
22842SOL    HW269105   0.487   6.299   7.484 -1.2651 -1.7939  0.6635
22843SOL     OW69106   9.871   0.314   0.363  0.0621 -0.6399 -0.0875
22843SOL    HW169107   9.887   0.230   0.407 -0.8430 -1.6478 -1.5722
22843SOL    HW269108   9.777   0.315   0.347 -0.0430  0.9859  0.4664
22844SOL     OW69109   9.902   3.323   0.952 -0.2831 -0.0631  0.1229
22844SOL    HW169110   9.809   3.319   0.976 -0.6546  2.3008 -0.5824
22844SOL    HW269111   9.906   3.280   0.866 -0.6076 -0.6987  0.4192
22845SOL     OW69112   2.410   2.094   4.314  0.1324  0.2865  0.0959
22845SOL    HW169113   2.327   2.138   4.292  0.4767  0.1064 -1.8107
22845SOL    HW269114   2.383   2.020   4.368 -0.7673  1.1751  0.9047
22846SOL     OW69115   8.197   3.236   6.442  0.4982  0.2580 -0.1519
22846SOL    HW169116   8.126   3.300   6.441 -0.8781 -1.1916 -0.0035
22846SOL    HW269117   8.254   3.265   6.514 -0.7706  0.6336  0.7443
22847SOL     OW69118   1.497   1.842   6.400  0.0803  1.0108 -0.2668
22847SOL    HW169119   1.420   1.874   6.353 -0.7102  1.2153  1.1255
22847SOL    HW269120   1.462   1.788   6.471  1.1797  1.6960  0.8324
22848SOL     OW69121   9.650   1.438   2.210  0.1381 -0.1496 -0.0119
22848SOL    HW169122   9.600   1.436   2.291 -0.1735  0.9368 -0.1628
22848SOL    HW269123   9.741   1.453   2.238  0.1911 -0.8038  0.1849
22849SOL     OW69124   2.370   6.562   3.775  0.0721 -0.4238 -0.5681
22849SOL    HW169125   2.423   6.514   3.839 -1.5689 -1.6873 -0.0774
22849SOL    HW269126   2.299   6.502   3.753 -0.4544  0.7091 -2.1801
22850SOL     OW69127   7.803   2.840   4.411  0.1063  0.4472  0.2306
22850SOL    HW169128   7.846   2.815   4.492 -0.0629 -0.5847  0.0232
22850SOL    HW269129   7.870   2.831   4.344  0.1639  1.0037  0.2090
22851SOL     OW69130   5.540   1.230   6.648 -0.3127  0.2425  0.0345
22851SOL    HW169131   5.546   1.152   6.702 -1.2414  0.9079  1.1530
22851SOL    HW269132   5.452   1.227   6.611 -1.0012  1.5507  1.4336
22852SOL     OW69133   7.658   3.837   7.039 -0.0487 -0.1282 -0.0427
22852SOL    HW169134   7.648   3.824   7.134 -2.1036  0.5282 -0.1118
22852SOL    HW269135   7.677   3.750   7.005  0.5878 -0.3998  0.9568
22853SOL     OW69136   6.711   0.349   0.995  0.0272 -0.5914  0.4149
22853SOL    HW169137   6.619   0.369   0.977  0.4763  0.0176 -1.4479
22853SOL    HW269138   6.712   0.323   1.087 -1.5328  2.5508  1.4920
22854SOL     OW69139   4.968   8.991   4.787 -0.5912  0.2419 -0.2792
22854SOL    HW169140   4.934   9.027   4.869 -0.0684  0.7364 -0.2768
22854SOL    HW269141   5.008   9.065   4.743  0.3213 -0.2880 -0.3635
22855SOL     OW69142   6.109   7.871   8.197 -0.3068  0.0273  0.5685
22855SOL    HW169143   6.184   7.813   8.211 -1.8763 -2.0147  0.9410
22855SOL    HW269144   6.121   7.940   8.263  2.3260  1.0277 -0.7821
22856SOL     OW69145   0.670   8.984   5.334 -0.3388 -0.5035 -0.1558
22856SOL    HW169146   0.713   9.038   5.401 -1.0079  0.5105 -0.5128
22856SOL    HW269147   0.742   8.951   5.281  0.0978  0.0874  0.0470
22857SOL     OW69148   1.676   3.123   4.360  0.4454 -0.2142  0.1918
22857SOL    HW169149   1.666   3.217   4.347  0.7861 -0.5789 -3.8770
22857SOL    HW269150   1.702   3.089   4.274 -1.8308 -4.3386  0.8844
22858SOL     OW69151   5.719   3.930   8.816  0.2437  0.0598  0.1915
22858SOL    HW169152   5.642   3.882   8.847  0.5040 -0.0855  0.6031
22858SOL    HW269153   5.774   3.940   8.893  1.2140 -0.9024 -0.3535
22859SOL     OW69154   4.778   7.671   4.909 -0.3644 -0.2056  0.0695
22859SOL    HW169155   4.802   7.680   5.001 -0.0503  1.6101 -0.1612
22859SOL    HW269156   4.811   7.584   4.884  0.5555 -0.2509  1.3457
22860SOL     OW69157   2.460   5.134   2.150  0.1989  0.0674 -0.2355
22860SOL    HW169158   2.382   5.105   2.103  0.2871 -1.0529  0.2875
22860SOL    HW269159   2.507   5.054   2.170  1.3822  0.7140 -0.3440
22861SOL     OW69160   2.327   3.352   1.423 -0.3138 -0.3805  0.3203
22861SOL    HW169161   2.402   3.343   1.483  0.3790 -0.0399 -0.4773
22861SOL    HW269162   2.265   3.286   1.453 -0.8329  1.0511  2.6365
22862SOL     OW69163   1.073   2.173   8.920  0.5064 -0.0253 -0.4484
22862SOL    HW169164   1.109   2.238   8.980  1.7721 -1.3858  0.3332
22862SOL    HW269165   0.997   2.216   8.881  0.3868  1.3725  1.1816
22863SOL     OW69166   3.319   4.507   9.121 -0.0679 -0.8152 -0.0761
22863SOL    HW169167   3.299   4.413   9.125 -0.4131 -0.7988 -1.0437
22863SOL    HW269168   3.246   4.545   9.072 -1.7312  0.5402  3.1487
22864SOL     OW69169   9.315   2.713   3.909  0.4597  0.2567 -0.6456
22864SOL    HW169170   9.288   2.657   3.837 -0.2210  0.5880 -0.6573
22864SOL    HW269171   9.394   2.757   3.878 -1.1405  2.2516 -2.1767
22865SOL     OW69172   6.132   0.614   1.572 -0.0851  0.3737  0.1439
22865SOL    HW169173   6.217   0.573   1.557  0.1590  0.9279  0.0156
22865SOL    HW269174   6.082   0.595   1.492  0.7218  2.0612 -0.8250
22866SOL     OW69175   8.975   5.756   0.559 -0.3669 -0.0291  0.9473
22866SOL    HW169176   8.983   5.737   0.652 -0.7101 -3.2308  0.4538
22866SOL    HW269177   8.883   5.741   0.539 -0.0362 -0.7608 -0.1353
22867SOL     OW69178   0.930   6.927   0.086 -0.3785 -0.0407 -0.1525
22867SOL    HW169179   0.853   6.918   0.030 -0.4575 -0.2401 -0.0164
22867SOL    HW269180   0.992   6.862   0.052 -0.2110  0.2270 -0.3581
22868SOL     OW69181   5.658   8.582   3.765  0.1107 -0.0347  0.2372
22868SOL    HW169182   5.598   8.567   3.692 -1.8260  1.1094  1.4987
22868SOL    HW269183   5.644   8.507   3.823  0.4292 -0.1242  0.1974
22869SOL     OW69184   3.139   5.026   9.332  0.1664 -0.0560 -0.4695
22869SOL    HW169185   3.221   4.993   9.371 -0.1366  0.1617  0.3702
22869SOL    HW269186   3.073   4.964   9.362 -0.2006  0.5749  0.0335
22870SOL     OW69187   3.447   8.478   9.548  0.0948  0.1616 -0.4615
22870SOL    HW169188   3.438   8.385   9.568 -0.1888  0.2011 -0.4020
22870SOL    HW269189   3.442   8.521   9.634  0.6495  0.2037 -0.4435
22871SOL     OW69190   1.414   1.802   4.204 -0.1014  0.2333 -0.4944
22871SOL    HW169191   1.473   1.764   4.270 -1.8340  0.0545  1.0356
22871SOL    HW269192   1.396   1.890   4.236 -2.0735 -0.3398  0.0786
22872SOL     OW69193   7.232   6.015   9.518 -0.6295 -0.1656 -0.3438
22872SOL    HW169194   7.224   5.935   9.569 -0.5736  0.8075  1.2687
22872SOL    HW269195   7.180   5.999   9.440 -0.6554 -1.7478 -0.0295
22873SOL     OW69196   0.388   1.260   8.301  0.1793 -0.5275  0.1125
22873SOL    HW169197   0.416   1.345   8.335  1.0909 -0.7751  0.0021
22873SOL    HW269198   0.402   1.199   8.373 -0.4144 -0.6037  0.1700
22874SOL     OW69199   3.367   9.528   9.816  0.1098  0.4458 -0.4885
22874SOL    HW169200   3.273   9.523   9.832  0.1805 -0.4380 -0.3045
22874SOL    HW269201   3.388   9.447   9.770  1.3054 -0.9750  2.3156
22875SOL     OW69202   5.797   1.540   1.827 -0.1417 -0.0082  0.0870
22875SOL    HW169203   5.789   1.615   1.886 -0.2393  0.0281  0.0280
22875SOL    HW269204   5.890   1.518   1.829 -0.1493 -0.0244  0.2758
22876SOL     OW69205   2.446   2.783   2.022 -0.0652  0.0465  0.2157
22876SOL    HW169206   2.421   2.695   1.994  0.3572 -0.0742  0.2119
22876SOL    HW269207   2.468   2.829   1.941 -0.8924  0.3538  0.1575
22877SOL     OW69208   2.453   2.860   0.391 -0.6795 -0.0567  0.6655
22877SOL    HW169209   2.503   2.820   0.320  0.8493  2.2277  0.3368
22877SOL    HW269210   2.367   2.879   0.353 -0.5192 -0.5823  0.0288
22878SOL     OW69211   4.594   4.874   0.490 -0.3403  0.1473  0.3639
22878SOL    HW169212   4.512   4.885   0.442  0.2299 -0.9502 -0.9471
22878SOL    HW269213   4.613   4.781   0.485  2.3535  0.6681 -1.8504
22879SOL     OW69214   0.516   9.643   7.284  0.1018 -0.0107 -0.1205
22879SOL    HW169215   0.535   9.595   7.365  1.6120  0.6977 -0.0239
22879SOL    HW269216   0.597   9.634   7.232  0.3781  2.2705 -0.1657
22880SOL     OW69217   0.989   8.122   6.644  0.0921 -0.2438 -0.1234
22880SOL    HW169218   0.897   8.095   6.645 -0.5290  1.7555  1.1372
22880SOL    HW269219   1.003   8.155   6.555 -0.8135  0.6853  0.0608
22881SOL     OW69220   7.106   9.456   3.331 -0.5757 -0.3817 -0.3110
22881SOL    HW169221   7.055   9.537   3.332 -0.0233 -0.0267  0.9521
22881SOL    HW269222   7.041   9.386   3.337 -0.9502  0.0530  0.9038
22882SOL     OW69223   0.427   1.461   0.175 -0.4430 -0.1175  0.3023
22882SOL    HW169224   0.370   1.391   0.142  1.2210 -0.7309 -1.4750
22882SOL    HW269225   0.454   1.430   0.262 -2.3580 -0.0369  0.9767
22883SOL     OW69226   7.219   8.857   2.784 -0.0046  0.0967 -0.2074
22883SOL    HW169227   7.261   8.798   2.721  2.0289  0.4863  0.7075
22883SOL    HW269228   7.159   8.801   2.833  0.6916 -0.8687 -0.4357
22884SOL     OW69229   7.754   0.390   8.065 -0.7537  0.0810 -0.6984
22884SOL    HW169230   7.818   0.335   8.020  0.0933 -0.2574  0.8279
22884SOL    HW269231   7.702   0.328   8.117 -0.0507  0.6392  0.7302
22885SOL     OW69232   1.885   4.284   0.912  0.3933  0.5927 -0.4426
22885SOL    HW169233   1.826   4.357   0.892 -0.5938 -0.0486  0.0314
22885SOL    HW269234   1.931   4.312   0.992 -0.7025  0.3141  0.3122
22886SOL     OW69235   2.371   4.215   1.660 -0.3682 -0.5028  0.3295
22886SOL    HW169236   2.310   4.142   1.645  1.5673 -2.5818  1.8149
22886SOL    HW269237   2.445   4.197   1.602  0.4429 -0.1346  1.2211
22887SOL     OW69238   2.478   1.332   4.042 -0.1480 -0.5004 -0.3357
22887SOL    HW169239   2.402   1.284   4.074  0.4937 -0.2169  1.7595
22887SOL    HW269240   2.542   1.325   4.112  0.9025  1.2542 -1.0514
22888SOL     OW69241   0.006   2.140   6.915  0.1506 -0.1445 -0.2799
22888SOL    HW169242   0.021   2.217   6.970 -1.7489  0.6823 -0.8244
22888SOL    HW269243   0.001   2.067   6.976  0.0606  0.4633  0.4513
22889SOL     OW69244   1.122   1.842   1.865  0.0250 -0.2325  0.1341
22889SOL    HW169245   1.076   1.769   1.905  0.4007 -0.7597 -0.3768
22889SOL    HW269246   1.213   1.831   1.892  0.0315  0.2344  0.3203
22890SOL     OW69247   3.057   7.065   3.360 -0.0163 -0.2181 -0.0379
22890SOL    HW169248   3.041   7.072   3.454  0.3928  0.7332 -0.0225
22890SOL    HW269249   3.008   7.138   3.322 -1.2540 -1.3671 -0.7211
22891SOL     OW69250   9.857   6.134   1.241 -0.3345 -0.3583 -0.4906
22891SOL    HW169251   9.820   6.207   1.291  0.5842 -0.7846  0.8914
22891SOL    HW269252   9.800   6.060   1.260  1.6736 -1.3136  2.5919
22892SOL     OW69253   6.099   2.490   4.048 -0.1966  0.3752 -0.5506
22892SOL    HW169254   6.152   2.425   4.003  1.4090  2.7441 -2.3839
22892SOL    HW269255   6.047   2.532   3.979 -2.0326  0.3417  0.7299
22893SOL     OW69256   5.872   2.571   2.877 -0.6950  0.5068 -0.0023
22893SOL    HW169257   5.894   2.498   2.935 -3.1951  0.7208  1.3478
22893SOL    HW269258   5.807   2.534   2.817  0.9372  0.6317 -1.9594
22894SOL     OW69259   1.923   5.409   7.967  0.0726 -0.6898  0.5199
22894SOL    HW169260   1.851   5.471   7.955  1.0545  0.3932  0.1068
22894SOL    HW269261   1.906   5.369   8.053 -0.7076 -0.0440  0.6806
22895SOL     OW69262   2.644   5.225   4.312  0.3340  0.0957  0.3121
22895SOL    HW169263   2.589   5.279   4.368  1.1070  0.3197  0.8718
22895SOL    HW269264   2.723   5.208   4.364  0.2154 -1.3833  0.0786
22896SOL     OW69265   0.529   2.233   6.945  0.2670  0.2752  0.2470
22896SOL    HW169266   0.480   2.234   6.863  0.3490 -1.1348  0.1457
22896SOL    HW269267   0.613   2.273   6.924 -0.0499  0.7535 -0.1191
22897SOL     OW69268   6.365   9.735   5.669  0.3970 -0.3903  0.2440
22897SOL    HW169269   6.452   9.764   5.697  1.6164 -1.3324 -2.2813
22897SOL    HW269270   6.366   9.640   5.683 -0.4660 -0.3445  0.6920
22898SOL     OW69271   5.652   2.513   7.157  0.4810  0.6138  0.1737
22898SOL    HW169272   5.704   2.499   7.078 -0.8739  2.8734 -1.2493
22898SOL    HW269273   5.562   2.500   7.129  0.0766 -1.0182  2.0301
22899SOL     OW69274   9.778   2.245   1.818  0.1720  0.5185 -0.4027
22899SOL    HW169275   9.755   2.179   1.884  3.0493 -0.4517 -0.1996
22899SOL    HW269276   9.753   2.205   1.734 -1.7588  0.9475 -0.0714
22900SOL     OW69277   6.293   4.506   7.981  0.1760 -0.1666  0.1860
22900SOL    HW169278   6.280   4.429   7.927 -0.6746  0.6223 -0.7820
22900SOL    HW269279   6.208   4.520   8.025 -0.1359  1.0018 -0.7381
22901SOL     OW69280   8.548   6.253   5.455  0.1397 -0.3473  0.6271
22901SOL    HW169281   8.537   6.294   5.369 -0.1668  0.5166  1.0642
22901SOL    HW269282   8.552   6.159   5.437 -1.0550 -0.2587 -0.2300
22902SOL     OW69283   9.035   3.323   8.343  0.1851 -0.0822  0.1293
22902SOL    HW169284   9.004   3.253   8.286 -0.0379 -0.4690  0.7081
22902SOL    HW269285   9.070   3.390   8.284  0.5112 -0.7352 -0.4298
22903SOL     OW69286   0.346   6.287   0.345  0.5637  0.0394  0.0024
22903SOL    HW169287   0.392   6.205   0.325  2.1652  0.6196  1.0774
22903SOL    HW269288   0.412   6.355   0.334  0.5381  0.7564  3.2246
22904SOL     OW69289   0.143   3.167   6.795  0.7487 -0.1530  0.8448
22904SOL    HW169290   0.187   3.245   6.828  0.3479  1.0020 -1.1417
22904SOL    HW269291   0.055   3.198   6.771  0.7131 -1.0969 -0.3425
22905SOL     OW69292   1.426   6.176   5.190  0.3048  0.0259  0.1615
22905SOL    HW169293   1.498   6.220   5.236 -1.6748  1.6165  1.9526
22905SOL    HW269294   1.400   6.238   5.123 -0.3330  0.1344  0.5005
22906SOL     OW69295   6.515   8.419   1.530  0.2864 -0.4713 -0.0992
22906SOL    HW169296   6.490   8.333   1.566  1.4049 -0.9048 -0.3270
22906SOL    HW269297   6.432   8.466   1.522 -0.3407 -1.5083  0.0856
22907SOL     OW69298   1.872   6.532   6.361  0.2852  0.3435  0.6418
22907SOL    HW169299   1.890   6.588   6.285 -0.3245 -0.8103 -0.3977
22907SOL    HW269300   1.801   6.576   6.406 -0.7314  0.0657 -0.6092
22908SOL     OW69301   4.379   5.831   9.154 -0.1990  0.4221  0.0959
22908SOL    HW169302   4.323   5.757   9.130  1.1808 -0.7227  0.2646
22908SOL    HW269303   4.350   5.855   9.242 -0.1859 -0.3856  0.3263
22909SOL     OW69304   5.345   2.119   1.509 -0.1711 -0.2091 -0.0098
22909SOL    HW169305   5.358   2.213   1.494 -2.6221  0.1867 -0.0626
22909SOL    HW269306   5.333   2.083   1.421  1.2384 -0.7007 -0.0288
22910SOL     OW69307   7.077   2.957   3.660 -0.1652 -0.2399  0.5668
22910SOL    HW169308   7.091   2.901   3.736  1.1144 -0.9973 -0.1819
22910SOL    HW269309   7.041   2.899   3.593  0.6636 -0.0668 -0.0458
22911SOL     OW69310   9.710   2.919   8.859 -0.0226 -0.0286 -0.2011
22911SOL    HW169311   9.698   3.014   8.852 -0.6753 -0.0930 -0.0096
22911SOL    HW269312   9.635   2.882   8.812 -1.0954 -0.4598  1.7754
22912SOL     OW69313   9.904   5.059   0.174  0.2658 -0.1555 -0.1487
22912SOL    HW169314   9.817   5.058   0.134 -0.0839 -0.8421  0.6207
22912SOL    HW269315   9.922   4.968   0.196  1.7655 -0.2533 -1.5185
22913SOL     OW69316   4.382   7.144   3.639  0.1392  0.1279 -0.5590
22913SOL    HW169317   4.416   7.127   3.551 -0.4997  2.0250 -1.2196
22913SOL    HW269318   4.335   7.064   3.662  2.3447 -1.3637 -0.8815
22914SOL     OW69319   8.864   0.059   7.385 -0.6017  0.2229  0.4293
22914SOL    HW169320   8.929  -0.010   7.393  1.2058  1.8893  0.9895
22914SOL    HW269321   8.785   0.015   7.353  1.1967 -1.6809 -1.7062
22915SOL     OW69322   8.684   7.996   1.430 -0.4432  0.1545 -0.0815
22915SOL    HW169323   8.674   8.087   1.458  0.3791  0.3578 -0.4253
22915SOL    HW269324   8.762   7.997   1.374 -0.0088 -0.8910  0.4904
22916SOL     OW69325   0.908   4.733   4.834  0.3125 -0.2249  0.3082
22916SOL    HW169326   0.965   4.805   4.807 -0.6957  0.6085  0.3400
22916SOL    HW269327   0.841   4.728   4.766  0.6966 -1.5454 -0.0098
22917SOL     OW69328   1.814   9.323   5.745 -0.7646  0.0692 -0.0527
22917SOL    HW169329   1.736   9.301   5.796 -0.3006  1.3449  1.2912
22917SOL    HW269330   1.781   9.360   5.663 -1.6011  1.0026  0.6838
22918SOL     OW69331   4.152   2.746   4.040  0.3574 -0.0134 -0.7333
22918SOL    HW169332   4.163   2.816   3.976 -1.6596  1.6506  0.5742
22918SOL    HW269333   4.111   2.790   4.116 -2.0255 -2.7617 -0.2451
22919SOL     OW69334   9.436   4.770   4.390  0.6764 -0.0214  0.1456
22919SOL    HW169335   9.463   4.683   4.419  0.1089 -0.9820 -2.0149
22919SOL    HW269336   9.377   4.754   4.316 -2.1434  2.1126  1.7050
22920SOL     OW69337   9.075   7.170   7.356 -0.6957  0.2990  0.2367
22920SOL    HW169338   9.009   7.218   7.406 -0.1288  1.0086  0.3156
22920SOL    HW269339   9.094   7.225   7.280 -0.3526  0.0001  0.1009
22921SOL     OW69340   1.374   9.477   2.038  0.4609  0.0969 -0.6262
22921SOL    HW169341   1.433   9.402   2.030 -0.1215 -0.3400 -0.8880
22921SOL    HW269342   1.341   9.491   1.949  0.1011  0.2806 -0.4656
22922SOL     OW69343   0.884   5.593   3.747  0.9999  0.0749  0.1811
22922SOL    HW169344   0.816   5.656   3.773  1.4195  0.0529  1.4088
22922SOL    HW269345   0.965   5.643   3.750  1.0087  0.2418 -1.8219
22923SOL     OW69346   9.165   7.160   6.537 -0.6091 -0.0352 -0.2183
22923SOL    HW169347   9.169   7.096   6.609  2.4750  0.2619 -0.0363
22923SOL    HW269348   9.134   7.241   6.578 -2.1587 -0.6967  0.0218
22924SOL     OW69349   7.932   5.886   7.723 -0.1715  0.2786 -0.6209
22924SOL    HW169350   7.855   5.862   7.774  0.5651 -0.2446  0.2851
22924SOL    HW269351   7.959   5.970   7.758  0.6966 -0.3679  0.3079
22925SOL     OW69352   3.478   0.577   7.441  0.1430  0.7424  0.0228
22925SOL    HW169353   3.503   0.658   7.486 -0.9939  0.7475  0.6762
22925SOL    HW269354   3.468   0.604   7.349  0.3828  1.1967  0.1230
22926SOL     OW69355   3.831   9.486   2.590  0.8081  0.2053 -1.0360
22926SOL    HW169356   3.843   9.580   2.606 -1.7255  0.6007 -0.9152
22926SOL    HW269357   3.785   9.454   2.668  4.0305 -1.8360  0.2148
22927SOL     OW69358   8.932   1.351   3.890 -0.3367  0.3389 -0.1486
22927SOL    HW169359   8.921   1.392   3.975  0.5315 -1.9279  1.1617
22927SOL    HW269360   8.846   1.358   3.848 -0.5556  2.1889  0.5485
22928SOL     OW69361   1.711   5.943   7.013  0.2025  0.1170 -1.0585
22928SOL    HW169362   1.651   5.871   6.992  0.0277  0.0568 -0.3621
22928SOL    HW269363   1.728   5.934   7.107  1.3664  0.0836 -1.2558
22929SOL     OW69364   7.407   3.992   2.445 -0.4178  0.6374 -0.7262
22929SOL    HW169365   7.498   3.967   2.431 -0.5584 -0.5343  0.2970
22929SOL    HW269366   7.396   3.994   2.540 -1.4960  0.6102 -0.8332
22930SOL     OW69367   0.903   6.742   8.885 -0.0219  0.1135  0.6704
22930SOL    HW169368   0.809   6.762   8.893  0.0399  2.3197 -2.5515
22930SOL    HW269369   0.945   6.801   8.947 -0.6457  0.8732  0.3874
22931SOL     OW69370   3.500   5.927   0.997  1.0077 -0.2418  0.0734
22931SOL    HW169371   3.477   6.020   1.003 -0.3475 -0.5866  0.7863
22931SOL    HW269372   3.546   5.909   1.079  0.8037 -0.3043  0.1765
22932SOL     OW69373   0.899   1.332   3.856 -0.0773  0.0133 -0.3752
22932SOL    HW169374   0.883   1.268   3.787 -2.0170 -0.2171  0.2437
22932SOL    HW269375   0.816   1.377   3.868  0.6240  1.0887  0.7935
22933SOL     OW69376   5.189   1.098   3.661  0.0151  0.2164 -0.3373
22933SOL    HW169377   5.179   1.138   3.574 -0.7594  1.9515  0.4996
22933SOL    HW269378   5.264   1.143   3.699 -0.4052  0.3693  0.3377
22934SOL     OW69379   1.005   3.655   0.175  0.0335 -0.1242 -0.2351
22934SOL    HW169380   0.972   3.606   0.100  0.2638  0.8688 -1.0077
22934SOL    HW269381   1.027   3.741   0.140 -1.2284  0.8671  1.2379
22935SOL     OW69382   9.096   8.384   6.739 -0.1678  0.1476 -0.1260
22935SOL    HW169383   9.016   8.343   6.774 -1.4418  2.2526 -0.3911
22935SOL    HW269384   9.113   8.337   6.657  0.0531 -1.6218  0.8723
22936SOL     OW69385   2.160   4.695   1.749 -0.8589  0.3582 -0.3078
22936SOL    HW169386   2.205   4.624   1.706  2.0733  0.2893  2.5066
22936SOL    HW269387   2.103   4.652   1.813 -0.6393  0.5079 -0.0098
22937SOL     OW69388   2.033   9.941   5.436  0.0250  0.2105  0.2111
22937SOL    HW169389   2.080   9.915   5.515 -0.6174  3.1299  1.6756
22937SOL    HW269390   2.102   9.955   5.370  0.9496  1.4090  1.3939
22938SOL     OW69391   3.287   3.581   3.859 -0.0591  0.2180  0.3487
22938SOL    HW169392   3.344   3.509   3.885  2.4072  1.1151 -2.0052
22938SOL    HW269393   3.207   3.539   3.828  0.8115 -1.4389  0.2171
22939SOL     OW69394   4.228   1.627   1.321  0.0236 -0.1550 -0.1737
22939SOL    HW169395   4.232   1.549   1.375  0.3010 -1.2316 -1.6836
22939SOL    HW269396   4.202   1.595   1.234 -0.9322  1.5637 -0.5708
22940SOL     OW69397   6.666   6.402   2.126  0.0656  0.1040 -0.2400
22940SOL    HW169398   6.597   6.464   2.148  1.5201  1.9590 -0.6044
22940SOL    HW269399   6.667   6.400   2.030  0.1524 -0.3460 -0.2328
22941SOL     OW69400   3.288   0.775   4.699  0.2948  0.2943  0.8337
22941SOL    HW169401   3.322   0.758   4.787  0.1482 -1.7429  0.5437
22941SOL    HW269402   3.322   0.703   4.646  0.2248  1.3865 -0.7542
22942SOL     OW69403   1.438   8.774   7.816  0.2909  0.2379  0.0222
22942SOL    HW169404   1.390   8.774   7.899 -0.0486  1.0224 -0.1645
22942SOL    HW269405   1.400   8.847   7.766 -0.2775 -0.8806 -1.2690
22943SOL     OW69406   1.869   1.470   9.520 -0.1605  0.4845  0.7813
22943SOL    HW169407   1.777   1.490   9.503 -0.5522 -1.3343  0.6210
22943SOL    HW269408   1.899   1.425   9.441  0.2725 -0.7698  1.6302
22944SOL     OW69409   5.696   2.838   5.243  0.4739 -0.1541  0.2175
22944SOL    HW169410   5.693   2.836   5.147  0.4202  2.1059  0.1065
22944SOL    HW269411   5.787   2.858   5.264 -0.0114  1.9916  0.4784
22945SOL     OW69412   0.344   4.826   9.828 -0.4066  0.3820 -0.0679
22945SOL    HW169413   0.302   4.892   9.883 -0.4439  0.4414 -0.1681
22945SOL    HW269414   0.338   4.745   9.879 -1.4779  0.1877 -0.4812
22946SOL     OW69415   5.994   6.377   1.442  0.0900 -0.0758 -0.2624
22946SOL    HW169416   6.012   6.290   1.477  0.8933 -0.1555 -0.8530
22946SOL    HW269417   6.080   6.412   1.419 -0.4450 -0.4177 -3.0979
22947SOL     OW69418   2.698   2.049   9.319  0.1928  0.0860 -0.1260
22947SOL    HW169419   2.672   1.964   9.354  0.1562  0.8355  1.8053
22947SOL    HW269420   2.663   2.050   9.230 -1.5961 -1.1066  0.5024
22948SOL     OW69421   8.687   5.856   3.842 -1.0610 -0.0931  0.6931
22948SOL    HW169422   8.742   5.797   3.790  1.8980 -0.3523  3.6930
22948SOL    HW269423   8.687   5.939   3.794  2.2033 -0.0694  0.5002
22949SOL     OW69424   0.025   3.059   1.732  0.1888 -0.4112  0.6745
22949SOL    HW169425   0.056   3.134   1.782  2.5893 -1.5946  1.1480
22949SOL    HW269426  -0.070   3.070   1.727  0.4664  2.6700  0.6010
22950SOL     OW69427   7.750   5.940   5.609  0.1994  0.4740  0.1183
22950SOL    HW169428   7.659   5.952   5.583  0.3106 -0.6797 -0.8972
22950SOL    HW269429   7.793   5.905   5.531  1.3306  0.2159  0.8354
22951SOL     OW69430   7.601   0.575   5.149  0.3717 -0.0408  0.3450
22951SOL    HW169431   7.664   0.512   5.184  0.5721  0.2019  0.4266
22951SOL    HW269432   7.521   0.525   5.136  0.8304 -0.5681 -0.5908
22952SOL     OW69433   6.914   7.642   9.216  0.0442  0.7262  0.8508
22952SOL    HW169434   6.872   7.643   9.130 -1.0732 -1.7124  1.2826
22952SOL    HW269435   6.855   7.692   9.273 -2.9216 -3.1791  1.6026
22953SOL     OW69436   2.496   9.368   7.836 -0.8050 -0.3446  0.2274
22953SOL    HW169437   2.587   9.342   7.819 -0.2669  1.2301  0.5390
22953SOL    HW269438   2.452   9.358   7.752 -0.7755 -2.6764  0.4356
22954SOL     OW69439   0.786   0.372   3.700 -0.3898  0.1279  0.0831
22954SOL    HW169440   0.800   0.279   3.714  0.6574  0.1900 -0.4501
22954SOL    HW269441   0.767   0.380   3.606  0.2518  0.5192 -0.0209
22955SOL     OW69442   4.408   4.549   8.988 -0.0609  0.5322 -0.0782
22955SOL    HW169443   4.346   4.563   8.916  0.3714  0.8881 -0.3878
22955SOL    HW269444   4.413   4.453   8.996  0.2792  0.4670 -0.8830
22956SOL     OW69445   0.705   3.526   9.477  0.4540 -0.1101 -0.0898
22956SOL    HW169446   0.660   3.449   9.443 -1.0927  0.5416  0.3833
22956SOL    HW269447   0.687   3.595   9.413 -0.0259  0.3920  0.5653
22957SOL     OW69448   6.491   4.267   7.435  0.1335 -0.5145  0.1464
22957SOL    HW169449   6.429   4.217   7.383  0.8170 -0.7251 -0.4803
22957SOL    HW269450   6.443   4.289   7.515 -0.6916 -0.8007 -0.2594
22958SOL     OW69451   1.817   2.998   2.746  0.3876 -0.2058  0.1766
22958SOL    HW169452   1.727   3.009   2.716  0.6628 -0.8277 -0.9444
22958SOL    HW269453   1.842   3.084   2.780 -0.3358  0.2131 -0.3268
22959SOL     OW69454   8.097   9.502   5.547 -0.8453 -0.2224  0.1762
22959SOL    HW169455   8.112   9.451   5.627  1.4584 -0.2011 -0.1584
22959SOL    HW269456   8.170   9.564   5.544 -0.7335 -0.3862 -2.0547
22960SOL     OW69457   3.675   3.406   8.317  0.3890 -0.0687  0.3818
22960SOL    HW169458   3.746   3.471   8.315  2.3471 -2.0714  0.3235
22960SOL    HW269459   3.677   3.371   8.406  0.2667 -0.9513  0.0462
22961SOL     OW69460   8.903   4.272   0.756  0.0236  0.2943  0.1530
22961SOL    HW169461   8.913   4.242   0.847 -1.8241 -1.8352 -0.2546
22961SOL    HW269462   8.813   4.303   0.751 -0.2196 -0.5472 -1.1566
22962SOL     OW69463   9.917   3.571   8.716  0.0218 -0.5233  0.7293
22962SOL    HW169464   9.897   3.631   8.787 -0.4744 -2.7128  2.5732
22962SOL    HW269465  10.002   3.532   8.740  1.6923  1.2556 -1.7909
22963SOL     OW69466   2.380   4.741   9.753  0.0255  0.1504 -0.0081
22963SOL    HW169467   2.451   4.804   9.738  0.5942 -0.7174 -1.1458
22963SOL    HW269468   2.356   4.712   9.665 -0.5206 -0.9013  0.4788
22964SOL     OW69469   0.934   5.779   7.632  0.5408 -0.2914  0.1045
22964SOL    HW169470   0.927   5.691   7.670 -0.5845  0.6836  2.3454
22964SOL    HW269471   0.856   5.787   7.578 -0.8042  0.1931  2.0020
22965SOL     OW69472   7.319   2.705   9.426 -0.4152  0.2523  0.2893
22965SOL    HW169473   7.315   2.612   9.448  0.7147  0.2208  0.4294
22965SOL    HW269474   7.252   2.718   9.359 -1.1292 -0.4917  0.8433
22966SOL     OW69475   2.670   8.981   3.060  0.1859  0.1410 -0.0681
22966SOL    HW169476   2.611   8.913   3.029  1.8777 -0.3671 -2.4061
22966SOL    HW269477   2.731   8.936   3.118  0.7770 -0.1905 -0.9325
22967SOL     OW69478   7.603   5.239   6.352 -0.0859  0.4432  0.1467
22967SOL    HW169479   7.659   5.183   6.405 -2.3490 -0.7196  1.5032
22967SOL    HW269480   7.558   5.295   6.415 -0.4187  1.3847 -0.8832
22968SOL     OW69481   4.353   5.438   2.916 -0.0801 -0.2373  0.2387
22968SOL    HW169482   4.404   5.477   2.988 -1.9158  1.3157  0.7886
22968SOL    HW269483   4.353   5.344   2.935  3.5501 -0.5249 -0.4879
22969SOL     OW69484   4.752   9.666   2.773 -0.1031  0.4927 -0.9452
22969SOL    HW169485   4.657   9.676   2.759  0.0578 -0.0661 -2.6860
22969SOL    HW269486   4.766   9.695   2.863 -2.1613 -0.8212 -0.1197
22970SOL     OW69487   9.307   1.549   9.956 -0.5714  0.1286 -0.5298
22970SOL    HW169488   9.264   1.610   9.897  1.4075 -0.0292 -2.2077
22970SOL    HW269489   9.335   1.602  10.030 -3.4454  0.2556  0.6206
22971SOL     OW69490   5.823   4.245   2.305  0.6330 -0.2914 -0.3128
22971SOL    HW169491   5.857   4.252   2.216 -0.5515  0.1967 -0.7482
22971SOL    HW269492   5.730   4.229   2.294  0.0121  2.0430  0.7996
22972SOL     OW69493   7.721   3.551   0.338  0.1451  0.3671 -0.2807
22972SOL    HW169494   7.713   3.507   0.423  0.9091  1.2733  0.2857
22972SOL    HW269495   7.655   3.621   0.342 -1.0146 -0.6388 -1.1460
22973SOL     OW69496   9.391   8.178   5.970  0.3610 -0.1412 -0.1831
22973SOL    HW169497   9.411   8.150   5.881 -0.2000 -1.3055  0.0306
22973SOL    HW269498   9.303   8.216   5.964  0.5088  0.1988 -0.2055
22974SOL     OW69499   5.438   3.853   5.605  0.6201 -0.3010  0.0395
22974SOL    HW169500   5.445   3.941   5.642  0.0119 -0.4662  0.5752
22974SOL    HW269501   5.512   3.845   5.546  1.3838  0.1239  0.9142
22975SOL     OW69502   3.678   8.386   8.057  0.3371 -0.3118 -0.0288
22975SOL    HW169503   3.698   8.360   8.147  0.6447  0.3670  0.0980
22975SOL    HW269504   3.734   8.461   8.040 -2.4002  2.0010  0.5209
22976SOL     OW69505   6.671   1.764   5.989 -0.3246 -0.2154  0.6219
22976SOL    HW169506   6.707   1.676   5.993 -0.3053 -0.2111  0.5370
22976SOL    HW269507   6.748   1.821   5.992  0.1341 -0.2164 -4.1440
22977SOL     OW69508   3.784   9.691   4.876 -0.2628 -0.1415  0.0889
22977SOL    HW169509   3.746   9.758   4.820  0.0683 -1.3967 -1.7522
22977SOL    HW269510   3.879   9.701   4.865 -0.2068 -0.8244 -0.1357
22978SOL     OW69511   6.849   4.948   9.873  0.1893 -0.6294 -0.0746
22978SOL    HW169512   6.922   4.912   9.823 -0.7143 -0.8377 -1.2760
22978SOL    HW269513   6.779   4.883   9.864 -0.2893 -0.2441  0.7276
22979SOL     OW69514   1.443   1.420   9.689  0.4078  0.3555  0.4807
22979SOL    HW169515   1.512   1.353   9.680 -2.2441 -2.4427 -0.7724
22979SOL    HW269516   1.390   1.389   9.762  0.2317  2.3035  1.2248
22980SOL     OW69517   5.405   8.809   5.124 -0.8418 -0.0831 -0.0719
22980SOL    HW169518   5.420   8.899   5.153  0.8000 -0.3560  0.0250
22980SOL    HW269519   5.347   8.772   5.189 -0.4948  0.5318  0.6050
22981SOL     OW69520   2.371   1.820   5.727 -0.7560 -0.1715 -0.2289
22981SOL    HW169521   2.384   1.904   5.770 -0.1463  0.2039 -1.1138
22981SOL    HW269522   2.348   1.842   5.637 -0.3919 -0.9414 -0.5218
22982SOL     OW69523   7.130   8.117   0.481  0.2993  0.0961  0.5948
22982SOL    HW169524   7.054   8.065   0.454  0.2587  0.4420  0.0229
22982SOL    HW269525   7.206   8.061   0.462  0.2040 -0.1649  0.9704
22983SOL     OW69526   7.957   1.536   6.600 -0.2258 -0.3609 -0.1743
22983SOL    HW169527   7.957   1.620   6.646  0.2626  0.2523 -1.2648
22983SOL    HW269528   7.877   1.538   6.548  0.7485  0.3190 -1.7241
22984SOL     OW69529   6.055   9.394   8.627  0.0314 -0.2271 -0.1784
22984SOL    HW169530   6.101   9.311   8.617  1.0544  0.0792  1.6793
22984SOL    HW269531   5.989   9.393   8.557 -0.9506 -3.2339  0.6497
22985SOL     OW69532   6.197   7.402   1.222 -0.3101  0.4411 -0.6224
22985SOL    HW169533   6.182   7.327   1.165 -0.7834  0.5219 -0.6061
22985SOL    HW269534   6.137   7.469   1.191 -1.2081  0.1964  0.5086
22986SOL     OW69535   3.353   7.654   0.354  0.0469 -0.5260  0.0515
22986SOL    HW169536   3.322   7.564   0.362  0.5739 -0.6744  0.4571
22986SOL    HW269537   3.335   7.693   0.440 -0.2380 -0.2227 -0.1432
22987SOL     OW69538   1.816   4.608   5.308 -0.1520  0.4853 -0.2860
22987SOL    HW169539   1.893   4.609   5.251 -1.1092 -0.5610 -1.6532
22987SOL    HW269540   1.853   4.605   5.397  1.3813  0.0695 -0.8965
22988SOL     OW69541   0.554   1.924   7.321  0.1048  0.5659  0.5176
22988SOL    HW169542   0.560   1.835   7.286 -0.3442  0.6204  0.2996
22988SOL    HW269543   0.536   1.911   7.414  0.3324  0.4311  0.5465
22989SOL     OW69544   3.481   9.693   8.098  0.0013  0.0700  0.0405
22989SOL    HW169545   3.494   9.787   8.109 -0.6743  0.2156 -0.3604
22989SOL    HW269546   3.569   9.658   8.085  0.1968  0.7386 -0.5086
22990SOL     OW69547   9.929   2.605   6.936  0.5889  0.3837 -0.3166
22990SOL    HW169548   9.896   2.630   7.023  1.4643  0.7876 -0.0870
22990SOL    HW269549   9.851   2.589   6.884  0.0524  0.2519  0.5188
22991SOL     OW69550   4.405   6.731   3.551 -0.3483  0.0722 -0.6328
22991SOL    HW169551   4.337   6.675   3.587 -1.3110  0.1037 -2.3145
22991SOL    HW269552   4.458   6.673   3.496  1.1973 -0.0112  0.8487
22992SOL     OW69553   8.551   6.359   1.150 -0.1518 -0.3012  0.0758
22992SOL    HW169554   8.517   6.398   1.230 -0.7655 -1.1471  0.2403
22992SOL    HW269555   8.624   6.416   1.124 -1.0614  0.9899  0.2548
22993SOL     OW69556   2.961   2.273   4.464 -0.6616 -0.3717 -0.3764
22993SOL    HW169557   3.016   2.204   4.426  0.4753  0.0323  0.4920
22993SOL    HW269558   2.877   2.262   4.420 -0.2383 -1.7286 -0.9246
22994SOL     OW69559   4.569   8.155   0.090  0.5847  0.0175 -0.0154
22994SOL    HW169560   4.551   8.082   0.150  1.5807  0.0601  0.3412
22994SOL    HW269561   4.484   8.197   0.079 -0.4084 -2.1529 -1.5371
22995SOL     OW69562   2.222   4.564   2.850  0.0222  0.2393 -0.4122
22995SOL    HW169563   2.312   4.534   2.838 -0.6499 -2.0950 -0.1183
22995SOL    HW269564   2.206   4.620   2.774  1.5898  0.4059 -0.6635
22996SOL     OW69565   7.091   2.051   6.443  0.2883 -0.0986 -0.1909
22996SOL    HW169566   7.165   2.084   6.495  0.4746  0.1257 -0.5929
22996SOL    HW269567   7.097   2.098   6.360 -1.4608  1.4385  0.4658
22997SOL     OW69568   5.000   7.157   3.654 -0.3988  0.2919 -0.6746
22997SOL    HW169569   5.019   7.250   3.667  0.8662 -0.0260 -0.0295
22997SOL    HW269570   5.074   7.126   3.601 -0.8983 -0.3094 -1.0246
22998SOL     OW69571   1.324   7.895   2.361  0.2866 -0.1995 -0.4086
22998SOL    HW169572   1.239   7.939   2.365  0.2526 -0.3386  1.1623
22998SOL    HW269573   1.378   7.951   2.305 -0.8404 -0.1186 -1.4309
22999SOL     OW69574   3.577   2.190   0.777 -0.3504  0.0041 -0.2555
22999SOL    HW169575   3.640   2.137   0.825 -0.6500  0.3698  0.5511
22999SOL    HW269576   3.621   2.211   0.694  1.5409  2.2012  1.1904
23000SOL     OW69577   2.103   5.596   1.533  0.0353  0.1238 -0.1534
23000SOL    HW169578   2.185   5.628   1.572  1.6927 -1.8190 -1.7853
23000SOL    HW269579   2.059   5.550   1.604  1.6771 -1.0237  0.1972
23001SOL     OW69580   5.913   2.192   5.337 -0.5994 -0.2052 -0.2007
23001SOL    HW169581   5.922   2.279   5.298  1.0321 -0.6388 -0.8854
23001SOL    HW269582   5.872   2.139   5.268 -0.2942 -0.3128 -0.2988
23002SOL     OW69583   5.560   0.322   9.683 -0.4513 -0.2417 -0.9408
23002SOL    HW169584   5.606   0.250   9.728 -0.6910 -0.0621 -0.3945
23002SOL    HW269585   5.554   0.294   9.592 -0.0736 -0.6805 -0.8328
23003SOL     OW69586   3.655   5.177   8.980  0.5128  0.3706 -0.1078
23003SOL    HW169587   3.671   5.162   8.886  1.9755  0.5164  0.0959
23003SOL    HW269588   3.698   5.261   8.998  0.2280  0.3481  0.6993
23004SOL     OW69589   7.586   4.586   5.535  0.6894 -0.5861  0.1682
23004SOL    HW169590   7.548   4.513   5.582  1.3114 -0.7615  0.4135
23004SOL    HW269591   7.637   4.546   5.464 -0.8254 -0.3074 -1.1341
23005SOL     OW69592   7.127   9.881   4.324 -0.1739 -0.8040  0.2279
23005SOL    HW169593   7.171   9.813   4.375 -0.8523 -0.1676  1.7489
23005SOL    HW269594   7.046   9.898   4.372  0.4371  1.7502  0.5095
23006SOL     OW69595   6.935   0.835   6.727  0.3853  0.1390 -0.1280
23006SOL    HW169596   6.891   0.836   6.642  1.9942  0.6426 -1.0006
23006SOL    HW269597   6.982   0.918   6.731  0.4322  0.0713  1.2131
23007SOL     OW69598   5.412   0.045   2.763  0.6285 -0.3179 -0.2077
23007SOL    HW169599   5.414  -0.042   2.804 -2.2868  0.2446  1.4198
23007SOL    HW269600   5.393   0.027   2.671 -1.1897 -1.4269  0.3353
23008SOL     OW69601   7.792   3.106   5.862  0.5009  0.2656  0.6479
23008SOL    HW169602   7.766   3.015   5.876 -0.2894  0.0905 -1.4895
23008SOL    HW269603   7.888   3.105   5.863  0.4872 -0.4629  1.3213
23009SOL     OW69604   6.554   8.399   8.613 -0.3927 -0.4625 -0.1634
23009SOL    HW169605   6.537   8.385   8.706  0.9159 -0.6376  0.0688
23009SOL    HW269606   6.519   8.322   8.569  1.3471 -1.6736  0.4788
23010SOL     OW69607   8.278   2.245   7.752 -0.5218  0.1139 -0.0094
23010SOL    HW169608   8.290   2.334   7.721  0.6017 -0.0763 -0.1518
23010SOL    HW269609   8.192   2.219   7.718 -0.1483  0.5813 -1.3460
23011SOL     OW69610   4.921   1.571   2.297 -0.6070 -0.5376  0.1442
23011SOL    HW169611   4.930   1.662   2.324 -1.1708 -0.5115  0.2571
23011SOL    HW269612   5.005   1.549   2.258 -0.9187  0.4844 -1.2100
23012SOL     OW69613   2.319   6.848   9.604  0.3660 -0.0118  0.2283
23012SOL    HW169614   2.405   6.834   9.566 -0.2823  0.7574 -1.6594
23012SOL    HW269615   2.292   6.934   9.571 -0.6295  0.3084  1.7741
23013SOL     OW69616   0.700   1.083   6.444 -0.8164  0.4553  0.0094
23013SOL    HW169617   0.718   1.002   6.491 -1.9772  0.9157  1.2924
23013SOL    HW269618   0.778   1.137   6.458 -0.5235  0.0074  0.1090
23014SOL     OW69619   6.738   2.112   4.297 -0.0568 -0.0991  0.1268
23014SOL    HW169620   6.649   2.140   4.318 -0.1601 -0.6258  0.3862
23014SOL    HW269621   6.794   2.171   4.347 -0.2717 -0.2427  0.5372
23015SOL     OW69622   7.588   3.995   1.434  0.9278 -0.5568 -0.1155
23015SOL    HW169623   7.496   3.968   1.436  0.8178 -0.1694  0.2583
23015SOL    HW269624   7.626   3.946   1.361  0.4429 -0.7768 -0.2246
23016SOL     OW69625   8.768   7.226   0.375  0.8556 -0.1716  0.1474
23016SOL    HW169626   8.724   7.176   0.443 -0.3881  1.6188  0.7526
23016SOL    HW269627   8.841   7.269   0.419 -0.2019  1.3265  0.5090
23017SOL     OW69628   4.708   0.209   6.602  0.0266  0.1411 -0.3952
23017SOL    HW169629   4.724   0.201   6.508  0.2136 -0.9543 -0.2801
23017SOL    HW269630   4.757   0.137   6.642  0.6930  1.1266  0.6374
23018SOL     OW69631   5.441   9.432   4.967  0.8128  0.0954 -0.0359
23018SOL    HW169632   5.429   9.527   4.963 -0.9548 -0.1218 -0.7666
23018SOL    HW269633   5.480   9.408   4.883 -0.0886  0.0240 -0.4426
23019SOL     OW69634   2.487   2.138   3.023 -0.1354 -0.1457  0.0741
23019SOL    HW169635   2.574   2.100   3.034  0.2476  0.6859 -0.0668
23019SOL    HW269636   2.465   2.173   3.110 -0.6486 -0.9995  0.3027
23020SOL     OW69637   2.684   7.609   1.641 -0.6694  0.4218 -0.4471
23020SOL    HW169638   2.757   7.602   1.579  0.0185  0.0917  0.3726
23020SOL    HW269639   2.658   7.700   1.637 -1.0082  0.2806 -1.6361
23021SOL     OW69640   8.464   8.670   0.716 -0.9078 -0.2436 -0.2778
23021SOL    HW169641   8.527   8.725   0.763 -1.7369 -0.2691  0.8839
23021SOL    HW269642   8.507   8.584   0.711  1.0879  0.7501 -3.4656
23022SOL     OW69643   5.529   9.213   2.094 -0.4029  0.4404  0.0247
23022SOL    HW169644   5.529   9.123   2.061 -2.3550  1.1074 -1.9891
23022SOL    HW269645   5.562   9.265   2.021  0.5077  1.4462  1.0996
23023SOL     OW69646   5.548   8.709   6.996  0.1981 -0.7247 -0.3316
23023SOL    HW169647   5.583   8.769   7.062  1.8505 -1.3588 -0.5937
23023SOL    HW269648   5.587   8.625   7.017 -1.3085 -1.5314 -0.5798
23024SOL     OW69649   6.427   9.539   7.278  0.1850 -0.4798 -0.0204
23024SOL    HW169650   6.406   9.604   7.210 -0.0235  0.0304  0.5204
23024SOL    HW269651   6.413   9.586   7.360 -0.1159 -1.2649  0.3824
23025SOL     OW69652   7.445   0.261   0.221  0.0805 -0.6463 -0.7303
23025SOL    HW169653   7.397   0.188   0.182  1.4604 -2.5057  0.8523
23025SOL    HW269654   7.537   0.242   0.202  0.4859  0.5157 -0.0148
23026SOL     OW69655   6.857   5.307   2.152  0.4655 -0.4756  0.1815
23026SOL    HW169656   6.862   5.400   2.173 -1.6214  0.1484 -1.5997
23026SOL    HW269657   6.824   5.265   2.231  0.8915  0.3788  0.8216
23027SOL     OW69658   5.867   7.532   9.405  0.5655 -0.1315 -0.5115
23027SOL    HW169659   5.788   7.495   9.365 -0.1390  0.2620  0.4844
23027SOL    HW269660   5.837   7.610   9.452  1.4438 -0.2634  0.3142
23028SOL     OW69661   7.500   5.624   3.030  0.2864  0.7462  0.3423
23028SOL    HW169662   7.490   5.606   3.123  2.1762  1.0149  0.6400
23028SOL    HW269663   7.586   5.588   3.007 -0.5905 -0.2623 -1.5627
23029SOL     OW69664   4.681   9.625   5.438 -0.8105 -0.0055  0.7064
23029SOL    HW169665   4.643   9.569   5.371 -0.3147 -1.1481  1.3459
23029SOL    HW269666   4.655   9.713   5.414 -2.5336 -0.6023  0.2714
23030SOL     OW69667   3.038   8.743   1.398  0.3733  0.6462  0.4526
23030SOL    HW169668   2.972   8.690   1.443 -1.0369  0.4937 -1.6675
23030SOL    HW269669   3.122   8.707   1.428 -0.5266 -1.0177  1.0884
23031SOL     OW69670   5.863   8.888   0.544  0.0826 -0.4053 -0.6236
23031SOL    HW169671   5.895   8.936   0.620 -0.4543 -0.2606 -0.4821
23031SOL    HW269672   5.890   8.797   0.560 -0.8480 -0.5450  0.2093
23032SOL     OW69673   3.686   3.343   2.179 -0.3869 -0.2315  0.1941
23032SOL    HW169674   3.603   3.358   2.224  0.6351  0.9070  1.8381
23032SOL    HW269675   3.728   3.273   2.229 -0.2596 -0.6508 -0.4913
23033SOL     OW69676   6.451   8.015   9.395  0.2785 -0.3133  0.3351
23033SOL    HW169677   6.510   8.046   9.464  0.6253 -0.2692  0.0250
23033SOL    HW269678   6.510   7.978   9.328 -0.0616 -0.5135  0.1426
23034SOL     OW69679   1.621   6.439   4.943  0.1218  0.0799 -0.3045
23034SOL    HW169680   1.646   6.530   4.925  1.0304 -0.0610  0.2089
23034SOL    HW269681   1.659   6.389   4.871 -0.1735  0.0668 -0.4558
23035SOL     OW69682   6.544   4.029   7.578 -0.6462  0.0685  0.7678
23035SOL    HW169683   6.525   4.076   7.497  3.2123 -1.6193 -1.4181
23035SOL    HW269684   6.599   4.089   7.628  0.3938 -0.3111  0.1291
23036SOL     OW69685   1.696   8.020   2.780 -0.0601  0.1290  0.2329
23036SOL    HW169686   1.775   8.035   2.728 -1.1075  1.1873 -1.1313
23036SOL    HW269687   1.649   7.950   2.734 -0.4433  0.2754  0.3953
23037SOL     OW69688   3.922   8.298   2.277  0.7929 -0.4272 -0.2372
23037SOL    HW169689   3.968   8.379   2.302  1.0625  0.1078 -2.2145
23037SOL    HW269690   3.963   8.273   2.193 -1.4260 -0.8199 -1.2756
23038SOL     OW69691   5.467   6.456   6.328 -0.6361  0.0384  0.8232
23038SOL    HW169692   5.494   6.364   6.333 -0.0123  0.0957 -0.8488
23038SOL    HW269693   5.454   6.482   6.420  2.2162 -0.8275  1.5749
23039SOL     OW69694   4.850   5.097   8.833 -0.4112  0.8971 -0.0224
23039SOL    HW169695   4.929   5.090   8.780 -0.5153 -2.4200  0.0395
23039SOL    HW269696   4.780   5.063   8.777 -0.7499 -1.4630  1.6362
23040SOL     OW69697   4.494   9.197   2.885  0.0499 -0.3407  0.2717
23040SOL    HW169698   4.561   9.129   2.885  1.4430  0.9746  0.6874
23040SOL    HW269699   4.473   9.209   2.793  0.0305 -1.0813  0.1698
23041SOL     OW69700   9.333   1.513   4.322 -0.0695 -0.3447 -0.6341
23041SOL    HW169701   9.355   1.441   4.381  0.6425  0.9205  0.7206
23041SOL    HW269702   9.237   1.521   4.329 -0.0285 -0.4170  0.1237
23042SOL     OW69703   2.451   1.920   1.652 -0.2302  0.1079 -0.1366
23042SOL    HW169704   2.453   1.919   1.747 -0.4904 -0.0808 -0.1292
23042SOL    HW269705   2.484   2.006   1.627 -1.4106  0.6760  0.1651
23043SOL     OW69706   9.531   2.825   7.049 -0.0283  0.5314  0.2968
23043SOL    HW169707   9.519   2.856   7.139 -3.4377 -0.9388  0.4825
23043SOL    HW269708   9.483   2.887   6.995 -1.1590 -0.6032 -0.0518
23044SOL     OW69709   3.915   3.809   6.640 -0.0380  0.5379  0.0912
23044SOL    HW169710   3.998   3.844   6.674 -0.5583  0.8699  1.0746
23044SOL    HW269711   3.939   3.760   6.562  1.1667  0.1426  0.6874
23045SOL     OW69712   8.587   6.383   3.397  0.0871  0.4671 -0.0062
23045SOL    HW169713   8.668   6.399   3.349  0.4510 -0.0007  0.4281
23045SOL    HW269714   8.572   6.289   3.387  0.9193  0.0882  1.9066
23046SOL     OW69715   1.733   5.054   0.705  0.2435 -0.0220  0.0042
23046SOL    HW169716   1.739   4.993   0.632 -1.3242  0.0751 -0.2410
23046SOL    HW269717   1.773   5.007   0.779 -0.4939 -1.1571 -0.2994
23047SOL     OW69718   0.233   7.232   8.702  0.0119  0.0239 -0.3087
23047SOL    HW169719   0.230   7.195   8.790 -1.1581  0.4881 -0.1416
23047SOL    HW269720   0.291   7.308   8.710  0.5984 -0.4289 -0.1460
23048SOL     OW69721   1.692   3.362   9.374  0.3287 -0.8020 -0.0001
23048SOL    HW169722   1.742   3.286   9.405  0.5673 -0.5480  0.2468
23048SOL    HW269723   1.629   3.379   9.444  1.4576  0.3268  0.8077
23049SOL     OW69724   9.391   0.698   3.514 -0.1103 -0.0659 -0.0871
23049SOL    HW169725   9.473   0.683   3.465  0.0421 -0.3903  0.2676
23049SOL    HW269726   9.330   0.635   3.477 -0.8636  1.6142 -1.8801
23050SOL     OW69727   8.850   3.351   5.172  0.2954  0.3566  0.1454
23050SOL    HW169728   8.779   3.408   5.144 -0.7460 -1.1196 -0.3984
23050SOL    HW269729   8.812   3.298   5.242  0.6353 -0.8942 -0.5842
23051SOL     OW69730   4.659   9.462   4.359  0.4025 -0.1221 -0.2698
23051SOL    HW169731   4.571   9.499   4.363  1.2406  1.9611  0.7333
23051SOL    HW269732   4.713   9.523   4.410  2.1953 -2.0487  0.2697
23052SOL     OW69733   6.758   2.326   8.325  0.3822 -0.1250  0.0011
23052SOL    HW169734   6.753   2.351   8.232 -0.8442 -0.3791 -0.0194
23052SOL    HW269735   6.836   2.272   8.330  0.8075  0.3904 -0.7662
23053SOL     OW69736   8.535   1.993   0.087 -0.1061 -0.5071  0.4619
23053SOL    HW169737   8.566   1.933   0.155  0.9641  0.0966  0.5351
23053SOL    HW269738   8.461   2.038   0.126 -0.1563 -0.9186  0.8480
23054SOL     OW69739   1.044   2.503   2.612  0.1574 -0.1538  0.1486
23054SOL    HW169740   1.133   2.482   2.639  1.0179  2.6858 -0.1486
23054SOL    HW269741   0.989   2.475   2.685  1.6233  0.6853  1.6174
23055SOL     OW69742   5.536   5.738   7.324 -0.2561 -0.7984 -0.2849
23055SOL    HW169743   5.569   5.729   7.234 -0.7452  1.1947 -0.7122
23055SOL    HW269744   5.441   5.738   7.315 -0.3381 -1.6878  0.3941
23056SOL     OW69745   5.979   1.805   0.726  0.3961  0.3144  0.2023
23056SOL    HW169746   5.913   1.848   0.670  0.3721  1.1365  0.8401
23056SOL    HW269747   6.006   1.873   0.787 -0.0539 -0.7483  1.6258
23057SOL     OW69748   2.696   3.587   2.326 -0.4850  0.0520 -0.1488
23057SOL    HW169749   2.696   3.652   2.256 -0.2075  2.9362  2.2778
23057SOL    HW269750   2.604   3.563   2.337 -0.6654  0.4374 -0.7783
23058SOL     OW69751   1.849   8.759   4.493 -0.0245 -0.0898 -0.4475
23058SOL    HW169752   1.786   8.691   4.467  0.6940 -0.6741 -0.6994
23058SOL    HW269753   1.873   8.802   4.411 -0.0376  0.0739 -0.3641
23059SOL     OW69754   9.624   4.689   1.071  0.4476 -0.3991  0.0156
23059SOL    HW169755   9.611   4.627   1.143 -0.7783 -1.0423 -0.7335
23059SOL    HW269756   9.661   4.766   1.113  0.5013 -1.0491  1.2185
23060SOL     OW69757   8.552   4.940   2.170 -0.1392  0.6321 -0.1333
23060SOL    HW169758   8.521   4.964   2.258 -0.2711  1.0351 -0.2880
23060SOL    HW269759   8.473   4.939   2.116  0.1117  1.7575 -0.5507
23061SOL     OW69760   6.844   6.222   7.664  0.1355 -0.4132 -0.2394
23061SOL    HW169761   6.904   6.246   7.735 -1.1494 -1.1962  1.1690
23061SOL    HW269762   6.757   6.231   7.702 -0.6865  0.7176 -2.2423
23062SOL     OW69763   6.726   7.546   0.681  0.3351 -0.6897  0.2667
23062SOL    HW169764   6.768   7.460   0.686 -0.3097 -0.9926  0.4820
23062SOL    HW269765   6.783   7.603   0.732 -0.3225 -1.4330  1.8990
23063SOL     OW69766   7.840   5.083   8.695  0.4146  0.2395 -0.8695
23063SOL    HW169767   7.914   5.041   8.652 -1.4685 -3.7626 -0.6297
23063SOL    HW269768   7.872   5.103   8.783  1.3082 -1.2856 -0.8100
23064SOL     OW69769   6.386   2.208   2.979  0.5287 -0.0481 -0.1342
23064SOL    HW169770   6.305   2.166   3.006  0.1204  0.6094 -0.3115
23064SOL    HW269771   6.366   2.302   2.980  0.7912  0.0500 -1.7491
23065SOL     OW69772   8.596   9.277   9.642 -0.4317 -0.1260  0.2572
23065SOL    HW169773   8.645   9.202   9.609 -1.2013  0.1610 -1.6399
23065SOL    HW269774   8.514   9.239   9.674  0.0931 -0.3393  1.3871
23066SOL     OW69775   5.980   1.919   5.775  0.0293  0.0991  0.2786
23066SOL    HW169776   5.999   1.971   5.697 -2.7199  0.4450 -0.2771
23066SOL    HW269777   5.984   1.982   5.847 -0.7886  0.5601 -0.0620
23067SOL     OW69778   0.310   2.736   7.872 -0.1758 -0.8241 -0.6459
23067SOL    HW169779   0.226   2.707   7.908 -0.1312 -0.7280 -0.4645
23067SOL    HW269780   0.308   2.707   7.781 -0.4316 -0.7719 -0.6581
23068SOL     OW69781   4.661   9.092   1.080  0.4429 -0.4323 -0.2975
23068SOL    HW169782   4.683   9.180   1.051 -0.5172 -0.5362 -1.4158
23068SOL    HW269783   4.712   9.034   1.023  1.8480 -0.6245  1.0874
23069SOL     OW69784   6.201   1.666   5.465 -0.7713 -0.0435  0.0127
23069SOL    HW169785   6.170   1.603   5.400 -1.7049  2.8313 -2.6062
23069SOL    HW269786   6.132   1.733   5.468  0.0132  0.7723  2.8422
23070SOL     OW69787   2.697   3.779   4.219 -0.0710 -0.0446 -0.1279
23070SOL    HW169788   2.738   3.800   4.303 -0.7134  0.9207 -0.0369
23070SOL    HW269789   2.719   3.852   4.162  0.7608 -0.9277 -0.9618
23071SOL     OW69790   1.627   8.023   6.072 -0.0167  0.0929  0.3604
23071SOL    HW169791   1.712   8.057   6.099  0.5092 -0.3117 -0.7596
23071SOL    HW269792   1.633   7.928   6.084 -0.1754  0.0238 -0.0745
23072SOL     OW69793   4.905   2.684   9.258 -0.1589 -0.7437 -0.0610
23072SOL    HW169794   4.861   2.717   9.336 -3.3608 -1.7943 -1.2547
23072SOL    HW269795   4.943   2.762   9.217  0.1881  0.0386  1.6850
23073SOL     OW69796   6.538   0.026   6.733 -0.1848 -0.3874  0.6032
23073SOL    HW169797   6.592   0.053   6.658 -1.4590  3.4919  0.8405
23073SOL    HW269798   6.592   0.048   6.809  0.1104 -1.9646  0.8755
23074SOL     OW69799   7.788   9.474   3.590  0.2753  0.0305  0.0575
23074SOL    HW169800   7.770   9.455   3.682  0.4938  0.7393  0.2519
23074SOL    HW269801   7.807   9.568   3.588  1.2361 -0.1576 -0.5475
23075SOL     OW69802   8.019   2.850   5.094 -0.2622 -0.1646  0.0628
23075SOL    HW169803   8.038   2.937   5.131 -0.4270  0.6102 -1.5834
23075SOL    HW269804   7.924   2.842   5.102 -0.3936  0.3369 -0.8355
23076SOL     OW69805   0.114   5.330   3.590  0.1527  0.6016 -0.6486
23076SOL    HW169806   0.081   5.418   3.571  1.9994  1.6438  0.6042
23076SOL    HW269807   0.036   5.276   3.601 -1.0305  2.1325 -1.2679
23077SOL     OW69808   2.744   1.956   4.570  0.7426  0.2953  0.4555
23077SOL    HW169809   2.831   1.984   4.599  1.2407 -0.4701 -0.2553
23077SOL    HW269810   2.758   1.923   4.481 -0.1613 -0.4315  0.5718
23078SOL     OW69811   3.432   7.603   9.353 -0.6288  0.0443 -0.1825
23078SOL    HW169812   3.348   7.649   9.349 -1.5943 -1.5685  0.4249
23078SOL    HW269813   3.470   7.614   9.267 -1.9186  0.0236 -0.7800
23079SOL     OW69814   7.681   4.617   3.185  0.2783 -0.5327  0.2548
23079SOL    HW169815   7.623   4.606   3.109 -1.3466 -2.0886  1.6212
23079SOL    HW269816   7.714   4.529   3.202  0.3872 -0.2625  1.5129
23080SOL     OW69817   6.628   6.901   9.038  0.2683 -0.3794  0.1900
23080SOL    HW169818   6.537   6.932   9.046  1.3045  2.6004  2.3369
23080SOL    HW269819   6.633   6.825   9.095 -0.7858 -0.3075  0.4019
23081SOL     OW69820   9.674   9.434   3.451 -0.1709  0.4336  0.2726
23081SOL    HW169821   9.663   9.339   3.446  0.3604  0.4010 -0.4076
23081SOL    HW269822   9.646   9.465   3.365  1.9308  0.6468 -0.3905
23082SOL     OW69823   7.034   6.939   5.161 -0.0976  0.3453 -0.3250
23082SOL    HW169824   6.955   6.965   5.210 -0.1309  0.0346 -0.2127
23082SOL    HW269825   7.091   6.900   5.227 -0.5199 -0.9169 -0.6878
23083SOL     OW69826   5.401   0.364   0.236  0.3178 -0.1151  0.5090
23083SOL    HW169827   5.373   0.290   0.182  2.2793 -0.6894  0.2187
23083SOL    HW269828   5.399   0.439   0.176  0.0008 -0.2567  0.3392
23084SOL     OW69829   4.473   7.849   3.503  0.4685  0.2819 -0.0225
23084SOL    HW169830   4.441   7.847   3.413 -3.2680 -1.1658  1.1555
23084SOL    HW269831   4.438   7.931   3.539 -0.3155 -0.3826  0.7715
23085SOL     OW69832   9.215   7.908   6.008 -0.1904 -0.0038 -0.0558
23085SOL    HW169833   9.256   7.973   6.066 -0.4889  0.7121 -0.6224
23085SOL    HW269834   9.150   7.959   5.958 -0.0476 -0.6375 -0.9011
23086SOL     OW69835   8.927   0.871   6.251  0.1301  0.6099  0.3026
23086SOL    HW169836   8.988   0.839   6.318  0.9921  0.9214 -0.3108
23086SOL    HW269837   8.843   0.877   6.296  0.6574  0.6774  1.3177
23087SOL     OW69838   4.721   4.289   4.792  0.4574  0.3525  0.4494
23087SOL    HW169839   4.719   4.372   4.744 -0.3560  1.1136  1.7244
23087SOL    HW269840   4.646   4.294   4.852  0.5187 -1.2230  0.7046
23088SOL     OW69841   2.678   8.103   8.242 -0.1340  0.3699 -0.3038
23088SOL    HW169842   2.743   8.062   8.185 -0.6788 -0.2855 -0.4597
23088SOL    HW269843   2.717   8.188   8.265 -0.4248  1.2166 -2.6563
23089SOL     OW69844   7.221   8.952   9.372 -0.6702  0.2264 -0.1800
23089SOL    HW169845   7.278   8.933   9.447  0.1465  1.7502 -0.3703
23089SOL    HW269846   7.277   8.937   9.295 -1.4940 -1.2939 -0.5239
23090SOL     OW69847   4.120   4.901   0.236 -0.0749 -0.6548  0.0394
23090SOL    HW169848   4.071   4.819   0.226  1.8760 -1.8456 -0.2682
23090SOL    HW269849   4.055   4.964   0.267 -1.7291 -2.1996 -0.1082
23091SOL     OW69850   3.224   6.187   2.122  0.9397 -0.2751 -0.2180
23091SOL    HW169851   3.176   6.110   2.154  0.8295 -0.3071 -0.4581
23091SOL    HW269852   3.306   6.151   2.087  1.3142 -0.1808  0.5414
23092SOL     OW69853   8.667   1.404   5.538 -0.3953  0.3345 -0.4811
23092SOL    HW169854   8.584   1.360   5.519  0.9086 -2.3447 -0.4971
23092SOL    HW269855   8.696   1.437   5.453 -0.3374 -0.8728 -0.9573
23093SOL     OW69856   5.749   2.690   4.019 -0.4477 -0.1864 -0.3701
23093SOL    HW169857   5.741   2.753   4.091 -2.2241 -1.7852  0.9557
23093SOL    HW269858   5.659   2.671   3.994  0.1244 -0.5338 -2.2803
23094SOL     OW69859   4.366   7.642   0.089  0.1899  0.3846 -0.1512
23094SOL    HW169860   4.401   7.727   0.061 -0.2276  0.6834  0.2236
23094SOL    HW269861   4.428   7.611   0.155  0.4202  0.3302 -0.3902
23095SOL     OW69862   8.902   8.722   7.840 -0.3616 -0.1786  0.0558
23095SOL    HW169863   8.848   8.692   7.913  1.0181 -1.1988  0.7215
23095SOL    HW269864   8.948   8.798   7.875 -0.9612  0.3718 -0.3346
23096SOL     OW69865   6.239   0.094   8.102  0.2333  0.3475 -0.5292
23096SOL    HW169866   6.205   0.008   8.123  0.6401  0.6616  1.7336
23096SOL    HW269867   6.164   0.153   8.109  0.1611  0.3097 -1.0068
23097SOL     OW69868   6.172   1.354   3.530  0.2965  0.0925 -0.2664
23097SOL    HW169869   6.123   1.402   3.597  1.9242  0.8865  0.4151
23097SOL    HW269870   6.208   1.279   3.576  0.5684  0.0792 -0.4981
23098SOL     OW69871   8.184   9.542   8.225  0.0473 -0.0008  0.0821
23098SOL    HW169872   8.093   9.557   8.197 -0.1994 -1.5544 -0.0437
23098SOL    HW269873   8.197   9.447   8.213  1.4090  0.0618  0.9175
23099SOL     OW69874   2.443   6.906   0.796  0.1266  0.0438  0.0811
23099SOL    HW169875   2.485   6.873   0.716 -0.5826 -1.1995  0.1964
23099SOL    HW269876   2.379   6.969   0.765  0.0417 -0.2323 -0.3238
23100SOL     OW69877   0.516   0.600   8.955  0.3224  0.1035  0.4944
23100SOL    HW169878   0.468   0.631   9.032  0.7830  3.3924 -0.3569
23100SOL    HW269879   0.601   0.572   8.988 -0.4998 -1.3891  1.4627
23101SOL     OW69880   0.074   8.868   1.509  0.0084  0.0955 -0.1559
23101SOL    HW169881   0.054   8.845   1.418 -0.3226  2.5254 -0.7707
23101SOL    HW269882  -0.011   8.871   1.552 -0.0203  0.7228 -0.2457
23102SOL     OW69883   8.769   3.103   1.798 -0.2627  0.2053  0.0150
23102SOL    HW169884   8.830   3.174   1.816 -0.2000 -0.0861  1.0083
23102SOL    HW269885   8.720   3.092   1.880  1.5376 -2.6671  0.8717
23103SOL     OW69886   0.296   0.092   6.987 -0.7299 -0.1038 -0.0734
23103SOL    HW169887   0.362   0.127   6.927  0.2205 -1.4212  0.1652
23103SOL    HW269888   0.240   0.167   7.007  0.2270  0.8629 -0.8928
23104SOL     OW69889   1.344   9.052   6.993 -0.0698  0.4412  0.1872
23104SOL    HW169890   1.381   9.049   7.081 -1.6333 -0.5776  0.8577
23104SOL    HW269891   1.341   9.145   6.972  3.6275  0.5834 -0.3175
23105SOL     OW69892   9.278   8.928   5.260  1.1301 -0.1913  0.4720
23105SOL    HW169893   9.333   8.867   5.308  1.6866  0.0491  0.1630
23105SOL    HW269894   9.307   8.920   5.169  0.5209 -0.1955  0.2730
23106SOL     OW69895   3.842   7.997   4.419 -0.2045 -0.6046  0.5283
23106SOL    HW169896   3.935   7.989   4.394 -0.3769  1.5070 -1.0709
23106SOL    HW269897   3.796   7.947   4.352 -0.4520  2.3160 -1.6369
23107SOL     OW69898   9.341   7.454   4.140 -0.0729  0.0224 -0.1793
23107SOL    HW169899   9.401   7.398   4.090 -0.0693  0.5091 -0.7347
23107SOL    HW269900   9.389   7.536   4.152 -0.5244  0.3230 -0.3987
23108SOL     OW69901   9.821   9.739   3.689  0.0610 -0.3199 -0.0024
23108SOL    HW169902   9.869   9.791   3.624  0.0971 -1.2953 -0.7792
23108SOL    HW269903   9.732   9.734   3.655 -0.5824  1.2588  1.3017
23109SOL     OW69904   3.304   3.465   4.693 -0.6621  0.1167  0.4691
23109SOL    HW169905   3.210   3.475   4.677 -0.6494  0.6379  0.7282
23109SOL    HW269906   3.342   3.462   4.605 -0.7116  1.8899  0.3625
23110SOL     OW69907   1.225   2.871   6.807 -0.5541  0.0405 -0.2629
23110SOL    HW169908   1.242   2.944   6.867  0.8231 -2.0529  2.1249
23110SOL    HW269909   1.150   2.898   6.756 -0.2604  2.9982  0.6974
23111SOL     OW69910   8.350   2.196   3.049  0.8960  0.4242 -0.8436
23111SOL    HW169911   8.414   2.134   3.013  0.3707 -0.8565  0.3595
23111SOL    HW269912   8.398   2.278   3.056  1.0612  0.8225 -4.3950
23112SOL     OW69913   1.182   7.819   1.354  0.2563 -0.3954 -0.5273
23112SOL    HW169914   1.158   7.773   1.435  1.1528 -1.7036 -0.9742
23112SOL    HW269915   1.136   7.903   1.360  0.5245 -0.3437  1.4713
23113SOL     OW69916   6.899   4.063   7.105  0.0247  0.0231 -0.7750
23113SOL    HW169917   6.981   4.072   7.153 -1.1766 -2.3633  2.0446
23113SOL    HW269918   6.926   4.043   7.015  2.4196  1.5759 -0.5122
23114SOL     OW69919   1.250   0.775   2.378 -0.0053  0.3210  0.0905
23114SOL    HW169920   1.317   0.755   2.313  1.6326  1.7895  1.2312
23114SOL    HW269921   1.276   0.860   2.414 -1.5701  0.1541  1.7696
23115SOL     OW69922   8.063   0.425   7.728  0.2488  0.1297 -0.6379
23115SOL    HW169923   8.081   0.478   7.650  0.2624  0.3462 -0.4891
23115SOL    HW269924   7.979   0.383   7.709  0.5869 -0.3686 -1.0593
23116SOL     OW69925   8.687   1.146   6.206 -0.1018 -0.6165  0.1557
23116SOL    HW169926   8.633   1.069   6.189  0.5167 -0.9320 -0.3833
23116SOL    HW269927   8.768   1.112   6.243  0.7243 -0.3537 -1.3468
23117SOL     OW69928   8.401   3.078   8.795 -0.0074 -0.6522  0.1987
23117SOL    HW169929   8.361   3.079   8.709  0.8593 -1.3499 -0.2365
23117SOL    HW269930   8.342   3.129   8.850  0.1936  1.1492 -1.1414
23118SOL     OW69931   7.614   0.561   6.985  0.0805 -0.1066  0.1467
23118SOL    HW169932   7.644   0.635   6.933 -0.3682 -1.0513 -1.5357
23118SOL    HW269933   7.679   0.493   6.970 -0.7266 -0.8167 -0.2419
23119SOL     OW69934   9.538   5.448   9.417  0.7832 -0.0113  0.3941
23119SOL    HW169935   9.570   5.450   9.507  1.8248 -0.1057  0.0366
23119SOL    HW269936   9.469   5.381   9.417  0.9412 -0.1749  1.0604
23120SOL     OW69937   5.129   1.900   4.989 -0.0052  0.2683  1.0266
23120SOL    HW169938   5.122   1.994   4.976 -0.0826  0.1195 -0.0873
23120SOL    HW269939   5.151   1.890   5.082  0.8315  1.4054  0.9625
23121SOL     OW69940   1.403   2.571   9.754  0.1028 -0.4626  0.6530
23121SOL    HW169941   1.420   2.478   9.771 -1.5281 -0.8929  0.1151
23121SOL    HW269942   1.339   2.596   9.821 -1.7367 -0.5601 -0.9715
23122SOL     OW69943   6.768   4.643   2.567  0.6268 -0.2027 -0.2630
23122SOL    HW169944   6.805   4.727   2.539  1.5820 -0.5521 -0.0583
23122SOL    HW269945   6.843   4.592   2.598 -0.1256 -0.6417  0.8794
23123SOL     OW69946   1.387   2.732   0.695  0.5253 -0.2111 -0.2828
23123SOL    HW169947   1.408   2.820   0.726  0.9946  0.1750 -1.6488
23123SOL    HW269948   1.296   2.738   0.664  0.1895 -0.4985  0.6090
23124SOL     OW69949   4.651   7.128   0.052 -0.3198 -0.2095  0.3031
23124SOL    HW169950   4.712   7.080  -0.004 -0.5123  0.1424 -0.2226
23124SOL    HW269951   4.702   7.151   0.129  0.7203  1.5024 -0.8324
23125SOL     OW69952   0.602   7.771   5.872 -0.0311  0.2835  0.6157
23125SOL    HW169953   0.523   7.719   5.885 -1.3715  1.9628 -0.4180
23125SOL    HW269954   0.586   7.852   5.920 -0.3661  1.9688 -2.1209
23126SOL     OW69955   7.985   1.320   5.166 -0.4059  0.1409 -0.5804
23126SOL    HW169956   8.044   1.319   5.090  1.1416 -1.2900  0.5496
23126SOL    HW269957   7.903   1.283   5.132  0.0970 -0.0457 -1.6667
23127SOL     OW69958   7.570   7.907   7.313  0.4979 -0.1063  0.6082
23127SOL    HW169959   7.632   7.977   7.292  1.0555 -0.1639  1.9172
23127SOL    HW269960   7.613   7.827   7.284  0.3847 -0.0146  0.1847
23128SOL     OW69961   4.624   1.644   5.820  0.0641  0.1634 -0.0205
23128SOL    HW169962   4.634   1.573   5.884 -0.5408 -0.1401 -0.2619
23128SOL    HW269963   4.713   1.659   5.788  0.2254 -0.3600  0.1690
23129SOL     OW69964   6.059   0.527   6.369 -0.0968 -0.6488  0.2542
23129SOL    HW169965   6.118   0.592   6.330  2.3766 -2.7932  0.1169
23129SOL    HW269966   6.016   0.574   6.441  0.4663  1.4914 -0.7253
23130SOL     OW69967   0.755   5.340   7.327 -0.5302 -0.0710 -0.6786
23130SOL    HW169968   0.766   5.435   7.322  1.1871 -0.3106 -2.4880
23130SOL    HW269969   0.691   5.319   7.259 -3.5836  0.0260  1.9087
23131SOL     OW69970   8.701   0.293   4.116  0.2198  0.9784 -0.2610
23131SOL    HW169971   8.697   0.287   4.021  0.8638 -0.8199 -0.2186
23131SOL    HW269972   8.793   0.313   4.135  0.1241  1.1909 -0.0262
23132SOL     OW69973   0.676   1.510   9.400 -0.1806 -0.1282 -0.2776
23132SOL    HW169974   0.683   1.427   9.352  0.7734 -0.4622  0.4070
23132SOL    HW269975   0.763   1.550   9.391 -0.9436  1.3571 -1.5550
23133SOL     OW69976   9.529   0.609   9.768 -0.8193  0.3652  0.6830
23133SOL    HW169977   9.608   0.660   9.785 -1.0032  0.8715  0.0581
23133SOL    HW269978   9.476   0.665   9.711  0.5688 -1.7976 -3.1896
23134SOL     OW69979   2.314   8.274   0.545  0.1070 -0.6168 -0.2317
23134SOL    HW169980   2.259   8.249   0.470 -1.1573  1.1616  0.0314
23134SOL    HW269981   2.264   8.343   0.588  3.1732  2.1522 -0.7912
23135SOL     OW69982   5.873   7.844   5.142  0.1551 -0.2219 -0.3377
23135SOL    HW169983   5.781   7.866   5.160 -0.3161 -1.7289 -0.6809
23135SOL    HW269984   5.888   7.765   5.195  1.1031 -0.2578 -0.6534
23136SOL     OW69985   0.374   3.345   2.806  0.1490  0.4244  0.3984
23136SOL    HW169986   0.366   3.365   2.713 -0.0489 -1.4649 -0.0340
23136SOL    HW269987   0.405   3.427   2.846 -1.5216  1.8426 -1.0258
23137SOL     OW69988   2.574   4.977   5.891 -0.0871 -0.5245  0.5968
23137SOL    HW169989   2.578   5.064   5.929  2.1654 -0.5526  0.5837
23137SOL    HW269990   2.597   4.989   5.799  2.7050 -1.2901  1.0813
23138SOL     OW69991   5.610   1.091   7.109 -0.2408 -0.1829 -0.3474
23138SOL    HW169992   5.602   1.163   7.171  0.8902  0.7920 -1.2844
23138SOL    HW269993   5.691   1.047   7.133  0.6080  0.6664 -1.5712
23139SOL     OW69994   3.094   6.342   2.329 -0.4249 -0.1143 -0.1908
23139SOL    HW169995   3.153   6.303   2.264  0.4453 -2.1935  1.6981
23139SOL    HW269996   3.010   6.298   2.314 -0.1666 -0.7562  0.2171
23140SOL     OW69997   8.122   8.903   3.471  0.1626  0.2999  0.0874
23140SOL    HW169998   8.089   8.816   3.494  0.1231 -0.1078 -1.4173
23140SOL    HW269999   8.047   8.961   3.484  0.1433  0.0947  0.9447
23141SOL     OW70000   7.477   3.670   0.304  0.2482  0.5857  0.0568
23141SOL    HW170001   7.416   3.598   0.287  0.5079  0.1309  0.9955
23141SOL    HW270002   7.430   3.726   0.367  0.6763  0.3811  0.5661
23142SOL     OW70003   2.933   2.464   5.780 -0.0391 -0.0283  0.1263
23142SOL    HW170004   3.008   2.507   5.738  1.1127 -2.1216 -0.1313
23142SOL    HW270005   2.858   2.486   5.725  0.4597  1.6530  0.0628
23143SOL     OW70006   9.302   7.549   6.907  0.0190 -0.3600  0.0221
23143SOL    HW170007   9.273   7.602   6.982  2.1736 -1.5014  1.7623
23143SOL    HW270008   9.391   7.579   6.889  0.5067 -1.9335 -0.3304
23144SOL     OW70009   1.502   6.429   6.978  0.3142  0.3821  0.0437
23144SOL    HW170010   1.568   6.374   6.935  0.5042 -0.0410  0.8413
23144SOL    HW270011   1.476   6.379   7.055  0.5726  1.4552  0.8543
23145SOL     OW70012   3.396   5.329   2.895  0.2761  0.5757 -0.5058
23145SOL    HW170013   3.344   5.407   2.876 -0.4098  0.2201 -0.1261
23145SOL    HW270014   3.431   5.302   2.810  0.7784  1.4713 -0.5919
23146SOL     OW70015   9.125   5.225   8.766  0.1939  0.2355 -0.7292
23146SOL    HW170016   9.051   5.286   8.767  0.4639  0.6019  1.1336
23146SOL    HW270017   9.200   5.278   8.795  0.6444 -0.7307 -0.0793
23147SOL     OW70018   6.568   3.144   0.428  0.0145  0.1363  0.1257
23147SOL    HW170019   6.642   3.172   0.482  0.3550  1.8451 -1.1241
23147SOL    HW270020   6.509   3.220   0.427 -0.5226 -0.2649 -0.9408
23148SOL     OW70021   2.204   0.327   3.776  0.2984  0.1481 -0.6908
23148SOL    HW170022   2.297   0.328   3.753  0.2659  2.0390 -0.9155
23148SOL    HW270023   2.184   0.418   3.796 -1.7676 -0.0438 -1.6646
23149SOL     OW70024   7.011   7.860   3.980  0.1910  0.4776  0.2126
23149SOL    HW170025   7.039   7.950   3.965  0.9581  0.1689 -0.2987
23149SOL    HW270026   6.920   7.867   4.009  0.6155  1.4920  1.4123
23150SOL     OW70027   0.164   3.722   4.583 -0.0328  0.1678 -0.1005
23150SOL    HW170028   0.141   3.812   4.607  0.8457  0.4095 -0.1269
23150SOL    HW270029   0.223   3.731   4.509  0.0819 -0.4321 -0.0876
23151SOL     OW70030   2.459   6.167   3.142  0.1025 -0.2106 -0.2306
23151SOL    HW170031   2.440   6.171   3.235 -0.3567 -2.6041 -0.1521
23151SOL    HW270032   2.427   6.080   3.115 -4.1459  2.0213 -3.6092
23152SOL     OW70033   7.387   6.434   1.963  0.6592 -0.2958 -0.1387
23152SOL    HW170034   7.428   6.515   1.932 -2.9291  1.6062 -0.4444
23152SOL    HW270035   7.458   6.385   2.005  3.1881  2.5328 -0.8087
23153SOL     OW70036   1.532   3.229   3.206  0.0889 -0.0120  0.2190
23153SOL    HW170037   1.510   3.276   3.125 -1.0479 -0.0382  0.5092
23153SOL    HW270038   1.449   3.216   3.250  0.5727 -0.9985  0.8677
23154SOL     OW70039   7.976   3.962   6.921  0.4126 -0.3583 -0.5483
23154SOL    HW170040   7.977   3.875   6.961 -1.4486 -0.3571 -0.3846
23154SOL    HW270041   7.951   3.946   6.830 -1.1953  0.0573 -0.2124
23155SOL     OW70042   0.254   3.733   8.582  0.6479 -0.3942 -0.5442
23155SOL    HW170043   0.290   3.741   8.670 -0.8094  0.7944  0.0036
23155SOL    HW270044   0.330   3.716   8.526  1.6071 -1.1305  0.9163
23156SOL     OW70045   3.122   7.142   3.780 -0.2775 -0.8209  0.4823
23156SOL    HW170046   3.158   7.156   3.692  0.7069  0.1864  1.0077
23156SOL    HW270047   3.108   7.048   3.786  0.5461 -1.0180 -0.4145
23157SOL     OW70048   1.074   1.669   0.393  0.0060 -0.6070 -0.5173
23157SOL    HW170049   1.029   1.693   0.474 -0.8821 -0.2152 -1.1119
23157SOL    HW270050   1.032   1.722   0.326  3.1551  1.8862 -0.7716
23158SOL     OW70051   6.175   9.763   6.357  0.3283  0.2551 -0.3126
23158SOL    HW170052   6.125   9.734   6.433 -0.5714  0.0514 -0.9610
23158SOL    HW270053   6.214   9.683   6.322  1.9897  0.5496  0.7807
23159SOL     OW70054   1.433   3.261   1.385 -0.4662 -0.4539 -0.2203
23159SOL    HW170055   1.483   3.342   1.379  1.1813 -1.3006  1.3009
23159SOL    HW270056   1.497   3.194   1.408 -2.1298 -1.7871  0.8070
23160SOL     OW70057   6.393   0.203   3.049 -0.3852 -0.6166 -0.0597
23160SOL    HW170058   6.456   0.188   3.120 -2.0468 -0.1407  1.6100
23160SOL    HW270059   6.334   0.128   3.053  0.4380 -1.4462 -2.1072
23161SOL     OW70060   7.706   1.100   6.813 -0.2666 -0.4074 -0.2831
23161SOL    HW170061   7.635   1.128   6.871  0.0596  2.2715 -1.0333
23161SOL    HW270062   7.766   1.175   6.811  0.8063 -1.2379 -2.3971
23162SOL     OW70063   3.873   8.946   1.949 -0.4194  0.3201  0.2988
23162SOL    HW170064   3.890   8.878   2.014 -0.8246 -0.6738 -0.6171
23162SOL    HW270065   3.818   8.904   1.883  1.1996  0.8437 -1.4805
23163SOL     OW70066   0.860   8.635   2.671 -0.3515 -0.6258 -0.0746
23163SOL    HW170067   0.948   8.621   2.706 -0.1680 -0.5085 -0.4799
23163SOL    HW270068   0.873   8.695   2.598 -1.0113  0.9904  1.0834
23164SOL     OW70069   0.615   8.226   0.939  0.3187 -0.2988  0.4310
23164SOL    HW170070   0.530   8.267   0.955 -0.1591 -1.3221  0.6034
23164SOL    HW270071   0.600   8.168   0.865  1.1709  0.3727 -0.2825
23165SOL     OW70072   8.900   1.300   7.985  0.3773 -0.5856  0.0773
23165SOL    HW170073   8.977   1.245   7.996  0.0849 -0.8010  1.1897
23165SOL    HW270074   8.917   1.378   8.038 -0.8858 -1.4338  1.8351
23166SOL     OW70075   1.520   7.503   1.994  0.4066  0.2964 -0.0345
23166SOL    HW170076   1.433   7.491   1.954  0.3041 -1.0496  0.5549
23166SOL    HW270077   1.552   7.585   1.956 -1.5011  1.3140  0.4322
23167SOL     OW70078   8.420   8.490   1.286  0.3314 -0.7214 -0.4755
23167SOL    HW170079   8.426   8.550   1.360  0.3901 -0.0641 -1.0006
23167SOL    HW270080   8.392   8.407   1.324 -0.3821 -0.1911  0.1817
23168SOL     OW70081   2.017   3.046   2.046 -0.6998 -0.2293  0.1259
23168SOL    HW170082   2.032   3.021   1.955 -1.2457 -0.1996  0.0251
23168SOL    HW270083   2.067   2.982   2.097  1.2096  0.9084 -0.2224
23169SOL     OW70084   4.265   3.983   5.146 -0.1679 -0.8947 -0.1121
23169SOL    HW170085   4.225   4.006   5.230  0.2965  2.5416 -0.6672
23169SOL    HW270086   4.355   3.958   5.168 -0.3185 -0.9147  0.4927
23170SOL     OW70087   0.960   7.468   3.057  0.0733 -0.4604 -0.0009
23170SOL    HW170088   1.045   7.511   3.065  0.6200 -1.5864  0.5337
23170SOL    HW270089   0.981   7.377   3.035 -0.9209 -1.0743  1.4061
23171SOL     OW70090   6.340   5.544   2.265  0.2981  0.1888 -0.6992
23171SOL    HW170091   6.407   5.581   2.208 -0.5968  1.7895 -0.7733
23171SOL    HW270092   6.345   5.596   2.345  0.4513 -0.9745  0.0632
23172SOL     OW70093   5.649   5.414   3.744 -0.5641  0.2540  0.5660
23172SOL    HW170094   5.612   5.502   3.755 -0.6160  0.2742  0.2300
23172SOL    HW270095   5.611   5.382   3.662 -0.1851  0.0955  0.4509
23173SOL     OW70096   7.428   7.341   0.454 -0.5607 -0.0475 -0.1209
23173SOL    HW170097   7.388   7.384   0.531 -1.3577  2.4972 -1.8045
23173SOL    HW270098   7.518   7.374   0.453 -0.1784 -1.0641  0.3911
23174SOL     OW70099   7.655   2.619   1.069 -0.1290  0.5291 -0.6554
23174SOL    HW170100   7.613   2.583   0.991 -2.5704 -0.0140  0.8173
23174SOL    HW270101   7.646   2.550   1.135  2.4195  0.7267  0.0169
23175SOL     OW70102   4.257   4.623   9.620 -0.0927  0.3917  0.2235
23175SOL    HW170103   4.260   4.530   9.642 -1.5811  0.5390  1.1679
23175SOL    HW270104   4.316   4.632   9.545  1.1929 -1.0431  1.0081
23176SOL     OW70105   3.163   1.584   4.065  0.0437 -0.7160 -0.0165
23176SOL    HW170106   3.090   1.537   4.106 -1.0171 -0.9423 -2.0232
23176SOL    HW270107   3.150   1.571   3.971  0.7253  2.1187 -0.5905
23177SOL     OW70108   6.527   7.701   7.356  0.4534 -0.0927 -0.2695
23177SOL    HW170109   6.556   7.717   7.446 -1.1842  1.5934  0.0182
23177SOL    HW270110   6.542   7.784   7.311 -2.7336  0.5502 -0.3690
23178SOL     OW70111   5.986   0.950   2.744 -0.8344 -0.1181  0.2926
23178SOL    HW170112   6.068   0.949   2.695 -0.5569 -1.8391  0.7159
23178SOL    HW270113   6.002   1.010   2.817 -0.2291  0.1618 -0.0657
23179SOL     OW70114   6.268   5.331   8.045  0.2797  0.2114 -0.4460
23179SOL    HW170115   6.174   5.345   8.036  0.4034  1.4697  0.0373
23179SOL    HW270116   6.303   5.416   8.072  1.2630 -0.7523  1.5968
23180SOL     OW70117   0.128   2.156   3.253 -0.1134 -0.1976  0.2527
23180SOL    HW170118   0.174   2.149   3.337 -0.0522  0.4428  0.2801
23180SOL    HW270119   0.101   2.066   3.233  0.9656 -0.5590  0.3393
23181SOL     OW70120   2.679   8.141   6.927  0.3237  0.5010 -0.4056
23181SOL    HW170121   2.769   8.155   6.954  0.1868 -1.0000  0.9385
23181SOL    HW270122   2.632   8.219   6.958  0.8226  0.4077  0.6195
23182SOL     OW70123   5.524   6.567   6.604  0.2158  0.2772 -0.2439
23182SOL    HW170124   5.619   6.573   6.613  0.1631 -0.4924  1.1472
23182SOL    HW270125   5.492   6.553   6.693 -1.1795  0.2047 -0.7264
23183SOL     OW70126   4.893   7.944   9.099  0.1132 -0.1181  0.5267
23183SOL    HW170127   4.866   7.915   9.013  2.7379 -1.1246 -0.0355
23183SOL    HW270128   4.841   8.024   9.115  0.2661  0.6692 -2.3958
23184SOL     OW70129   3.524   2.113   2.922 -0.7292 -0.2612  0.3241
23184SOL    HW170130   3.533   2.138   2.830 -0.6117 -1.1748  0.0697
23184SOL    HW270131   3.582   2.037   2.931 -2.2779 -1.4502  0.6205
23185SOL     OW70132   4.133   2.880   7.702 -0.2925 -0.0133  1.0073
23185SOL    HW170133   4.180   2.959   7.725  0.7946  0.1460 -1.4399
23185SOL    HW270134   4.154   2.818   7.772 -0.3438  1.4864  2.4163
23186SOL     OW70135  -0.011   5.385   6.767 -0.0689 -0.0464 -0.2301
23186SOL    HW170136  -0.018   5.305   6.819  2.4657 -0.1008  0.1694
23186SOL    HW270137   0.030   5.357   6.685  1.3607  0.8596  0.1291
23187SOL     OW70138   6.308   6.118   6.776 -0.5757 -0.2149 -0.5501
23187SOL    HW170139   6.344   6.158   6.856 -0.4470  0.6387 -1.0257
23187SOL    HW270140   6.238   6.062   6.807  1.3722 -2.2637  0.4635
23188SOL     OW70141   2.469   9.262   8.089  0.2358 -0.5287 -0.1441
23188SOL    HW170142   2.497   9.304   8.008  1.7104 -2.6712 -0.8277
23188SOL    HW270143   2.456   9.335   8.151  1.9249  0.9681 -1.4534
23189SOL     OW70144   7.730   1.112   6.122 -0.7880  0.2613 -0.4087
23189SOL    HW170145   7.675   1.140   6.195  1.0407 -0.9841  1.5283
23189SOL    HW270146   7.667   1.091   6.052 -2.6857  0.0580  1.2608
23190SOL     OW70147   1.788   7.907   0.740  0.0194  0.0398 -0.3369
23190SOL    HW170148   1.726   7.883   0.670  1.8819 -3.3590 -1.0586
23190SOL    HW270149   1.874   7.901   0.698  1.0870  0.0640  1.7429
23191SOL     OW70150   5.454   4.958   4.788 -0.4737 -0.2913  0.3890
23191SOL    HW170151   5.421   4.875   4.821 -0.2202 -0.1431  1.0419
23191SOL    HW270152   5.420   5.024   4.849 -1.6567  0.2399 -0.7930
23192SOL     OW70153   9.217   2.723   6.405  0.2691  0.4557  0.4878
23192SOL    HW170154   9.203   2.707   6.312 -1.6168  1.5325  0.5376
23192SOL    HW270155   9.260   2.644   6.437  0.7714 -0.0091 -1.2504
23193SOL     OW70156   9.537   1.678   0.974 -0.1672 -0.0249 -0.3717
23193SOL    HW170157   9.505   1.768   0.983 -1.3492 -0.4577 -0.0689
23193SOL    HW270158   9.591   1.680   0.895  2.1826  1.5809  1.1335
23194SOL     OW70159   6.498   2.679   5.047  0.2055  0.2942  0.5370
23194SOL    HW170160   6.593   2.687   5.051  0.1565  1.3482 -0.0614
23194SOL    HW270161   6.465   2.753   5.098 -0.2907  0.1621  0.4176
23195SOL     OW70162   1.075   0.950   6.522 -0.2811  0.6307  0.1180
23195SOL    HW170163   1.040   0.867   6.487  0.9974 -0.4410  1.2587
23195SOL    HW270164   1.170   0.938   6.520 -0.1036  0.5934  3.6306
23196SOL     OW70165   1.688   1.752   5.445  0.4612  0.1319 -0.3365
23196SOL    HW170166   1.605   1.710   5.421  0.0496  1.3789 -1.2034
23196SOL    HW270167   1.688   1.752   5.540 -1.1438  1.2219 -0.2988
23197SOL     OW70168   0.360   8.228   7.519 -0.3371 -0.5980  0.2789
23197SOL    HW170169   0.300   8.301   7.528 -1.2838 -1.4598  1.3643
23197SOL    HW270170   0.447   8.268   7.513 -0.5294  0.6282  3.4902
23198SOL     OW70171   8.972   6.199   3.031  0.2016 -0.4098  0.5696
23198SOL    HW170172   8.938   6.109   3.033 -0.6289 -0.1517 -0.8725
23198SOL    HW270173   9.064   6.190   3.058 -0.1783 -1.5183  1.6010
23199SOL     OW70174   1.766   7.786   7.757 -0.0475 -0.1963  0.3922
23199SOL    HW170175   1.847   7.750   7.722  1.1685  2.1133  0.6235
23199SOL    HW270176   1.750   7.865   7.705 -1.4893  0.0392  1.1357
23200SOL     OW70177   9.620   4.092   4.948  0.2136  0.6178  0.4350
23200SOL    HW170178   9.568   4.012   4.944  0.0170  0.7399  0.5102
23200SOL    HW270179   9.704   4.068   4.909  0.5303  0.0828  1.4151
23201SOL     OW70180   6.896   3.379   8.161 -0.3436 -0.2502  0.4569
23201SOL    HW170181   6.876   3.330   8.241 -0.6662 -0.8221  0.0356
23201SOL    HW270182   6.907   3.311   8.093  0.0796  0.2182  0.0507
23202SOL     OW70183   5.834   8.750   9.175  0.1141 -0.2407 -0.3328
23202SOL    HW170184   5.842   8.686   9.105 -0.0287 -1.5651  0.7999
23202SOL    HW270185   5.895   8.719   9.242  0.9102  1.4900 -0.2161
23203SOL     OW70186   9.108   5.856   6.904 -0.1564  0.0590 -0.2257
23203SOL    HW170187   9.013   5.868   6.912 -0.4237 -0.4235 -2.0476
23203SOL    HW270188   9.119   5.761   6.900  0.5415  0.0676  1.0510
23204SOL     OW70189   4.331   8.706   6.686 -0.1334 -0.3175  0.1132
23204SOL    HW170190   4.332   8.763   6.763  0.1473 -0.1368 -0.0276
23204SOL    HW270191   4.400   8.642   6.703 -0.9832 -1.1205  0.6537
23205SOL     OW70192   7.944   2.301   1.289  0.0354 -0.6714 -0.0043
23205SOL    HW170193   7.952   2.320   1.196 -1.2905 -0.2954 -0.0615
23205SOL    HW270194   7.956   2.206   1.295 -0.2837 -0.7533 -0.6093
23206SOL     OW70195   3.332   4.074   3.018 -0.2810  0.3888 -0.2004
23206SOL    HW170196   3.262   4.054   2.956 -0.3026  0.6681 -0.2703
23206SOL    HW270197   3.362   4.162   2.992 -0.8119  0.8390  0.6667
23207SOL     OW70198   1.651   6.589   7.581 -0.2344  0.1943 -0.2928
23207SOL    HW170199   1.723   6.647   7.604 -0.3810  0.6053 -0.8431
23207SOL    HW270200   1.679   6.547   7.499 -0.4687  0.1015 -0.3264
23208SOL     OW70201   2.423   6.651   6.348 -0.4700  0.4413 -0.1591
23208SOL    HW170202   2.507   6.653   6.301  1.0822  0.7944  2.4323
23208SOL    HW270203   2.386   6.738   6.335  1.1975  1.4476  1.2547
23209SOL     OW70204   5.577   5.610   1.161 -0.0329 -0.0051 -0.3290
23209SOL    HW170205   5.671   5.601   1.149  0.0528  1.4964 -1.0394
23209SOL    HW270206   5.542   5.616   1.073 -0.2463  3.8037 -0.1558
23210SOL     OW70207   0.088   5.776   0.731 -0.2413 -0.1916 -0.0530
23210SOL    HW170208   0.093   5.765   0.826 -1.0378  0.5517  0.0859
23210SOL    HW270209   0.104   5.869   0.716 -1.9347  0.0783 -0.4675
23211SOL     OW70210   6.883   2.602   7.039  0.5891  0.4032 -0.6450
23211SOL    HW170211   6.909   2.566   7.124 -1.7365 -0.6095 -0.2653
23211SOL    HW270212   6.856   2.691   7.059 -1.7793 -0.4087  0.1551
23212SOL     OW70213   8.880   1.419   2.483 -0.2077 -0.2016 -0.1142
23212SOL    HW170214   8.891   1.331   2.446  0.6724 -0.1846  0.0694
23212SOL    HW270215   8.924   1.476   2.420  1.2268 -0.1640  0.8878
23213SOL     OW70216   5.887   9.749   0.915  0.4562  0.1692 -0.3633
23213SOL    HW170217   5.873   9.654   0.918  0.3454  0.1648 -0.9079
23213SOL    HW270218   5.867   9.773   0.825  2.1511  0.4468 -0.6947
23214SOL     OW70219   8.584   4.165   8.211 -0.2566 -0.2122  0.2252
23214SOL    HW170220   8.610   4.076   8.234 -1.2900 -0.9917 -1.4870
23214SOL    HW270221   8.489   4.166   8.220 -0.2929  0.6253 -0.1087
23215SOL     OW70222   6.364   2.779   0.307  0.0930  0.0532 -0.6066
23215SOL    HW170223   6.340   2.870   0.324 -0.6000 -0.6171  2.9234
23215SOL    HW270224   6.342   2.765   0.215 -0.8594  3.1074 -0.9606
23216SOL     OW70225   9.155   2.512   3.700 -0.4805  0.2595 -0.3997
23216SOL    HW170226   9.170   2.466   3.618 -1.8173  0.1658 -0.5985
23216SOL    HW270227   9.168   2.445   3.767 -0.8946 -0.0365 -0.6126
23217SOL     OW70228   0.490   0.122   5.590 -0.1982  0.6562  0.1784
23217SOL    HW170229   0.419   0.075   5.547 -1.0949  2.1732 -0.0352
23217SOL    HW270230   0.454   0.149   5.674 -0.6594  3.2399 -0.7554
23218SOL     OW70231   4.918   2.810   5.049  0.1661  0.1487  0.3137
23218SOL    HW170232   4.857   2.874   5.013  0.3972  0.9408  1.2674
23218SOL    HW270233   4.919   2.739   4.986 -0.7548  0.7057 -0.3510
23219SOL     OW70234   8.691   4.978   9.553 -0.6402  0.3035 -0.3947
23219SOL    HW170235   8.760   5.004   9.492 -0.3543  0.4868  0.0044
23219SOL    HW270236   8.681   4.884   9.539 -0.4587  0.3148 -0.6047
23220SOL     OW70237   6.370   1.390   4.259  0.3883  0.3851 -0.2413
23220SOL    HW170238   6.308   1.410   4.189 -0.1222  0.9825  0.3640
23220SOL    HW270239   6.366   1.466   4.317  1.1446  0.1051  0.1955
23221SOL     OW70240   6.064   8.618   8.369  0.9333 -0.1898  0.2715
23221SOL    HW170241   6.004   8.624   8.443  0.8622 -0.0767  0.2049
23221SOL    HW270242   6.138   8.674   8.393  1.0230 -0.3471  0.3628
23222SOL     OW70243   0.203   8.192   2.093  0.2762 -0.1948 -0.7161
23222SOL    HW170244   0.282   8.229   2.132  1.3968 -3.2261  0.1424
23222SOL    HW270245   0.162   8.141   2.163 -1.5035 -0.1407 -1.6482
23223SOL     OW70246   3.273   2.508   8.273  0.0371  0.0614  0.5466
23223SOL    HW170247   3.200   2.466   8.227 -0.3323  0.1098  1.0780
23223SOL    HW270248   3.343   2.513   8.208 -0.6704  0.6611 -0.1801
23224SOL     OW70249   5.256   2.744   5.493 -0.8186 -0.2210  0.3007
23224SOL    HW170250   5.232   2.726   5.584 -0.2548 -1.1973  0.2708
23224SOL    HW270251   5.351   2.745   5.493 -0.8106 -0.4808 -0.3299
23225SOL     OW70252   2.681   8.074   9.769 -0.3135  0.0742  0.9940
23225SOL    HW170253   2.745   8.028   9.823  1.1297  1.6323  0.7066
23225SOL    HW270254   2.641   8.006   9.715  0.6309 -1.0353  1.6534
23226SOL     OW70255   5.734   0.561   4.197 -0.4394 -0.1647 -0.1785
23226SOL    HW170256   5.796   0.589   4.264  0.1931 -1.7239 -0.0657
23226SOL    HW270257   5.786   0.507   4.138 -0.7825  1.8365 -2.4504
23227SOL     OW70258   8.940   0.922   2.691 -0.2498  0.1497  0.2130
23227SOL    HW170259   8.922   0.952   2.780 -1.3061  0.3807 -0.0679
23227SOL    HW270260   8.951   0.827   2.699  0.5523  0.2758  0.7118
23228SOL     OW70261   6.973   4.190   5.553 -0.1550 -0.6721  0.1240
23228SOL    HW170262   6.942   4.112   5.599  0.7635 -1.1818 -0.1048
23228SOL    HW270263   7.033   4.232   5.614 -0.5417 -0.2077  0.1949
23229SOL     OW70264   0.341   8.557   4.586 -0.1648 -0.0057  0.4102
23229SOL    HW170265   0.256   8.530   4.620 -0.3194  1.2873  1.0781
23229SOL    HW270266   0.403   8.533   4.655 -0.2740  1.0616  0.9017
23230SOL     OW70267   2.110   2.472   3.687 -0.6263 -0.3635  0.4189
23230SOL    HW170268   2.018   2.463   3.710 -1.0768  0.9903 -0.7850
23230SOL    HW270269   2.125   2.566   3.679  0.6032 -0.6037 -0.4578
23231SOL     OW70270   7.176   0.278   7.385 -0.0574  0.1158  0.1916
23231SOL    HW170271   7.211   0.355   7.429  0.7327 -0.3150  0.3467
23231SOL    HW270272   7.091   0.306   7.351 -0.8513  0.3892  2.2429
23232SOL     OW70273   3.299   7.257   4.044 -0.2113 -0.6524  0.3213
23232SOL    HW170274   3.251   7.338   4.027 -0.1382 -0.8119 -0.6855
23232SOL    HW270275   3.373   7.284   4.098  0.6064  0.2154 -1.1633
23233SOL     OW70276   4.956   6.626   4.662 -0.6127  0.1119  0.1858
23233SOL    HW170277   4.899   6.591   4.594 -1.3350  1.2152  0.1893
23233SOL    HW270278   5.043   6.592   4.641 -1.0619 -0.6090 -0.5256
23234SOL     OW70279   5.147   2.153   7.666  0.0553  0.0749 -0.2746
23234SOL    HW170280   5.099   2.167   7.748  0.4063 -2.5219  0.4661
23234SOL    HW270281   5.229   2.112   7.693 -0.2412 -1.7342 -1.9588
23235SOL     OW70282   3.940   2.941   3.785 -0.0982 -0.3966 -0.3017
23235SOL    HW170283   3.891   2.862   3.807  1.1876 -0.9363  0.7948
23235SOL    HW270284   3.899   3.010   3.837 -0.1410 -0.6948  0.0631
23236SOL     OW70285   5.104   0.240   7.147  0.6135  0.0990  0.4345
23236SOL    HW170286   5.117   0.323   7.193 -0.3297  0.0318  0.8295
23236SOL    HW270287   5.011   0.223   7.154  0.8085 -1.0308  0.4076
23237SOL     OW70288   1.560   0.543   1.634  0.2104  0.5842 -0.1529
23237SOL    HW170289   1.645   0.551   1.591 -0.0285 -1.7389 -1.2207
23237SOL    HW270290   1.500   0.521   1.563 -0.6600 -0.9308  0.9862
23238SOL     OW70291   7.618   3.877   2.333  0.0823  0.1174  0.3030
23238SOL    HW170292   7.681   3.806   2.345 -1.2091 -1.2300 -0.3991
23238SOL    HW270293   7.552   3.840   2.274 -1.1498  1.5876  0.6900
23239SOL     OW70294   6.959   2.088   1.941 -0.4852 -0.5392 -0.4553
23239SOL    HW170295   6.991   1.997   1.941  0.2588 -0.4544  3.5560
23239SOL    HW270296   6.865   2.080   1.954 -0.3747 -0.8033  0.2810
23240SOL     OW70297   2.474   2.160   7.911 -0.2815 -0.2393  0.1834
23240SOL    HW170298   2.420   2.083   7.925  0.5259 -1.1212 -1.3892
23240SOL    HW270299   2.506   2.152   7.822  2.9750 -0.1006  1.2226
23241SOL     OW70300   3.130   6.294   4.586  0.4762 -0.0578  0.1285
23241SOL    HW170301   3.070   6.286   4.660  0.8701  1.4743  0.6384
23241SOL    HW270302   3.110   6.218   4.531 -1.5686  0.1051  0.5544
23242SOL     OW70303   0.821   8.109   0.526 -0.2552  0.3930  0.1109
23242SOL    HW170304   0.864   8.042   0.473 -1.1167 -1.2526  1.4120
23242SOL    HW270305   0.883   8.127   0.597 -2.0986 -3.1946  2.9527
23243SOL     OW70306   6.725   8.032   0.623  0.4364 -0.1653 -0.1969
23243SOL    HW170307   6.785   7.990   0.561  0.5392 -1.9563  1.0310
23243SOL    HW270308   6.762   8.119   0.637  2.3959 -0.9940  0.0376
23244SOL     OW70309   0.843   5.449   4.559 -0.0513 -0.1207  0.0821
23244SOL    HW170310   0.911   5.463   4.493 -1.1732 -0.5491 -1.2093
23244SOL    HW270311   0.851   5.524   4.617 -1.2700  2.2128 -2.5453
23245SOL     OW70312   2.711   8.469   4.607  0.3345  0.3698  0.7682
23245SOL    HW170313   2.620   8.444   4.594  0.8780 -1.5398  0.3948
23245SOL    HW270314   2.755   8.443   4.526  1.2335  1.2732  0.9390
23246SOL     OW70315   3.879   5.699   5.719  0.6461 -0.2651  0.0715
23246SOL    HW170316   3.899   5.625   5.662 -0.6823  0.1474 -0.9635
23246SOL    HW270317   3.846   5.767   5.661 -1.5849 -0.1381  1.3883
23247SOL     OW70318   1.309   8.975   7.657  0.0923 -0.5245 -0.4092
23247SOL    HW170319   1.261   9.025   7.724 -0.4944 -1.1799 -0.3334
23247SOL    HW270320   1.256   8.985   7.578  0.9144  0.4548 -0.8537
23248SOL     OW70321   0.513   1.542   4.272  0.3352  0.3339  0.3408
23248SOL    HW170322   0.574   1.610   4.246  0.4179  0.0469 -0.2346
23248SOL    HW270323   0.430   1.588   4.288 -0.0125  0.4086 -1.4825
23249SOL     OW70324   0.571   6.155   8.292 -0.4499 -0.0139 -0.7613
23249SOL    HW170325   0.632   6.229   8.291 -0.3605  0.0339  1.4756
23249SOL    HW270326   0.626   6.079   8.308 -0.8483 -0.0895  0.3491
23250SOL     OW70327   7.790   5.797   6.227  0.1815  0.4833  0.4330
23250SOL    HW170328   7.751   5.884   6.214 -0.1918  0.2710  0.1139
23250SOL    HW270329   7.720   5.736   6.204  0.7400  0.0981 -0.2929
23251SOL     OW70330   8.349   9.205   5.146 -0.5878  0.0486  0.2953
23251SOL    HW170331   8.297   9.144   5.094  0.6664 -1.1542  0.3772
23251SOL    HW270332   8.287   9.242   5.209 -1.5204 -0.6540 -0.1833
23252SOL     OW70333   5.183   1.162   9.930  0.9225 -0.8148 -0.7111
23252SOL    HW170334   5.114   1.114   9.976 -0.7026  2.3692  0.4365
23252SOL    HW270335   5.264   1.117   9.954 -0.3132 -1.9627  1.6264
23253SOL     OW70336   4.566   0.037   4.673  0.2460 -0.1743 -0.2600
23253SOL    HW170337   4.481   0.075   4.652  0.0175 -0.2254  0.5362
23253SOL    HW270338   4.624   0.112   4.685  0.0154 -0.0995  0.4108
23254SOL     OW70339   1.581   0.015   7.391 -0.3443  0.1304 -0.2385
23254SOL    HW170340   1.573   0.108   7.372  0.6627  0.3608  0.3882
23254SOL    HW270341   1.664  -0.011   7.351  0.0701 -0.1709  0.7879
23255SOL     OW70342   6.425   7.117   4.004  0.4645 -0.3773 -0.0363
23255SOL    HW170343   6.491   7.060   4.045  0.1432 -0.8004 -0.0932
23255SOL    HW270344   6.353   7.118   4.067  0.2438 -0.4820 -0.2838
23256SOL     OW70345   5.092   8.538   4.966  0.2865 -0.0834  0.0068
23256SOL    HW170346   5.188   8.538   4.973  0.3069  0.6394 -0.2489
23256SOL    HW270347   5.067   8.629   4.980 -0.5163 -0.5600  1.9850
23257SOL     OW70348   4.818   3.835   0.454 -0.0406  0.3139 -0.0761
23257SOL    HW170349   4.814   3.740   0.443 -0.6643  0.4108 -0.7244
23257SOL    HW270350   4.900   3.861   0.410 -0.7755  0.2808 -1.5223
23258SOL     OW70351   3.656   2.844   3.162 -0.0658  0.5758 -0.2425
23258SOL    HW170352   3.618   2.810   3.081  2.8533 -0.5835 -1.3043
23258SOL    HW270353   3.634   2.779   3.228  0.0940 -0.1154 -0.8486
23259SOL     OW70354   7.881   6.596   7.694 -0.2717  0.2981  0.3683
23259SOL    HW170355   7.932   6.530   7.646 -0.3993 -0.8518  1.7497
23259SOL    HW270356   7.809   6.618   7.636 -0.6926 -1.4227  0.2014
23260SOL     OW70357   1.473   5.343   5.486  0.7326  0.3209  0.5393
23260SOL    HW170358   1.378   5.348   5.479  0.7485  2.5462  1.2731
23260SOL    HW270359   1.505   5.381   5.404  1.0588 -1.4414 -0.2113
23261SOL     OW70360   9.224   2.823   1.852  0.3048 -0.3652  0.3499
23261SOL    HW170361   9.198   2.788   1.937  1.9249 -1.6123  0.3815
23261SOL    HW270362   9.148   2.809   1.796 -0.2045 -1.0558  1.1893
23262SOL     OW70363   9.582   4.125   9.325 -0.4240 -0.2509  0.1682
23262SOL    HW170364   9.674   4.100   9.330 -0.4814 -1.0046 -1.5637
23262SOL    HW270365   9.571   4.193   9.391  1.0027 -1.1886  1.4520
23263SOL     OW70366   9.597   2.502   3.806  0.5556  0.0486 -0.2941
23263SOL    HW170367   9.669   2.516   3.744  0.7692 -0.4067 -0.1542
23263SOL    HW270368   9.556   2.588   3.815  0.6159  0.1520 -0.9541
23264SOL     OW70369   2.232   1.233   1.439  0.2265 -0.4807  0.9591
23264SOL    HW170370   2.312   1.281   1.461 -0.5895  2.1837 -1.2661
23264SOL    HW270371   2.262   1.155   1.393  1.6224  1.1237 -1.0177
23265SOL     OW70372   8.302   7.523   1.751  0.1398  0.2452 -0.0449
23265SOL    HW170373   8.365   7.475   1.805 -0.9237 -0.5687  0.5168
23265SOL    HW270374   8.227   7.537   1.808 -0.0331  1.6140 -0.5553
23266SOL     OW70375   9.095   9.912   3.073  0.2409  0.0617 -0.5945
23266SOL    HW170376   9.173   9.943   3.028  0.7685 -3.0103 -2.0913
23266SOL    HW270377   9.028   9.908   3.005 -0.9212  1.4747  0.4037
23267SOL     OW70378   4.277   4.703   3.129 -0.2341 -0.0824  0.3789
23267SOL    HW170379   4.242   4.775   3.077 -1.1467 -0.7993 -0.0419
23267SOL    HW270380   4.200   4.651   3.153  0.2838 -0.3112  1.6194
23268SOL     OW70381   3.410   1.213   2.158  0.5278 -0.1614 -0.0573
23268SOL    HW170382   3.370   1.185   2.240  0.6429  1.0114  0.4229
23268SOL    HW270383   3.355   1.174   2.090 -0.3672 -0.0404  0.5812
23269SOL     OW70384   4.549   9.960   2.574  0.5321 -0.0713 -0.5100
23269SOL    HW170385   4.515   9.976   2.486 -0.6315  0.1154 -0.0396
23269SOL    HW270386   4.475   9.923   2.622  0.7698  1.0102  0.7462
23270SOL     OW70387   8.724   8.178   0.596 -0.7639 -0.1445 -0.0879
23270SOL    HW170388   8.812   8.143   0.579 -0.4361  1.1379 -1.1313
23270SOL    HW270389   8.716   8.176   0.692  0.1892 -0.7758 -0.0083
23271SOL     OW70390   2.645   5.828   4.558  0.4576  0.1024  0.2936
23271SOL    HW170391   2.561   5.805   4.598  0.2033 -0.5230 -0.5738
23271SOL    HW270392   2.626   5.905   4.505  0.6133  0.4314  0.7070
23272SOL     OW70393   6.963   8.665   0.013 -0.0138  0.7145  0.2227
23272SOL    HW170394   6.909   8.732   0.054 -0.3625  0.7662 -0.3156
23272SOL    HW270395   6.901   8.602  -0.023  0.2925  0.5209  0.0280
23273SOL     OW70396   3.166   8.084   8.250  0.2355 -0.3344  0.3826
23273SOL    HW170397   3.153   7.993   8.276 -0.6792 -0.8203 -1.6638
23273SOL    HW270398   3.090   8.130   8.284  0.0041 -0.5896  0.2061
23274SOL     OW70399   2.276   8.726   8.942  0.4066 -0.2134  0.2400
23274SOL    HW170400   2.198   8.729   8.997  0.5439 -0.7124  0.4655
23274SOL    HW270401   2.341   8.678   8.994  1.2345  1.1610  0.5281
23275SOL     OW70402   6.267   1.272   3.274 -0.0288  0.3130 -0.3669
23275SOL    HW170403   6.342   1.307   3.226  0.0586 -1.0618 -1.2928
23275SOL    HW270404   6.284   1.295   3.365  0.1599  2.3559 -0.8716
23276SOL     OW70405   7.560   3.884   9.617  0.7176  0.3004  0.7983
23276SOL    HW170406   7.532   3.964   9.661  2.1140  0.7407  0.9306
23276SOL    HW270407   7.509   3.882   9.535 -1.4308 -0.1966  2.0629
23277SOL     OW70408   9.082   4.272   1.995  0.3873  0.0510 -0.9151
23277SOL    HW170409   9.106   4.194   2.046 -0.6754  0.7987  0.8377
23277SOL    HW270410   9.144   4.339   2.024  0.3271  0.2561 -1.2636
23278SOL     OW70411   2.344   1.858   0.466 -0.1043  1.0691 -0.5695
23278SOL    HW170412   2.312   1.836   0.378  0.2650  0.2886 -0.5234
23278SOL    HW270413   2.427   1.812   0.473 -2.0708 -2.6697  1.7641
23279SOL     OW70414   3.678   6.866   7.108  0.3148 -0.7738 -0.4098
23279SOL    HW170415   3.604   6.872   7.168  1.2444  0.0558  0.7089
23279SOL    HW270416   3.722   6.785   7.133  0.7827 -0.3567  0.1595
23280SOL     OW70417   1.645   7.329   7.908 -0.0601  0.2291  0.1950
23280SOL    HW170418   1.728   7.368   7.933  0.1592 -0.5181  0.6438
23280SOL    HW270419   1.655   7.235   7.925 -0.9388  0.1075  0.1214
23281SOL     OW70420   7.434   6.212   8.586 -0.1885  0.2073 -0.2855
23281SOL    HW170421   7.386   6.256   8.516 -1.0437  0.7826  0.6259
23281SOL    HW270422   7.500   6.160   8.541 -0.3464  0.9977 -1.4856
23282SOL     OW70423   5.303   2.899   2.754  0.4428 -0.1647 -0.3256
23282SOL    HW170424   5.217   2.933   2.776  0.4093 -0.5690  0.1759
23282SOL    HW270425   5.316   2.824   2.812  0.0751 -1.6980 -2.1379
23283SOL     OW70426   3.061   7.689   3.858  0.1800  0.1109  0.6888
23283SOL    HW170427   3.061   7.666   3.765  0.8565  0.0183  0.7039
23283SOL    HW270428   3.114   7.769   3.862 -1.9974  1.6368  0.6613
23284SOL     OW70429   9.317   3.105   1.869  0.8791  0.4838  0.6494
23284SOL    HW170430   9.412   3.107   1.861  0.7776  0.1250 -1.0555
23284SOL    HW270431   9.294   3.013   1.860  0.5068  0.1222  3.9633
23285SOL     OW70432   3.529   1.840   6.081  0.2090 -0.0450  0.5207
23285SOL    HW170433   3.623   1.845   6.062 -0.0299  3.9894 -0.6377
23285SOL    HW270434   3.487   1.851   5.995 -1.2491  0.7371  1.3010
23286SOL     OW70435   5.602   3.321   3.184 -0.3503 -0.2395 -0.3141
23286SOL    HW170436   5.535   3.268   3.141  1.0867 -1.7141 -0.8622
23286SOL    HW270437   5.571   3.411   3.176 -0.1925 -0.3649 -4.4859
23287SOL     OW70438   2.904   5.830   7.623  0.3822 -0.2871  0.1485
23287SOL    HW170439   2.994   5.814   7.594 -0.4142  0.0955 -2.8771
23287SOL    HW270440   2.872   5.744   7.651  0.8080 -1.0378 -1.5509
23288SOL     OW70441   8.885   4.513   7.953  0.1078 -0.0180 -0.0149
23288SOL    HW170442   8.849   4.435   7.910  0.3236  0.0259 -0.2844
23288SOL    HW270443   8.966   4.531   7.905 -0.1688  0.6421 -0.2460
23289SOL     OW70444   8.356   1.011   7.930  0.0945  0.1240 -0.3210
23289SOL    HW170445   8.269   0.977   7.946  0.0070 -0.3478 -1.6610
23289SOL    HW270446   8.342   1.088   7.875  0.4912  0.3334 -0.1338
23290SOL     OW70447   0.480   3.931   8.598 -0.8152  0.0862 -0.3487
23290SOL    HW170448   0.514   3.892   8.518 -1.3332  0.3603 -0.7060
23290SOL    HW270449   0.495   4.025   8.587 -0.3318  0.0697  0.1417
23291SOL     OW70450   2.003   5.002   0.191 -0.0820 -0.2439  0.3144
23291SOL    HW170451   1.920   4.955   0.185 -0.0829 -0.4709  1.7105
23291SOL    HW270452   2.048   4.981   0.109 -1.3378 -0.2193 -0.3982
23292SOL     OW70453   1.962   1.778   2.563  0.0854  0.2858  0.6231
23292SOL    HW170454   2.033   1.807   2.621  0.2254 -0.5800  0.8959
23292SOL    HW270455   1.886   1.771   2.620 -0.0994  0.7063  0.4335
23293SOL     OW70456   3.512   3.908   5.316 -0.1193 -0.3254  0.1277
23293SOL    HW170457   3.594   3.950   5.291 -1.0612 -0.4410 -3.7253
23293SOL    HW270458   3.502   3.929   5.409  3.9500  0.1162  0.6431
23294SOL     OW70459   4.907   6.996   8.860  0.5358 -0.0010  0.2229
23294SOL    HW170460   4.872   6.988   8.771 -0.4093  2.9838  0.2265
23294SOL    HW270461   4.875   6.917   8.905 -1.8695  0.0523 -1.1851
23295SOL     OW70462   1.238   7.625   3.870 -1.6711  0.2902  0.0652
23295SOL    HW170463   1.306   7.560   3.850 -0.0404  2.2162 -0.9693
23295SOL    HW270464   1.194   7.591   3.948 -1.1860 -2.2407 -0.6622
23296SOL     OW70465   4.355   5.542   2.261 -0.2772  0.1707  0.3023
23296SOL    HW170466   4.318   5.496   2.336 -0.2883  0.4495  0.4695
23296SOL    HW270467   4.349   5.635   2.284  0.9132  0.2040  0.5123
23297SOL     OW70468   1.607   9.029   9.632 -0.2730  0.3769 -0.1087
23297SOL    HW170469   1.613   9.095   9.563 -1.6840  1.2824  0.5916
23297SOL    HW270470   1.515   9.032   9.660 -0.0180 -0.8488  0.9562
23298SOL     OW70471   2.233   2.884   0.967 -0.0277 -0.0413 -0.5589
23298SOL    HW170472   2.280   2.966   0.953  0.5821 -0.1777  0.6210
23298SOL    HW270473   2.265   2.826   0.897  1.2707 -0.0016 -0.0268
23299SOL     OW70474   8.929   9.692   7.401  0.2480  0.3256  0.1099
23299SOL    HW170475   8.957   9.604   7.375  0.8899  0.0370  1.6334
23299SOL    HW270476   8.837   9.682   7.424  0.0958  0.2501 -0.5084
23300SOL     OW70477   1.712   2.163   7.908 -0.1466 -0.1350  0.7052
23300SOL    HW170478   1.643   2.152   7.974 -1.2572 -0.5301 -0.4757
23300SOL    HW270479   1.693   2.096   7.843 -0.6444  1.8778 -1.3334
23301SOL     OW70480   9.436   5.416   1.067 -0.2771 -0.2376  0.1727
23301SOL    HW170481   9.378   5.404   1.142  0.1632 -1.8005  0.2786
23301SOL    HW270482   9.411   5.347   1.005  0.6532 -0.1650 -0.3024
23302SOL     OW70483   8.332   1.408   2.689 -0.1199  0.0739  0.1051
23302SOL    HW170484   8.388   1.365   2.753 -0.5602  0.5392  0.8254
23302SOL    HW270485   8.376   1.491   2.671 -0.1101  0.0392 -0.0332
23303SOL     OW70486   8.187   7.586   7.215 -0.2192 -0.0246  0.1062
23303SOL    HW170487   8.149   7.596   7.302 -1.3755 -0.0697 -0.3753
23303SOL    HW270488   8.188   7.675   7.179 -0.0454 -0.0530  0.0387
23304SOL     OW70489   7.116   3.571   3.150  0.7014  0.6020 -0.0209
23304SOL    HW170490   7.058   3.495   3.153  1.1999  0.2170 -0.0073
23304SOL    HW270491   7.131   3.585   3.057 -0.8399  1.8143 -0.1205
23305SOL     OW70492   6.688   3.527   6.042  0.2846  0.0765 -0.2172
23305SOL    HW170493   6.738   3.550   6.120  0.8117 -0.8689 -0.2615
23305SOL    HW270494   6.638   3.606   6.022  1.3249  0.8552  0.1619
23306SOL     OW70495   7.822   9.649   9.374  0.2205  0.3198 -0.1489
23306SOL    HW170496   7.865   9.566   9.355  1.1297  0.6403  0.3997
23306SOL    HW270497   7.845   9.705   9.300 -1.4079 -0.2581 -1.1282
23307SOL     OW70498   7.443   0.438   3.297 -0.1248 -0.1359  0.3177
23307SOL    HW170499   7.487   0.485   3.227 -0.2145  1.6126  1.3861
23307SOL    HW270500   7.504   0.368   3.321  0.0135 -0.6039 -1.3001
23308SOL     OW70501   9.832   1.508   2.606 -0.4412 -0.1211  0.1069
23308SOL    HW170502   9.854   1.529   2.697  1.1066  1.4632 -0.5574
23308SOL    HW270503   9.904   1.454   2.575 -0.8017 -0.3981 -0.2660
23309SOL     OW70504   4.897   2.953   6.601 -0.1625  0.4046 -0.7046
23309SOL    HW170505   4.879   3.032   6.549  1.7163  0.5397 -1.2568
23309SOL    HW270506   4.961   2.905   6.548 -1.7626 -1.8687 -0.6931
23310SOL     OW70507   0.861   4.349   3.839 -0.1008  0.2881 -1.0050
23310SOL    HW170508   0.839   4.390   3.923  0.5954 -0.9266 -0.1976
23310SOL    HW270509   0.884   4.259   3.862 -1.2253 -0.4676 -2.6748
23311SOL     OW70510   5.632   0.177   9.019  0.3230 -0.0890  0.2699
23311SOL    HW170511   5.701   0.215   8.965  0.5001  1.0237  1.2469
23311SOL    HW270512   5.649   0.210   9.107 -2.6587  1.9967  0.2193
23312SOL     OW70513   1.319   4.238   2.782  0.1227  0.3235  0.2593
23312SOL    HW170514   1.247   4.299   2.772 -0.0909  0.0254 -0.0560
23312SOL    HW270515   1.398   4.293   2.782 -0.1029  0.6443  0.5651
23313SOL     OW70516   1.746   5.448   5.287  0.1626 -0.4734  0.2340
23313SOL    HW170517   1.741   5.484   5.376  0.5527 -1.2326  0.5762
23313SOL    HW270518   1.826   5.396   5.287 -0.3636 -1.3063 -0.2598
23314SOL     OW70519   4.615   3.017   9.417 -0.2692 -0.1344 -0.1327
23314SOL    HW170520   4.550   2.948   9.416 -1.6837  1.1410 -0.0532
23314SOL    HW270521   4.629   3.039   9.324 -0.3979 -0.0215 -0.1268
23315SOL     OW70522   9.951   0.896   8.790  0.2314 -0.1985  0.1126
23315SOL    HW170523   9.905   0.922   8.711  0.6301  0.8325  0.1939
23315SOL    HW270524   9.901   0.936   8.861  1.8460  1.9949  0.1304
23316SOL     OW70525   5.202   8.375   4.013  0.0444 -0.6640 -0.1907
23316SOL    HW170526   5.210   8.427   4.093  1.2573 -0.5387 -0.3682
23316SOL    HW270527   5.262   8.302   4.026 -1.0573 -1.6103 -0.2741
23317SOL     OW70528   1.771   0.167   3.895 -0.1340  0.1577 -0.5478
23317SOL    HW170529   1.826   0.241   3.918 -1.8885  1.7164 -1.1332
23317SOL    HW270530   1.725   0.194   3.816 -0.6257 -1.6777 -0.9457
23318SOL     OW70531   5.926   5.233   2.503 -0.1576 -0.6922 -0.0843
23318SOL    HW170532   6.020   5.250   2.494 -0.2834 -0.1637 -0.4792
23318SOL    HW270533   5.916   5.198   2.592  0.2191  0.6418  0.5058
23319SOL     OW70534   7.038   6.747   3.780 -0.1652 -0.0664 -1.0602
23319SOL    HW170535   6.987   6.718   3.704 -0.9942 -0.1444 -0.4931
23319SOL    HW270536   6.975   6.797   3.833  0.7579  1.2207 -1.1206
23320SOL     OW70537   9.451   2.651   7.719 -0.2375  0.5644 -0.4966
23320SOL    HW170538   9.530   2.695   7.750  0.6066 -0.5427 -1.0287
23320SOL    HW270539   9.482   2.589   7.653 -1.7718  1.5010 -2.1925
23321SOL     OW70540   6.500   3.732   6.004 -1.2960  0.2233 -0.2064
23321SOL    HW170541   6.484   3.821   6.034 -0.9148 -0.0967  1.0037
23321SOL    HW270542   6.413   3.700   5.979 -1.4848  0.8098 -0.3270
23322SOL     OW70543   7.212   5.335   8.423 -0.4464  0.6979 -0.5089
23322SOL    HW170544   7.198   5.241   8.419  0.0253  0.5969  0.0218
23322SOL    HW270545   7.224   5.362   8.332  1.4074 -0.0815 -0.5286
23323SOL     OW70546   2.267   8.073   0.722  0.1480  0.2992  0.3026
23323SOL    HW170547   2.192   8.114   0.765  1.3176  0.7657  1.9377
23323SOL    HW270548   2.308   8.144   0.672 -0.4411  0.0549 -0.5498
23324SOL     OW70549   8.274   9.377   1.787  0.2792  0.2903  0.5310
23324SOL    HW170550   8.261   9.463   1.747  1.1629 -0.2114 -0.9383
23324SOL    HW270551   8.284   9.318   1.712  0.1269 -1.0232  1.5160
23325SOL     OW70552   4.915   9.259   7.565 -0.0912  0.0918 -0.7940
23325SOL    HW170553   4.981   9.328   7.559 -0.3120  0.2162 -2.0984
23325SOL    HW270554   4.877   9.254   7.477 -1.8162  0.0105 -0.0854
23326SOL     OW70555   8.641   0.916   5.334  0.3002 -0.1509  0.3056
23326SOL    HW170556   8.700   0.961   5.394  1.4455 -0.8561 -0.2511
23326SOL    HW270557   8.593   0.986   5.290 -0.8496  0.3772  2.2732
23327SOL     OW70558   2.395   6.520   1.648  0.2401  0.3159 -0.1832
23327SOL    HW170559   2.489   6.500   1.651  0.1740  0.1182  1.2777
23327SOL    HW270560   2.354   6.440   1.616  0.3646 -0.4879  1.5661
23328SOL     OW70561   1.845   6.552   5.297  0.5283  0.2265 -0.3274
23328SOL    HW170562   1.819   6.644   5.304 -2.1321 -0.5375  1.3789
23328SOL    HW270563   1.846   6.521   5.388  2.1851 -1.2624 -0.7991
23329SOL     OW70564   9.325   4.216   4.083  0.8161  0.3951 -0.7042
23329SOL    HW170565   9.317   4.238   4.176 -1.0029 -1.2791 -0.4201
23329SOL    HW270566   9.352   4.125   4.082 -4.2859 -1.4245 -1.6155
23330SOL     OW70567   3.472   1.833   1.444  0.1764  0.1208 -0.0328
23330SOL    HW170568   3.527   1.760   1.414 -0.5902 -0.7226  0.5640
23330SOL    HW270569   3.515   1.911   1.408  1.4357 -0.5537 -0.0811
23331SOL     OW70570   2.121   6.534   4.330 -0.0217  0.3362  0.8480
23331SOL    HW170571   2.173   6.614   4.338  0.0191  0.2641  1.3214
23331SOL    HW270572   2.080   6.541   4.243 -1.1940  1.5738  1.4590
23332SOL     OW70573   8.777   7.385   4.254 -0.3406 -0.7950  0.5536
23332SOL    HW170574   8.829   7.447   4.204 -0.9597 -0.5958  0.1399
23332SOL    HW270575   8.689   7.423   4.255 -0.6375 -1.4651  0.6312
23333SOL     OW70576   8.617   3.295   2.550 -0.1080  0.1415 -0.2383
23333SOL    HW170577   8.605   3.273   2.642  1.5055 -1.3910 -0.3465
23333SOL    HW270578   8.659   3.381   2.551  2.3455 -0.9612  0.6390
23334SOL     OW70579   7.524   7.815   6.057 -0.5088  0.0703  0.3272
23334SOL    HW170580   7.505   7.776   6.142 -0.7950  0.5627  0.4972
23334SOL    HW270581   7.618   7.831   6.058 -0.7870  1.9585  1.3929
23335SOL     OW70582   5.319   3.299   3.439  0.4119  0.2758  0.2777
23335SOL    HW170583   5.386   3.338   3.495  1.1233 -1.7773  0.9563
23335SOL    HW270584   5.247   3.279   3.499  0.1882  0.2463  0.0004
23336SOL     OW70585   8.234   9.266   8.798  0.2457  0.4429  0.2588
23336SOL    HW170586   8.228   9.256   8.893 -0.0718 -1.7000  0.0690
23336SOL    HW270587   8.239   9.176   8.765 -0.6452  1.1003 -1.8214
23337SOL     OW70588   9.743   1.975   9.932  0.3435  0.0638 -0.4558
23337SOL    HW170589   9.833   1.973   9.964  0.2175  1.5726  0.0711
23337SOL    HW270590   9.725   2.068   9.919 -1.0207 -0.2483 -0.9156
23338SOL     OW70591   1.735   9.037   6.162  0.6355 -0.5474  0.1368
23338SOL    HW170592   1.827   9.064   6.161  0.7094 -0.6745 -1.9902
23338SOL    HW270593   1.726   8.979   6.086 -1.0278 -1.2222  0.7882
23339SOL     OW70594   0.129   5.516   7.271  0.6209  1.0721  0.0616
23339SOL    HW170595   0.076   5.488   7.196  0.7715  0.5280  0.1585
23339SOL    HW270596   0.065   5.554   7.332  0.0861 -1.0169  0.8767
23340SOL     OW70597   3.342   4.933   5.077 -0.2861 -0.2425  0.1186
23340SOL    HW170598   3.265   4.888   5.112  0.2864 -3.4309 -2.2284
23340SOL    HW270599   3.312   4.968   4.993  0.4269 -0.1785 -0.1115
23341SOL     OW70600   4.757   0.562   8.282  0.2074 -0.7824  0.2364
23341SOL    HW170601   4.841   0.594   8.314 -0.1094  1.4340 -0.9429
23341SOL    HW270602   4.710   0.535   8.362  0.5604  1.7459  1.4024
23342SOL     OW70603   0.137   8.120   5.732 -0.2575  0.2810  0.7780
23342SOL    HW170604   0.178   8.035   5.747 -0.7451  0.1220  1.2317
23342SOL    HW270605   0.125   8.157   5.819  2.1068  1.8762  0.5239
23343SOL     OW70606   5.086   5.726   9.328  0.2280 -0.1728 -0.1415
23343SOL    HW170607   5.171   5.693   9.357  0.4186 -0.3047 -0.8373
23343SOL    HW270608   5.069   5.801   9.385  1.7031  1.0347 -1.2130
23344SOL     OW70609   9.484   7.942   8.721 -0.0009 -0.3383  0.4746
23344SOL    HW170610   9.409   7.974   8.670  1.6330  1.8130 -0.7771
23344SOL    HW270611   9.507   8.016   8.778  0.9258 -1.1091  1.1362
23345SOL     OW70612   5.475   9.872   4.216 -0.1023  0.2152 -0.6628
23345SOL    HW170613   5.444   9.907   4.299  0.2074  0.2190 -0.5468
23345SOL    HW270614   5.408   9.897   4.153  0.9919  2.7787 -0.9755
23346SOL     OW70615   2.887   8.955   8.878  0.4348 -0.3122  0.4426
23346SOL    HW170616   2.943   8.992   8.945  0.0074 -0.7499  1.0527
23346SOL    HW270617   2.856   8.872   8.915 -3.3082  1.3741  1.6653
23347SOL     OW70618   7.306   7.475   5.343 -0.1176  0.4285 -0.0128
23347SOL    HW170619   7.219   7.490   5.307  0.5968  2.3359 -1.0889
23347SOL    HW270620   7.333   7.560   5.378  0.4485 -0.6600  2.3851
23348SOL     OW70621   7.772   8.620   8.450  0.2683 -0.4005  0.3909
23348SOL    HW170622   7.802   8.694   8.398  0.1654  0.2266  1.1913
23348SOL    HW270623   7.681   8.641   8.472  0.1106 -0.9581  0.2857
23349SOL     OW70624   5.647   9.867   1.702 -0.0772 -0.5537 -0.9428
23349SOL    HW170625   5.629   9.927   1.774  0.8585  0.3915 -1.4773
23349SOL    HW270626   5.561   9.847   1.665 -0.5670 -0.9780  0.3479
23350SOL     OW70627   8.724   3.236   9.771  0.2624  0.0939  0.5979
23350SOL    HW170628   8.672   3.156   9.767  2.0860 -1.2042  1.5342
23350SOL    HW270629   8.744   3.248   9.864 -0.0872  1.7549  0.5028
23351SOL     OW70630   2.082   6.746   8.326 -0.5417 -0.3189  0.4887
23351SOL    HW170631   2.096   6.819   8.265  2.3594 -0.5596  0.7414
23351SOL    HW270632   2.055   6.673   8.270 -0.4581  0.1432 -0.1714
23352SOL     OW70633   0.227   2.175   2.411 -0.1467 -0.5048  0.6295
23352SOL    HW170634   0.193   2.217   2.332 -0.1320  0.1663  0.9714
23352SOL    HW270635   0.285   2.240   2.450  0.4686 -1.1257  0.7853
23353SOL     OW70636   4.493   9.384   1.857  0.2150  0.2398  0.1569
23353SOL    HW170637   4.573   9.435   1.861  0.6764 -0.3402 -1.0728
23353SOL    HW270638   4.424   9.448   1.842  1.0352  0.4436 -3.6733
23354SOL     OW70639   3.161   2.585   9.861  0.0932 -0.3055  0.2035
23354SOL    HW170640   3.143   2.521   9.793  0.3948  1.8072 -2.0026
23354SOL    HW270641   3.125   2.667   9.828  0.7161  0.9449  2.3786
23355SOL     OW70642   5.503   1.673   0.219 -0.7098  0.0571  0.6823
23355SOL    HW170643   5.440   1.639   0.283 -1.9727  0.8819 -0.0946
23355SOL    HW270644   5.466   1.649   0.134  0.0081  0.5929  0.2158
23356SOL     OW70645   3.293   6.697   0.294  0.6803  0.2371 -0.3817
23356SOL    HW170646   3.371   6.744   0.324  0.5176  0.7643 -0.7700
23356SOL    HW270647   3.318   6.663   0.209  1.2043 -1.4184  0.3917
23357SOL     OW70648   5.642   1.831   5.064  0.6024 -0.0726  0.2166
23357SOL    HW170649   5.574   1.836   4.996  0.1271  0.7715  0.7443
23357SOL    HW270650   5.596   1.847   5.146  1.5336  1.1986  0.5246
23358SOL     OW70651   5.279   2.022   0.311  0.7468 -0.1213  0.3093
23358SOL    HW170652   5.188   2.023   0.283  0.2154 -1.2020  1.8354
23358SOL    HW270653   5.318   1.947   0.266  0.5687 -0.3352  0.5079
23359SOL     OW70654   8.662   0.596   1.832  0.5237  0.1475  0.3979
23359SOL    HW170655   8.667   0.647   1.912 -0.8538  1.3276 -0.2276
23359SOL    HW270656   8.699   0.511   1.855  1.4041  0.9100  1.8905
23360SOL     OW70657   3.493   1.298   4.070 -0.0735 -0.3410  0.0489
23360SOL    HW170658   3.556   1.227   4.078  0.2992 -0.0994 -0.6097
23360SOL    HW270659   3.506   1.331   3.981 -0.3696  0.4222  0.2798
23361SOL     OW70660   8.223   1.457   4.257  0.1245  0.3272 -0.1368
23361SOL    HW170661   8.157   1.408   4.208 -0.2484  0.7995 -0.1127
23361SOL    HW270662   8.305   1.410   4.241  0.0710  0.6617 -1.4762
23362SOL     OW70663   4.402   4.680   9.374 -0.0524  0.3709 -0.0616
23362SOL    HW170664   4.365   4.764   9.348  0.7630  0.2833 -1.6129
23362SOL    HW270665   4.367   4.618   9.310  1.0075 -0.0932 -0.2078
23363SOL     OW70666   0.608   0.913   2.960  0.2219  1.4175 -0.2272
23363SOL    HW170667   0.589   0.821   2.978 -0.9487  1.4100 -1.3590
23363SOL    HW270668   0.684   0.912   2.903 -1.0884  0.9760 -2.0777
23364SOL     OW70669   1.667   7.416   1.447  0.2421  0.6439 -1.1631
23364SOL    HW170670   1.597   7.350   1.447  0.1401  0.7397 -0.1112
23364SOL    HW270671   1.636   7.483   1.386  0.2750 -0.1847 -2.1307
23365SOL     OW70672   7.005   9.064   7.206 -0.1564 -0.8468 -0.0656
23365SOL    HW170673   6.980   8.985   7.253  0.7251 -0.6222  0.8226
23365SOL    HW270674   6.934   9.127   7.225  0.4362 -0.5877  1.4424
23366SOL     OW70675   1.911   2.763   7.260 -0.0538 -0.1799  0.8220
23366SOL    HW170676   1.888   2.744   7.350  0.6589 -2.6167  0.5715
23366SOL    HW270677   2.007   2.770   7.260  0.5115 -4.6536 -0.2645
23367SOL     OW70678   5.301   3.240   2.387  0.1755  0.3094 -0.2842
23367SOL    HW170679   5.306   3.331   2.358 -0.3105  0.2910 -0.4484
23367SOL    HW270680   5.256   3.194   2.315 -0.7162  0.1931  0.3266
23368SOL     OW70681   1.858   8.112   3.859  0.4858 -0.7507 -0.1102
23368SOL    HW170682   1.924   8.055   3.820  0.8496 -0.6244  0.3319
23368SOL    HW270683   1.907   8.175   3.912 -0.0240 -1.1075  0.8060
23369SOL     OW70684   5.360   3.127   9.135 -0.2182  0.6148 -0.5789
23369SOL    HW170685   5.392   3.104   9.222 -2.5514 -0.8192 -0.0125
23369SOL    HW270686   5.405   3.209   9.114  4.1137 -1.4108 -0.2002
23370SOL     OW70687   5.126   5.959   3.834  0.1418 -0.2052  0.5809
23370SOL    HW170688   5.136   6.041   3.785 -2.5129 -0.7095 -0.9876
23370SOL    HW270689   5.181   5.896   3.786 -1.6137 -0.4429 -1.2480
23371SOL     OW70690   0.330   5.487   0.191  0.2167 -0.0179  0.8166
23371SOL    HW170691   0.253   5.544   0.194  0.7434  0.8417 -0.6958
23371SOL    HW270692   0.400   5.543   0.159  1.6471 -0.6422  2.6960
23372SOL     OW70693   6.880   2.903   9.202  0.0078  0.1559  0.3054
23372SOL    HW170694   6.972   2.919   9.224 -0.7370  3.8982  1.3965
23372SOL    HW270695   6.865   2.951   9.121 -0.8492 -1.0593 -0.2878
23373SOL     OW70696   8.177   1.955   6.378  0.3953 -0.5035  0.4449
23373SOL    HW170697   8.246   2.020   6.373  0.8825 -1.0743 -0.3193
23373SOL    HW270698   8.139   1.952   6.290  1.5496 -2.4963 -0.0446
23374SOL     OW70699   5.556   0.090   8.570  0.0394 -0.1548  0.5636
23374SOL    HW170700   5.582   0.076   8.661  0.8743  0.0113  0.3590
23374SOL    HW270701   5.468   0.128   8.576  0.1213 -0.0570  1.3037
23375SOL     OW70702   3.523   7.031   6.753  0.0253 -0.4562 -0.2987
23375SOL    HW170703   3.438   7.030   6.710  0.0528  0.0819 -0.3603
23375SOL    HW270704   3.566   7.110   6.722  1.3695 -1.7026 -1.8494
23376SOL     OW70705   0.401   9.503   3.544  0.4550 -0.3882  0.1705
23376SOL    HW170706   0.376   9.453   3.466  0.7938 -2.0996  1.1100
23376SOL    HW270707   0.328   9.490   3.605  0.4963  0.3796  0.3890
23377SOL     OW70708   7.813   8.422   1.871  0.0692  0.1614  0.0691
23377SOL    HW170709   7.794   8.345   1.818 -0.5544  1.0159 -0.9898
23377SOL    HW270710   7.792   8.496   1.814  0.7367  1.1193  1.0307
23378SOL     OW70711   3.385   8.823   8.615 -0.0167  0.0412  0.5418
23378SOL    HW170712   3.332   8.820   8.694  1.5930 -3.0269  1.6492
23378SOL    HW270713   3.399   8.917   8.599 -1.0361  0.7873  3.4304
23379SOL     OW70714   1.461   4.964   3.618  0.1012  1.0109  0.4634
23379SOL    HW170715   1.413   4.884   3.640 -0.2173  0.9689 -0.3376
23379SOL    HW270716   1.438   5.026   3.687 -1.8014  1.2623 -0.3513
23380SOL     OW70717   3.378   5.912   5.481  0.3993  0.1020 -0.1839
23380SOL    HW170718   3.440   5.850   5.443  0.8091  0.2817  0.1858
23380SOL    HW270719   3.402   5.917   5.573 -2.0125 -2.1094  0.7136
23381SOL     OW70720   7.104   1.972   3.753  0.0229 -0.4865 -0.2364
23381SOL    HW170721   7.014   1.978   3.721  0.2989  3.3718 -0.8380
23381SOL    HW270722   7.110   2.039   3.821  2.6401  0.0053 -0.8288
23382SOL     OW70723   3.478   7.011   9.230  0.6389 -0.2265 -0.6288
23382SOL    HW170724   3.548   7.021   9.294 -0.1533  0.4076  0.1683
23382SOL    HW270725   3.419   6.946   9.268 -1.6600  2.5702  1.0681
23383SOL     OW70726   1.635   1.168   4.847 -0.7036  0.8251  0.0770
23383SOL    HW170727   1.575   1.243   4.845 -1.7838  0.0568  1.5601
23383SOL    HW270728   1.585   1.099   4.889  1.0195 -0.0632  0.7568
23384SOL     OW70729   5.858   7.383   7.216  0.3100  0.0830  0.3299
23384SOL    HW170730   5.827   7.371   7.126  1.5426 -0.2994 -0.0611
23384SOL    HW270731   5.893   7.297   7.240  1.8939  0.7168  0.4050
23385SOL     OW70732   4.161   0.769   4.147 -0.2808 -0.9114  0.2906
23385SOL    HW170733   4.090   0.824   4.181  0.3479  0.1236 -0.0273
23385SOL    HW270734   4.152   0.774   4.052 -1.1171 -2.5826  0.2591
23386SOL     OW70735   9.550   6.760   1.520  0.0447 -0.3260 -0.2737
23386SOL    HW170736   9.522   6.671   1.540 -0.0569 -0.2846 -0.2298
23386SOL    HW270737   9.472   6.803   1.485 -0.0594 -0.0857  0.2453
23387SOL     OW70738   0.270   9.990   3.375  0.1151 -0.2122  0.5788
23387SOL    HW170739   0.218   9.914   3.348  1.8547 -0.8623 -1.2499
23387SOL    HW270740   0.309   9.963   3.458  1.7283 -1.9607 -0.6392
23388SOL     OW70741   7.477   1.371   3.464 -0.4289  0.0795  0.3559
23388SOL    HW170742   7.519   1.456   3.475 -1.4432  0.5121  1.0311
23388SOL    HW270743   7.545   1.307   3.485  0.5030  0.6919 -0.6769
23389SOL     OW70744   9.011   0.574   6.522 -0.2595  0.1458 -0.3441
23389SOL    HW170745   9.022   0.605   6.432 -0.8935  0.8551 -0.1859
23389SOL    HW270746   8.994   0.654   6.573 -0.7477 -0.3352  0.2646
23390SOL     OW70747   9.221   0.509   3.449 -0.3365 -0.5734  0.1051
23390SOL    HW170748   9.188   0.430   3.493 -0.6524  0.0602  1.0297
23390SOL    HW270749   9.147   0.542   3.400  0.2895 -1.8612 -1.8287
23391SOL     OW70750   6.386   3.874   5.438 -0.5301 -0.9643 -0.6869
23391SOL    HW170751   6.351   3.896   5.351 -2.0252  1.9727  0.5358
23391SOL    HW270752   6.310   3.878   5.496  0.1494 -4.3119  0.6633
23392SOL     OW70753   4.186   7.634   8.862 -0.0187  0.0402 -0.1500
23392SOL    HW170754   4.191   7.571   8.790  1.6010  0.0550 -0.0782
23392SOL    HW270755   4.168   7.581   8.940  0.2259 -0.2096 -0.2634
23393SOL     OW70756   9.126   4.685   3.742  0.1113 -0.2899 -0.0291
23393SOL    HW170757   9.057   4.750   3.755  1.2469  1.0339 -0.3944
23393SOL    HW270758   9.182   4.693   3.818 -0.3305 -1.6551  0.4696
23394SOL     OW70759   8.734   6.130   7.710  0.3351  0.3244  0.1436
23394SOL    HW170760   8.805   6.078   7.674 -1.8143 -1.8922 -1.2243
23394SOL    HW270761   8.657   6.104   7.660 -1.1842  3.9581  0.2766
23395SOL     OW70762   2.741   6.864   2.823  0.1103 -0.0912  0.9434
23395SOL    HW170763   2.830   6.897   2.810  0.0391 -0.2019  0.1809
23395SOL    HW270764   2.694   6.889   2.744 -0.1226 -1.4513  0.6281
23396SOL     OW70765   2.594   6.681   5.404 -0.0467  0.2900 -0.6488
23396SOL    HW170766   2.621   6.677   5.312 -0.7413 -1.4102 -0.8206
23396SOL    HW270767   2.676   6.680   5.453  0.3485 -1.9725 -1.2244
23397SOL     OW70768   9.727   7.352   9.276  0.4039  0.1558  0.3001
23397SOL    HW170769   9.723   7.257   9.278  0.5114  0.1604  1.7754
23397SOL    HW270770   9.665   7.378   9.208  0.4450 -0.9619 -0.1766
23398SOL     OW70771   9.804   5.525   2.747  0.1813 -0.1139 -0.0879
23398SOL    HW170772   9.741   5.595   2.761  0.3085 -0.0537  0.1852
23398SOL    HW270773   9.824   5.528   2.653  1.8527  1.6275  0.2717
23399SOL     OW70774   1.509   5.624   2.664  0.5097  0.1852  0.0107
23399SOL    HW170775   1.510   5.544   2.612  0.9060  0.6210 -0.6732
23399SOL    HW270776   1.451   5.605   2.737 -1.0297 -0.0678 -1.2180
23400SOL     OW70777   5.375   0.447   9.346  0.6859 -0.2349  0.1487
23400SOL    HW170778   5.446   0.509   9.360  0.5489 -0.1553  0.5052
23400SOL    HW270779   5.418   0.361   9.350  0.7522 -0.1897  0.4249
23401SOL     OW70780   7.111   2.938   0.427  0.4170  0.0066 -0.1520
23401SOL    HW170781   7.035   2.911   0.375  0.6792 -0.0949 -0.4853
23401SOL    HW270782   7.121   2.868   0.491 -0.0575  0.2538  0.1978
23402SOL     OW70783   0.014   4.551   6.672 -0.7364  0.0431 -0.2635
23402SOL    HW170784   0.059   4.611   6.611  0.0052  0.0120  0.2460
23402SOL    HW270785   0.084   4.497   6.709 -1.4908 -1.9540 -1.5536
23403SOL     OW70786   3.368   8.793   4.141 -0.2312 -0.4209 -0.2307
23403SOL    HW170787   3.451   8.842   4.134 -0.1907 -0.6827 -4.3916
23403SOL    HW270788   3.301   8.861   4.144 -0.0086 -0.0044 -2.5776
23404SOL     OW70789   0.528   8.451   5.934  0.0951 -0.0538 -0.4196
23404SOL    HW170790   0.479   8.531   5.917 -0.6774 -0.3090  0.5308
23404SOL    HW270791   0.471   8.400   5.991  0.3286 -1.5373 -1.4633
23405SOL     OW70792   9.876   5.707   4.489  0.4843 -0.5855  0.2520
23405SOL    HW170793   9.813   5.713   4.561  0.6750 -1.9460  0.5747
23405SOL    HW270794   9.961   5.702   4.533  0.4779 -3.9170  0.1715
23406SOL     OW70795   1.354   2.570   1.928  0.2481 -0.7554 -0.5887
23406SOL    HW170796   1.349   2.490   1.876 -0.0137 -0.0236 -1.7255
23406SOL    HW270797   1.326   2.544   2.016  0.3614 -1.9393 -0.8886
23407SOL     OW70798   2.487   0.634   0.767  0.1629  0.2005  0.0869
23407SOL    HW170799   2.561   0.676   0.811  0.3468  0.7318 -0.6970
23407SOL    HW270800   2.460   0.564   0.826  0.8686  0.4237  0.6893
23408SOL     OW70801   2.754   2.711   0.407 -0.3294 -0.2151 -0.1496
23408SOL    HW170802   2.727   2.755   0.326  0.4228  2.5177  0.9760
23408SOL    HW270803   2.840   2.674   0.386 -0.3561  0.0393 -0.7419
23409SOL     OW70804   6.083   7.310   6.999 -0.2760 -0.4047  0.0187
23409SOL    HW170805   6.073   7.402   6.975 -0.2251 -0.0721  1.2179
23409SOL    HW270806   6.084   7.264   6.915 -2.0056  0.5005 -0.5559
23410SOL     OW70807   9.080   1.535   6.633 -0.2582 -0.0598  0.4193
23410SOL    HW170808   9.002   1.553   6.579  0.4016  1.9958  0.0531
23410SOL    HW270809   9.073   1.596   6.706  0.4241 -0.6888  1.0246
23411SOL     OW70810   2.411   1.211   8.416  0.1753  0.1301 -0.2979
23411SOL    HW170811   2.388   1.163   8.337 -1.2963  0.0612  0.1484
23411SOL    HW270812   2.368   1.163   8.487  0.6256  0.7757  0.4343
23412SOL     OW70813   7.467   6.312   8.837  0.5217  0.3083  0.3850
23412SOL    HW170814   7.394   6.304   8.897 -1.0100  0.0760 -1.4093
23412SOL    HW270815   7.443   6.257   8.762  2.1611  0.8577 -0.6084
23413SOL     OW70816   8.259   4.100   0.741 -0.7759 -0.3136 -0.2648
23413SOL    HW170817   8.315   4.114   0.665 -0.5026  1.2436  0.1973
23413SOL    HW270818   8.274   4.176   0.797 -1.3301 -1.1947  1.1357
23414SOL     OW70819   7.749   9.503   4.597  0.1560  0.0228 -0.6803
23414SOL    HW170820   7.658   9.531   4.607  0.2115 -0.1582  0.4775
23414SOL    HW270821   7.755   9.471   4.507 -1.4469 -1.7291 -0.2251
23415SOL     OW70822   2.780   8.246   5.371  0.0563 -0.0045  0.8642
23415SOL    HW170823   2.710   8.203   5.324 -0.8424 -0.8856  2.8749
23415SOL    HW270824   2.747   8.333   5.391  0.4576  0.3853 -0.1405
23416SOL     OW70825   4.230   2.042   9.150  0.0691 -0.1190 -0.1630
23416SOL    HW170826   4.147   2.003   9.178  0.4387 -0.3840  0.5937
23416SOL    HW270827   4.284   1.967   9.123  0.5756 -0.0982  0.7417
23417SOL     OW70828   0.733   5.601   7.404 -0.1680 -0.2585  0.0174
23417SOL    HW170829   0.659   5.662   7.394  0.4502  0.6274  0.7324
23417SOL    HW270830   0.719   5.560   7.489 -0.6382 -1.2196 -0.5080
23418SOL     OW70831   8.070   3.071   2.919 -0.3321  0.2009  0.4141
23418SOL    HW170832   8.146   3.126   2.900  0.8379 -1.5946 -0.5029
23418SOL    HW270833   8.045   3.094   3.009  0.8077  1.4107  0.4476
23419SOL     OW70834   7.497   3.838   8.737  0.4331  0.5212  0.2453
23419SOL    HW170835   7.439   3.824   8.812  1.9294 -2.2067  1.0384
23419SOL    HW270836   7.572   3.885   8.772  0.7644 -0.0366  0.2982
23420SOL     OW70837   9.613   9.595   7.789 -0.2433 -0.1668 -0.1323
23420SOL    HW170838   9.606   9.523   7.727 -1.0719 -0.1421 -0.0793
23420SOL    HW270839   9.562   9.567   7.865 -0.7899  0.5690 -0.2113
23421SOL     OW70840   4.242   7.639   9.826 -0.0753  0.5759  0.7560
23421SOL    HW170841   4.215   7.554   9.791 -0.1461  0.4398  1.1428
23421SOL    HW270842   4.295   7.618   9.903 -1.5669  0.9153  1.9150
23422SOL     OW70843   6.399   6.977   2.638 -0.0335 -0.0131 -0.3022
23422SOL    HW170844   6.307   6.959   2.656 -0.3414  0.9412 -0.8419
23422SOL    HW270845   6.444   6.897   2.662 -0.8840 -0.1585  0.8981
23423SOL     OW70846   9.571   1.229   1.868 -0.2079  0.6268  0.1099
23423SOL    HW170847   9.568   1.151   1.813 -0.8486  1.5307 -1.1899
23423SOL    HW270848   9.584   1.301   1.807 -2.5750  1.8536  0.9203
23424SOL     OW70849   8.163   7.466   1.326  0.0667  0.0918 -0.5468
23424SOL    HW170850   8.112   7.407   1.270  1.7670 -0.6854 -1.3533
23424SOL    HW270851   8.249   7.469   1.285  0.5017  1.8810  0.4037
23425SOL     OW70852   2.517   3.721   5.155  0.6203 -0.1077 -0.2510
23425SOL    HW170853   2.463   3.695   5.081 -0.4521  0.1309  0.4120
23425SOL    HW270854   2.501   3.654   5.221 -2.5857  2.2029  1.6688
23426SOL     OW70855   7.160   9.175   4.534  0.2901  0.2719  0.5371
23426SOL    HW170856   7.070   9.199   4.511 -0.2715 -1.5235  0.7359
23426SOL    HW270857   7.206   9.172   4.450 -0.2839 -0.5201  0.2376
23427SOL     OW70858   3.122   3.852   7.471 -0.1642 -0.3638  0.2129
23427SOL    HW170859   3.062   3.897   7.531 -1.0354  0.0572 -0.9352
23427SOL    HW270860   3.065   3.812   7.405  0.8232  1.5684 -1.9619
23428SOL     OW70861   3.563   6.741   7.485 -0.0316 -0.9028  0.1316
23428SOL    HW170862   3.512   6.794   7.423  1.3187  0.9072  0.4913
23428SOL    HW270863   3.579   6.659   7.438  0.9205  0.3846 -1.9592
23429SOL     OW70864   3.050   0.046   3.496  0.0586 -0.3334  0.3217
23429SOL    HW170865   2.995   0.005   3.430 -1.0282  0.4713  0.6882
23429SOL    HW270866   3.108  -0.023   3.526  0.6752 -0.6737 -1.5620
23430SOL     OW70867   8.113   3.569   5.654 -0.0071  0.0211 -0.0149
23430SOL    HW170868   8.207   3.552   5.642  0.0506 -0.1625  0.6663
23430SOL    HW270869   8.071   3.487   5.628  0.0301  0.0348 -0.1223
23431SOL     OW70870   6.535   6.931   1.021 -0.3598  0.7773 -0.5609
23431SOL    HW170871   6.495   7.016   1.001  1.5078  1.7827 -0.3043
23431SOL    HW270872   6.625   6.940   0.991 -0.2708 -1.3639 -1.0894
23432SOL     OW70873   6.388   6.690   9.435  0.2747 -0.0046  0.3039
23432SOL    HW170874   6.465   6.709   9.382 -0.5193 -1.4756 -1.4888
23432SOL    HW270875   6.317   6.680   9.371 -0.7308 -1.9185  1.6127
23433SOL     OW70876   6.393   6.082   7.107 -0.4294 -0.2789 -0.3497
23433SOL    HW170877   6.316   6.029   7.127 -0.3478 -0.8665 -1.5609
23433SOL    HW270878   6.399   6.143   7.181  0.5117 -3.0737  2.0933
23434SOL     OW70879   4.888   6.327   9.013  0.0715 -0.2678 -0.8197
23434SOL    HW170880   4.799   6.348   8.984 -0.7243 -0.4801  1.2687
23434SOL    HW270881   4.928   6.412   9.030  0.2260 -0.1766 -1.6053
23435SOL     OW70882   9.711   2.564   6.251 -0.2436  0.4091 -0.0381
23435SOL    HW170883   9.798   2.543   6.217 -0.7414  1.3885 -2.0659
23435SOL    HW270884   9.717   2.544   6.345  1.5792 -1.2936 -0.4481
23436SOL     OW70885   9.660   5.324   0.035  0.6167 -0.1249 -0.4140
23436SOL    HW170886   9.620   5.367   0.111 -1.6086 -0.7170 -1.1625
23436SOL    HW270887   9.586   5.281  -0.009  2.3472 -2.6113 -1.0650
23437SOL     OW70888   8.981   5.507   6.306 -0.1205  0.4600 -0.2392
23437SOL    HW170889   9.046   5.475   6.243 -1.5307  1.1000 -2.0957
23437SOL    HW270890   8.897   5.477   6.271 -1.0451  1.8018  0.7397
23438SOL     OW70891   8.590   4.929   3.740 -0.2682  0.1348 -0.4403
23438SOL    HW170892   8.604   5.005   3.797  0.8431 -0.5892  0.2842
23438SOL    HW270893   8.532   4.961   3.672  0.1149  1.6256 -0.1014
23439SOL     OW70894   4.127   9.563   9.107 -0.0172  0.4283  0.0926
23439SOL    HW170895   4.093   9.594   9.192  1.2845 -0.5397  1.0039
23439SOL    HW270896   4.138   9.469   9.119 -3.2437 -0.4441 -2.3940
23440SOL     OW70897   9.849   6.734   1.467 -0.3268 -0.0869 -0.3852
23440SOL    HW170898   9.846   6.826   1.441 -0.2834  1.2494  3.6705
23440SOL    HW270899   9.758   6.712   1.488 -0.0994 -0.4059  0.2819
23441SOL     OW70900   9.100   6.239   4.050 -0.5068 -0.0076 -0.0009
23441SOL    HW170901   9.052   6.319   4.073 -0.8519 -0.0444 -0.5915
23441SOL    HW270902   9.106   6.240   3.955 -0.0212 -0.4077  0.0194
23442SOL     OW70903   6.963   4.506   1.651  0.7215 -0.3058 -0.0594
23442SOL    HW170904   7.032   4.548   1.600 -1.7097  2.1415 -1.6074
23442SOL    HW270905   6.925   4.576   1.704 -3.7416 -0.0530 -3.0060
23443SOL     OW70906   0.237   3.339   0.774 -0.2120 -0.5042 -0.8845
23443SOL    HW170907   0.279   3.422   0.797  0.5642 -1.3738  1.1082
23443SOL    HW270908   0.149   3.346   0.809  0.3031 -1.0105  0.6081
23444SOL     OW70909   4.001   5.747   2.425 -0.0143 -0.1943 -0.0391
23444SOL    HW170910   3.982   5.676   2.486 -0.8537  0.2436  0.2226
23444SOL    HW270911   3.977   5.713   2.339 -1.0767 -0.0014  0.1684
23445SOL     OW70912   2.292   3.242   7.333  0.4630  0.2208  0.1448
23445SOL    HW170913   2.387   3.228   7.338  0.6704  1.2672 -0.5927
23445SOL    HW270914   2.282   3.314   7.272 -0.9097 -0.9618 -1.0956
23446SOL     OW70915   8.267   4.123   6.211  0.7722  0.8160 -0.4999
23446SOL    HW170916   8.332   4.116   6.281 -1.0411  1.2389  1.3051
23446SOL    HW270917   8.252   4.217   6.202 -1.7065  0.6863  1.2620
23447SOL     OW70918   1.343   9.284   5.791 -0.3425  0.2017  0.4587
23447SOL    HW170919   1.324   9.210   5.734 -0.8419 -0.7666  1.8085
23447SOL    HW270920   1.259   9.328   5.803 -1.2127 -1.9066  3.4647
23448SOL     OW70921   9.651   5.194   2.416  0.3122 -0.0121  0.0806
23448SOL    HW170922   9.711   5.123   2.439 -1.5424 -1.4586  0.6951
23448SOL    HW270923   9.587   5.153   2.358  0.0216  1.5522 -0.7591
23449SOL     OW70924   3.567   8.835   5.788  0.0658  0.2343 -0.3400
23449SOL    HW170925   3.562   8.836   5.692 -1.0914 -0.1971 -0.2958
23449SOL    HW270926   3.618   8.913   5.810 -0.2864  0.7447 -1.2783
23450SOL     OW70927   8.360   1.269   6.835 -0.3224  0.5670  0.3217
23450SOL    HW170928   8.346   1.189   6.783 -0.0706  0.5412  0.2906
23450SOL    HW270929   8.287   1.326   6.812  0.2554  0.9061 -0.7400
23451SOL     OW70930   1.636   4.526   3.007 -0.0360  0.3228  0.2078
23451SOL    HW170931   1.600   4.523   3.096  0.8123  0.5642  0.5758
23451SOL    HW270932   1.716   4.578   3.016  0.5210 -0.3748 -0.5297
23452SOL     OW70933   1.695   7.960   3.716 -1.0817  0.3107  0.3850
23452SOL    HW170934   1.616   8.015   3.719 -0.5812  1.0716 -0.1745
23452SOL    HW270935   1.759   8.007   3.769 -0.2731  0.9080 -1.0499
23453SOL     OW70936   2.494   9.296   2.725 -0.2477  0.4716 -0.2921
23453SOL    HW170937   2.539   9.219   2.758  1.3552  1.4615 -0.0347
23453SOL    HW270938   2.430   9.318   2.793  1.9687  1.5970  1.6052
23454SOL     OW70939   6.917   8.151   9.756  0.2604 -0.3174  0.3153
23454SOL    HW170940   7.004   8.169   9.792  0.8990 -1.7765 -0.4276
23454SOL    HW270941   6.905   8.217   9.688  0.9766 -0.3536  0.1415
23455SOL     OW70942   3.155   3.767   2.364 -0.0889  0.1126  0.4950
23455SOL    HW170943   3.132   3.860   2.363 -0.2121  0.0826  0.3634
23455SOL    HW270944   3.250   3.765   2.361 -0.0737  0.2397  0.8610
23456SOL     OW70945   2.162   4.897   6.633  0.3005 -0.6264 -0.3275
23456SOL    HW170946   2.242   4.844   6.635 -0.3012 -1.5995  2.1608
23456SOL    HW270947   2.135   4.902   6.724 -1.9296  0.5642 -0.9908
23457SOL     OW70948   9.756   0.994   2.305  0.4404 -0.5348  0.4461
23457SOL    HW170949   9.726   0.928   2.243 -1.0922 -0.6906  1.3157
23457SOL    HW270950   9.763   1.074   2.254  1.8079 -1.2103 -0.5005
23458SOL     OW70951   8.928   2.797   2.888 -0.2622 -0.1776  0.5655
23458SOL    HW170952   8.946   2.816   2.796  0.3389 -0.2105  0.6732
23458SOL    HW270953   9.003   2.834   2.935  0.7212 -2.3552  0.8271
23459SOL     OW70954   7.646   7.244   2.330  0.0946 -0.0278 -0.0104
23459SOL    HW170955   7.597   7.271   2.408 -0.2829  0.4514 -0.4056
23459SOL    HW270956   7.589   7.268   2.257  0.1456 -1.0918 -0.4145
23460SOL     OW70957   3.168   2.793   2.159  0.7032 -0.1149  0.2399
23460SOL    HW170958   3.131   2.829   2.078 -0.7293 -0.2444  0.8043
23460SOL    HW270959   3.116   2.833   2.229  3.2652  1.6581  1.2817
23461SOL     OW70960   6.428   2.223   8.127  0.0713 -0.4404  0.0940
23461SOL    HW170961   6.336   2.198   8.121 -0.1478  0.2689  0.3845
23461SOL    HW270962   6.468   2.189   8.047 -0.4253 -0.8319  0.0113
23462SOL     OW70963   3.840   8.923   9.420  0.0227 -0.3136 -0.0294
23462SOL    HW170964   3.800   9.003   9.454  0.0631 -0.2407 -0.1529
23462SOL    HW270965   3.924   8.917   9.467  0.1035 -0.1828 -0.1536
23463SOL     OW70966   0.569   1.250   9.550 -0.0033  0.2441 -0.3788
23463SOL    HW170967   0.609   1.286   9.470 -0.0249  0.5913 -0.2356
23463SOL    HW270968   0.587   1.315   9.617  0.1363 -0.1148 -0.0638
23464SOL     OW70969   4.898   4.096   3.982  0.3647  0.7146 -0.2707
23464SOL    HW170970   4.842   4.081   3.906  1.2950  0.1818 -0.8704
23464SOL    HW270971   4.985   4.110   3.945  0.8437  0.3748  0.6972
23465SOL     OW70972   3.617   1.680   1.914  0.5966 -1.0526 -0.6785
23465SOL    HW170973   3.634   1.634   1.832  1.0809 -1.5254 -0.3241
23465SOL    HW270974   3.687   1.744   1.921 -0.1872 -0.1035 -1.2661
23466SOL     OW70975   1.379   9.676   9.078 -0.1146 -0.0708 -1.3092
23466SOL    HW170976   1.427   9.593   9.088 -1.4089 -1.0534 -2.7936
23466SOL    HW270977   1.287   9.650   9.078 -0.5023  1.1623 -3.3971
23467SOL     OW70978   7.144   4.236   5.969 -0.5466  0.3535 -0.3871
23467SOL    HW170979   7.073   4.175   5.985  0.2299 -0.3461  0.5038
23467SOL    HW270980   7.219   4.199   6.015  0.4593  0.9720 -1.4513
23468SOL     OW70981   1.041   9.993   9.948  0.1879  0.1933  0.0481
23468SOL    HW170982   1.103   9.938   9.900 -0.9526 -0.7338 -0.4228
23468SOL    HW270983   0.962   9.994   9.893 -0.3836  0.9281  0.8530
23469SOL     OW70984   3.782   3.655   5.131 -0.6292  0.0684 -0.3408
23469SOL    HW170985   3.734   3.735   5.153  0.1272 -0.0617  2.1344
23469SOL    HW270986   3.722   3.605   5.076 -3.0178  0.3579  1.8155
23470SOL     OW70987   2.973   9.949   8.349 -0.0865  0.1071  0.3512
23470SOL    HW170988   2.972   9.989   8.263 -0.6565 -0.2913  0.1667
23470SOL    HW270989   3.045   9.886   8.345  3.3867  3.5445  1.8237
23471SOL     OW70990   4.055   3.830   2.871  0.0573  0.4373  0.2608
23471SOL    HW170991   4.033   3.751   2.821  2.0638 -0.0361  0.0015
23471SOL    HW270992   4.136   3.806   2.918 -0.4766  1.6461  1.8994
23472SOL     OW70993   8.400   5.581   4.159 -0.1213  0.2589  0.4728
23472SOL    HW170994   8.424   5.493   4.186 -0.4664 -0.3222 -1.0114
23472SOL    HW270995   8.480   5.618   4.121  0.0036  0.5701  1.0240
23473SOL     OW70996   2.190   5.972   4.132 -0.3623  0.7543 -0.3237
23473SOL    HW170997   2.148   5.907   4.187 -2.3499  0.0481 -2.4990
23473SOL    HW270998   2.174   6.056   4.176  2.7599 -0.0621  2.8331
23474SOL     OW70999   4.791   5.599   8.489 -0.0594 -0.1068 -0.1568
23474SOL    HW171000   4.741   5.665   8.441 -1.7943 -0.9079  0.4567
23474SOL    HW271001   4.882   5.628   8.482 -0.7884  2.6918  0.6103
23475SOL     OW71002   5.951   6.952   6.941  0.5979 -0.0305 -0.7411
23475SOL    HW171003   5.998   7.035   6.938 -0.8334  0.8186 -0.5951
23475SOL    HW271004   5.934   6.937   7.034  2.4494 -1.4576 -0.5883
23476SOL     OW71005   8.137   9.847   3.650  0.5799 -0.1441 -0.1761
23476SOL    HW171006   8.163   9.813   3.565 -0.5007  0.2638 -0.6762
23476SOL    HW271007   8.203   9.914   3.670  1.2623 -0.7578 -0.3391
23477SOL     OW71008   9.175   8.313   3.122 -0.5551  0.7818  0.1273
23477SOL    HW171009   9.203   8.402   3.144 -2.9708  1.8779 -0.8961
23477SOL    HW271010   9.207   8.299   3.033  0.0156  0.5171  0.3681
23478SOL     OW71011   5.431   7.666   1.183  0.1201 -0.1685 -0.2674
23478SOL    HW171012   5.433   7.677   1.278 -1.0378  1.5311 -0.3901
23478SOL    HW271013   5.345   7.699   1.156  1.2048  1.3679 -2.1130
23479SOL     OW71014   4.529   0.866   9.390  0.0483  0.3303 -0.0141
23479SOL    HW171015   4.558   0.954   9.414  0.8236  0.1538 -0.2685
23479SOL    HW271016   4.577   0.808   9.450 -0.3305  0.0661  0.0415
23480SOL     OW71017   9.076   5.148   6.069 -0.0634  0.2446 -0.0059
23480SOL    HW171018   9.027   5.069   6.094 -0.0278  0.5774  1.1866
23480SOL    HW271019   9.159   5.114   6.035  0.0905 -0.2360  0.8147
23481SOL     OW71020   5.399   2.278   2.251 -0.6560 -0.1835  0.0071
23481SOL    HW171021   5.487   2.247   2.233 -1.1099 -1.5575  0.0049
23481SOL    HW271022   5.392   2.361   2.204  0.5472 -0.1724 -0.1706
23482SOL     OW71023   6.106   2.018   2.687 -0.1801  0.0141  0.3571
23482SOL    HW171024   6.142   2.002   2.600 -1.5466  2.0646 -0.6703
23482SOL    HW271025   6.182   2.021   2.745  0.7215 -1.7557 -0.6696
23483SOL     OW71026   9.002   9.832   2.631  0.3016  0.6548  0.0973
23483SOL    HW171027   9.069   9.844   2.698  0.4682 -3.6762  0.9744
23483SOL    HW271028   8.919   9.853   2.675  0.6803  1.5678  0.4023
23484SOL     OW71029   4.415   8.166   6.388 -0.4489 -0.3531 -0.1661
23484SOL    HW171030   4.427   8.104   6.460 -2.1241 -0.8725 -0.2965
23484SOL    HW271031   4.343   8.222   6.417  0.6364  1.1997 -0.3101
23485SOL     OW71032   9.265   4.429   1.758  0.3049 -0.4510  0.2546
23485SOL    HW171033   9.229   4.367   1.821  2.0511 -0.0233  1.7639
23485SOL    HW271034   9.281   4.378   1.680 -3.6616 -0.6355 -0.6698
23486SOL     OW71035   2.918   3.001   0.502  0.0033  0.2859 -0.0537
23486SOL    HW171036   2.861   2.997   0.425  0.7204 -0.1762 -0.5807
23486SOL    HW271037   2.880   3.069   0.557 -1.3147 -0.3248 -0.1731
23487SOL     OW71038   1.138   4.435   6.968 -0.4658  0.4358 -0.1411
23487SOL    HW171039   1.115   4.418   6.877 -0.9732 -0.1395  0.0836
23487SOL    HW271040   1.219   4.486   6.964  0.2346 -0.7066 -0.8920
23488SOL     OW71041   9.731   9.637  -0.012 -0.3112 -0.0298 -0.6799
23488SOL    HW171042   9.821   9.608  -0.031  0.0706  1.0721 -0.5933
23488SOL    HW271043   9.717   9.613   0.079 -0.1441 -0.2973 -0.7228
23489SOL     OW71044   7.429   5.326   8.872 -0.2445  0.0346  0.2188
23489SOL    HW171045   7.492   5.294   8.808 -0.1872 -0.7756  0.6590
23489SOL    HW271046   7.344   5.320   8.827 -0.1866 -0.3855  0.1577
23490SOL     OW71047   2.323   5.900   2.515 -0.2526  0.4412  0.0913
23490SOL    HW171048   2.376   5.919   2.437 -2.0410 -3.1386 -2.3045
23490SOL    HW271049   2.382   5.853   2.573  0.4536  0.8814 -0.2472
23491SOL     OW71050   5.923   5.688   2.982  0.7700  0.1708 -1.0403
23491SOL    HW171051   5.988   5.618   2.977  0.5817 -0.0353 -0.6524
23491SOL    HW271052   5.958   5.758   2.926 -0.8462 -1.6335 -4.6383
23492SOL     OW71053   1.749   0.305   0.016 -0.3117  0.3935  0.1156
23492SOL    HW171054   1.835   0.302   0.059 -1.2261  1.4941  2.1694
23492SOL    HW271055   1.735   0.398  -0.002 -1.1782  0.2510  0.0405
23493SOL     OW71056   8.455   4.732   0.998 -0.3095  0.1007  0.4213
23493SOL    HW171057   8.374   4.763   1.038 -1.6478 -1.8123 -0.5866
23493SOL    HW271058   8.457   4.776   0.913 -1.5468 -1.4571 -0.4857
23494SOL     OW71059   0.471   6.352   9.661 -0.3387 -0.3147 -0.2126
23494SOL    HW171060   0.478   6.274   9.605 -0.0632  0.5930 -1.4789
23494SOL    HW271061   0.427   6.320   9.740  1.1854 -2.0963 -0.0148
23495SOL     OW71062   5.177   0.977   9.089 -0.2877  0.5669 -0.1952
23495SOL    HW171063   5.259   0.932   9.106  1.1861  2.9522 -0.6115
23495SOL    HW271064   5.119   0.909   9.055  1.1833 -1.3656  0.9507
23496SOL     OW71065   8.098   4.615   4.164  0.0688 -0.3761  0.2072
23496SOL    HW171066   8.109   4.672   4.239 -0.4988 -1.2806  1.0085
23496SOL    HW271067   8.087   4.674   4.090  1.3548  0.5252  0.7101
23497SOL     OW71068   0.065   9.090   3.914  0.2802  0.3663  0.0855
23497SOL    HW171069   0.042   9.087   4.007  1.7274 -2.1297  0.4581
23497SOL    HW271070   0.139   9.152   3.910 -0.9774  1.9496  0.2168
23498SOL     OW71071   5.297   8.707   9.087  0.1237  0.4997  0.2186
23498SOL    HW171072   5.291   8.755   9.004  1.3303 -1.8154 -1.3265
23498SOL    HW271073   5.206   8.695   9.114 -0.3390  0.6022 -1.2193
23499SOL     OW71074   7.064   4.203   0.834  0.3868  0.1867 -0.0487
23499SOL    HW171075   7.038   4.177   0.922  1.2324  1.6441  0.6620
23499SOL    HW271076   7.147   4.157   0.820 -1.4013 -2.9355 -1.5749
23500SOL     OW71077   5.744   4.653   3.623  0.2397  0.2500 -0.3583
23500SOL    HW171078   5.710   4.673   3.711 -0.2951 -0.6105 -0.3600
23500SOL    HW271079   5.687   4.702   3.564  1.2244  1.6477 -0.1978
23501SOL     OW71080   9.154   7.847   7.896 -0.0681 -0.3659  0.2126
23501SOL    HW171081   9.140   7.934   7.933 -0.9442  0.3996 -1.7441
23501SOL    HW271082   9.219   7.861   7.827 -0.6499 -1.1483 -0.5109
23502SOL     OW71083   8.072   4.659   2.526  0.6964 -0.8010 -0.3333
23502SOL    HW171084   8.022   4.739   2.538  0.1275 -0.9876 -1.3719
23502SOL    HW271085   8.074   4.618   2.613 -0.9636 -0.8043 -0.2799
23503SOL     OW71086   2.594   9.063   6.443 -0.4587 -0.3279  0.3905
23503SOL    HW171087   2.509   9.029   6.471 -0.9493 -0.2646 -0.9365
23503SOL    HW271088   2.586   9.158   6.451 -0.2744 -0.3520  0.8895
23504SOL     OW71089   9.567   1.427   0.989 -0.5663 -0.0341  0.0564
23504SOL    HW171090   9.537   1.518   0.985 -1.6788 -0.3217  1.4448
23504SOL    HW271091   9.512   1.386   1.055 -1.5879 -2.2995 -2.0567
23505SOL     OW71092   4.587   0.928   3.144  0.2324  0.6997 -0.5131
23505SOL    HW171093   4.644   0.875   3.200 -0.4934  1.5974  1.1817
23505SOL    HW271094   4.555   0.998   3.202 -0.8686  1.4795 -1.9788
23506SOL     OW71095   4.003   0.949   6.362 -0.2196 -0.5354 -0.2449
23506SOL    HW171096   3.920   0.988   6.334  0.3673 -0.3570 -1.8939
23506SOL    HW271097   3.991   0.855   6.350 -1.0819 -0.8116  2.1871
23507SOL     OW71098   7.063   3.499   9.361 -0.3093 -0.2902 -0.0367
23507SOL    HW171099   6.977   3.540   9.365  0.1806  0.9255 -1.1693
23507SOL    HW271100   7.080   3.469   9.450 -1.9531 -0.7027  0.1712
23508SOL     OW71101   0.909   5.819   0.817  0.3419  0.0440 -0.6030
23508SOL    HW171102   0.987   5.763   0.823  0.1430 -0.2774 -0.9753
23508SOL    HW271103   0.887   5.821   0.724  0.6319  1.1548 -0.6641
23509SOL     OW71104   7.087   1.849   2.894  0.1230  0.2378 -0.4743
23509SOL    HW171105   7.109   1.781   2.957 -0.0869 -1.9550 -2.6447
23509SOL    HW271106   7.010   1.892   2.932  0.2941 -0.6754  0.9809
23510SOL     OW71107   8.379   3.672   1.569  0.2296 -0.3691 -0.0661
23510SOL    HW171108   8.397   3.701   1.658 -0.8278  0.8169 -0.2152
23510SOL    HW271109   8.452   3.709   1.518 -0.3158  0.8478 -0.0148
23511SOL     OW71110   7.038   6.503   7.746 -0.5945 -0.4546 -0.1443
23511SOL    HW171111   7.116   6.553   7.769 -1.4853  0.9937 -0.1793
23511SOL    HW271112   7.045   6.423   7.799  0.4342  0.0794  0.5686
23512SOL     OW71113   7.710   6.414   9.745  0.3893  0.1016  0.5258
23512SOL    HW171114   7.712   6.456   9.659 -0.9121  0.2141  0.5321
23512SOL    HW271115   7.623   6.433   9.779 -0.6166 -3.2530  0.1957
23513SOL     OW71116   3.718   6.116   0.334  0.1905 -0.4536  0.3940
23513SOL    HW171117   3.681   6.191   0.379  2.4330  1.4874 -0.8124
23513SOL    HW271118   3.660   6.102   0.259  0.0092  0.3734  0.3758
23514SOL     OW71119   6.557   2.173   8.388  0.1293  0.1983 -0.2145
23514SOL    HW171120   6.499   2.171   8.312  1.0271  0.6140 -0.9336
23514SOL    HW271121   6.616   2.247   8.372 -1.2554  1.9692  2.1311
23515SOL     OW71122   6.659   2.461   1.157  0.0226  0.4168 -0.1744
23515SOL    HW171123   6.684   2.553   1.152  0.3238  0.3833  0.6982
23515SOL    HW271124   6.741   2.413   1.167 -0.1226  0.0369 -0.7248
23516SOL     OW71125   9.252   5.908   8.063 -0.4316  0.1820  0.5674
23516SOL    HW171126   9.220   5.985   8.017  1.2396 -0.0093 -1.0306
23516SOL    HW271127   9.347   5.912   8.055 -0.2457 -1.5018  1.3714
23517SOL     OW71128   6.764   6.194   7.384 -0.2512 -0.2462 -0.0525
23517SOL    HW171129   6.710   6.120   7.411  0.2009 -0.8271 -0.6794
23517SOL    HW271130   6.830   6.202   7.453 -0.8044  0.1263  0.4441
23518SOL     OW71131   0.982   3.183   5.888 -0.1771  0.1662 -1.2078
23518SOL    HW171132   0.920   3.187   5.961  0.7333 -1.6714 -0.2512
23518SOL    HW271133   0.928   3.193   5.810 -1.4230  0.4336 -0.3450
23519SOL     OW71134   0.276   4.634   6.415  0.2099 -0.6376  0.0914
23519SOL    HW171135   0.301   4.542   6.424  1.5828 -0.1991  1.3222
23519SOL    HW271136   0.348   4.673   6.364 -0.1130 -0.1508  0.0031
23520SOL     OW71137   7.465   2.135   5.614  0.1250  0.0891  0.1365
23520SOL    HW171138   7.480   2.185   5.694  0.0826  0.1931  0.0797
23520SOL    HW271139   7.484   2.045   5.638 -0.1875  0.0764  0.3507
23521SOL     OW71140   2.071   5.252   5.936 -0.1008  0.2002 -0.1786
23521SOL    HW171141   2.002   5.185   5.940 -0.0649  0.1974  2.9085
23521SOL    HW271142   2.031   5.330   5.975  0.8619  0.9868 -0.7285
23522SOL     OW71143   9.414   0.019   6.266 -0.1415 -0.2505 -0.5888
23522SOL    HW171144   9.377  -0.026   6.190  0.9601 -0.7392 -0.8426
23522SOL    HW271145   9.435   0.106   6.234  0.5763 -0.5436 -0.9235
23523SOL     OW71146   9.601   9.505   3.185 -0.2618  0.2507 -0.1201
23523SOL    HW171147   9.639   9.563   3.119  0.9394  0.1534  0.4785
23523SOL    HW271148   9.506   9.516   3.173 -0.0662  1.4941 -0.7450
23524SOL     OW71149   4.699   1.251   9.967  0.1152 -0.1339 -0.0299
23524SOL    HW171150   4.629   1.264   9.903 -1.8182  0.0179  2.0164
23524SOL    HW271151   4.759   1.190   9.924 -1.1118 -0.0874 -1.9487
23525SOL     OW71152   2.072   2.212   2.276 -0.2136 -0.1279  0.5992
23525SOL    HW171153   2.082   2.117   2.286 -0.8554 -0.5355 -1.9437
23525SOL    HW271154   2.134   2.249   2.338  1.0984 -2.2342  0.6547
23526SOL     OW71155   7.347   6.764   2.553  0.0615  0.4634 -0.1388
23526SOL    HW171156   7.268   6.798   2.511  0.3703  2.0416  0.4659
23526SOL    HW271157   7.341   6.669   2.542 -1.6096  0.5825 -0.6230
23527SOL     OW71158   8.278   2.620   4.002  0.4053  0.3281  0.3388
23527SOL    HW171159   8.244   2.681   3.937  1.9543  1.0884  0.2042
23527SOL    HW271160   8.277   2.669   4.084  2.4796  0.8955  0.0730
23528SOL     OW71161   7.339   8.448   6.762 -0.2095  0.0451 -0.0024
23528SOL    HW171162   7.282   8.435   6.838 -0.8605  2.7970  0.1076
23528SOL    HW271163   7.278   8.461   6.689  0.3714 -0.5336 -0.5981
23529SOL     OW71164   3.414   9.937   3.133  0.0510 -0.5107 -0.3917
23529SOL    HW171165   3.475   9.879   3.178 -0.0948 -0.6917 -0.4261
23529SOL    HW271166   3.470  10.003   3.091  0.4193 -1.9620 -2.3179
23530SOL     OW71167   1.297   7.024   2.103 -0.1410  0.3283  0.2966
23530SOL    HW171168   1.373   6.967   2.095  0.5391  0.9094  2.1781
23530SOL    HW271169   1.332   7.113   2.104 -0.9360  0.6564  0.1569
23531SOL     OW71170   0.098   5.658   0.265  0.0595 -0.9400  0.0315
23531SOL    HW171171   0.035   5.699   0.207  0.9126  0.5165  0.1005
23531SOL    HW271172   0.053   5.650   0.349  0.7780  2.6857  0.9059
23532SOL     OW71173   9.371   3.955   4.150  0.1842 -0.3385  0.4247
23532SOL    HW171174   9.409   3.934   4.236  0.8771 -0.5126  0.0834
23532SOL    HW271175   9.345   3.870   4.114  0.4094 -0.3278  0.2317
23533SOL     OW71176   2.382   4.765   0.191 -0.3432 -0.2261 -0.2121
23533SOL    HW171177   2.328   4.686   0.194  1.4971 -1.6982 -2.4263
23533SOL    HW271178   2.361   4.805   0.106 -0.1647  0.8729  0.2468
23534SOL     OW71179   2.201   2.238   6.982  0.8179  0.0549  0.0671
23534SOL    HW171180   2.138   2.170   6.957 -0.8090  1.0167  1.3149
23534SOL    HW271181   2.282   2.214   6.938 -0.9224 -0.1759 -3.2807
23535SOL     OW71182   1.969   3.981   7.990 -0.4292 -0.2640 -0.5073
23535SOL    HW171183   2.033   4.034   7.942 -0.0189 -1.8813 -1.8425
23535SOL    HW271184   1.894   4.040   8.002 -0.1723  0.5059 -2.3093
23536SOL     OW71185   1.768   6.323   9.177  0.7904  0.4683  0.0793
23536SOL    HW171186   1.734   6.407   9.208  2.3399  1.3971 -0.6310
23536SOL    HW271187   1.849   6.345   9.131  0.3735 -1.2198 -1.6233
23537SOL     OW71188   8.854   2.014   0.473 -0.3908  0.3307 -0.3242
23537SOL    HW171189   8.918   1.950   0.504  2.1311  2.0591 -1.6089
23537SOL    HW271190   8.802   2.035   0.551  0.0601 -1.7088  0.5936
23538SOL     OW71191   9.154   4.827   4.697 -0.2752 -0.1842  0.3877
23538SOL    HW171192   9.108   4.791   4.772 -0.1923  0.9473  0.9985
23538SOL    HW271193   9.246   4.825   4.721 -0.2871  0.6750  0.5604
23539SOL     OW71194   8.267   9.417   6.539 -0.4212  0.4377 -0.2391
23539SOL    HW171195   8.191   9.466   6.508 -2.2316 -0.9106  1.8281
23539SOL    HW271196   8.341   9.475   6.521 -1.9970  2.2052 -1.4741
23540SOL     OW71197   0.546   5.401   7.513 -0.1650  0.1597 -0.6590
23540SOL    HW171198   0.469   5.407   7.457  1.1765 -0.6315 -2.7218
23540SOL    HW271199   0.615   5.368   7.455  1.7702  0.9624  1.0660
23541SOL     OW71200   0.898   4.719   5.472 -0.5892  0.3415 -0.2479
23541SOL    HW171201   0.965   4.778   5.438 -0.0351  0.4946  1.0382
23541SOL    HW271202   0.946   4.642   5.502 -0.6587  1.2885  2.5886
23542SOL     OW71203   0.419   8.885   1.084 -0.1726 -0.5277 -0.1899
23542SOL    HW171204   0.393   8.969   1.123 -0.7662 -1.0409  0.5632
23542SOL    HW271205   0.383   8.819   1.144  0.8537 -1.3117 -0.4099
23543SOL     OW71206   9.678   1.111   9.608 -0.1676  0.2915 -0.1320
23543SOL    HW171207   9.659   1.145   9.520  1.0799 -1.5826 -1.1983
23543SOL    HW271208   9.763   1.067   9.599 -1.3949 -2.6301  1.2096
23544SOL     OW71209   8.483   1.888   0.642 -0.7252  0.7225 -0.1800
23544SOL    HW171210   8.445   1.974   0.625 -0.0597  0.8902 -0.8688
23544SOL    HW271211   8.410   1.836   0.677 -1.2558  1.4104 -0.2485
23545SOL     OW71212   2.596   1.652   3.730 -0.1935 -0.2260 -0.1920
23545SOL    HW171213   2.539   1.580   3.703  0.2909 -0.0559 -1.8071
23545SOL    HW271214   2.595   1.711   3.655  2.2894 -0.3339 -0.3745
23546SOL     OW71215   3.173   6.525   3.831 -0.1129 -0.3173 -0.4678
23546SOL    HW171216   3.163   6.563   3.743  4.6909  0.0140 -1.1142
23546SOL    HW271217   3.194   6.600   3.886 -0.4126 -0.8859  0.4296
23547SOL     OW71218   1.097   1.858   1.577 -0.2915 -0.1593  0.5345
23547SOL    HW171219   1.156   1.915   1.626  1.5537 -1.3396 -0.2268
23547SOL    HW271220   1.074   1.788   1.639  2.1105 -1.6982 -0.1524
23548SOL     OW71221   7.447   3.237   2.005 -0.5402  0.0096 -0.3218
23548SOL    HW171222   7.358   3.271   2.011 -0.0640  1.3395 -0.4918
23548SOL    HW271223   7.501   3.314   1.987  0.7262 -0.6846  0.3947
23549SOL     OW71224   2.622   0.058   8.718  0.2673 -0.5767 -0.0313
23549SOL    HW171225   2.542   0.032   8.673 -2.0610  1.6893  2.4012
23549SOL    HW271226   2.633  -0.007   8.787  1.1094 -1.4159 -0.9396
23550SOL     OW71227   8.738   3.286   2.830 -0.2549  0.1284 -0.6278
23550SOL    HW171228   8.680   3.334   2.889 -1.2483 -0.3033 -1.2287
23550SOL    HW271229   8.823   3.286   2.875 -1.0288 -0.3586  0.9159
23551SOL     OW71230   3.576   1.290   7.136 -0.3125  0.4868 -0.0954
23551SOL    HW171231   3.488   1.251   7.136 -0.6812  1.2053  1.8536
23551SOL    HW271232   3.623   1.243   7.067 -1.0711 -2.5965  1.3209
23552SOL     OW71233   3.119   5.498   2.563  0.6021  0.7265  0.3245
23552SOL    HW171234   3.124   5.593   2.577  1.8511  1.0651 -1.9641
23552SOL    HW271235   3.069   5.488   2.482  0.5433 -0.5788  0.4987
23553SOL     OW71236   7.449   0.534   7.342  0.3163  0.8901 -0.1421
23553SOL    HW171237   7.496   0.452   7.354  0.1056  0.7636 -0.1651
23553SOL    HW271238   7.378   0.531   7.407 -1.4964 -0.2931 -2.0499
23554SOL     OW71239   8.351   5.559   4.799 -0.1271  0.2070  0.1659
23554SOL    HW171240   8.265   5.525   4.777 -0.8060  1.6686  0.4098
23554SOL    HW271241   8.396   5.569   4.715 -0.5670  0.3442 -0.0557
23555SOL     OW71242   0.838   1.061   8.316  0.1425 -0.4097  0.5111
23555SOL    HW171243   0.761   1.111   8.287 -0.4084 -1.4860  0.0848
23555SOL    HW271244   0.835   1.066   8.411  0.3713  0.7653  0.4795
23556SOL     OW71245   7.759   2.009   6.883 -0.1181 -0.0872 -0.5937
23556SOL    HW171246   7.734   1.972   6.799 -0.1850 -0.4996 -0.3959
23556SOL    HW271247   7.759   1.935   6.943  0.2222  0.1490 -0.2942
23557SOL     OW71248   2.916   7.994   9.902  0.4524 -0.0856 -0.6634
23557SOL    HW171249   2.990   8.048   9.873 -1.1779  1.6366 -1.8372
23557SOL    HW271250   2.924   7.992   9.998  1.6664  0.5744 -0.7280
23558SOL     OW71251   4.618   0.810   8.485  0.1252 -0.1088 -0.4843
23558SOL    HW171252   4.555   0.869   8.444  1.9153  0.4720 -2.5957
23558SOL    HW271253   4.576   0.724   8.483 -1.3985  0.5811  0.1051
23559SOL     OW71254   2.531   0.531   7.890  0.3614 -0.1365  0.2067
23559SOL    HW171255   2.554   0.512   7.980  1.3933 -1.6364 -0.3359
23559SOL    HW271256   2.615   0.547   7.847 -0.0136 -0.6446 -0.7443
23560SOL     OW71257   4.956   8.938   9.884 -0.9063  0.6021 -0.3296
23560SOL    HW171258   4.893   8.867   9.877 -1.4215  1.0181  0.0400
23560SOL    HW271259   5.035   8.896   9.919 -1.4374  0.3318  0.5882
23561SOL     OW71260   3.368   4.972   2.711 -0.3512  0.0998 -0.8068
23561SOL    HW171261   3.420   4.929   2.779 -0.8004  1.0636  0.1957
23561SOL    HW271262   3.432   5.022   2.661 -0.0703 -0.2355 -0.7871
23562SOL     OW71263   1.552   1.375   5.510 -0.1743 -0.5771 -0.0278
23562SOL    HW171264   1.628   1.432   5.519  1.2225 -2.3620  0.2068
23562SOL    HW271265   1.542   1.361   5.416 -0.5916  0.1314 -0.0906
23563SOL     OW71266   0.656   6.344   6.718  0.3942  0.5132  0.4684
23563SOL    HW171267   0.664   6.276   6.651  0.6684  0.2541  0.7579
23563SOL    HW271268   0.731   6.329   6.776  0.5281  1.1492  0.4581
23564SOL     OW71269   4.833   2.967   4.551 -0.3322 -0.0005 -0.6458
23564SOL    HW171270   4.741   2.944   4.539 -0.9514  1.4375  1.0371
23564SOL    HW271271   4.840   3.057   4.521  0.9173 -0.5789 -2.2423
23565SOL     OW71272   5.818   9.654   1.724 -0.0718  0.9137 -0.3216
23565SOL    HW171273   5.752   9.721   1.742  0.2425  1.4118 -0.9899
23565SOL    HW271274   5.841   9.667   1.632 -0.0391 -0.1449 -0.4759
23566SOL     OW71275   8.430   1.130   3.486  0.2460 -0.1323 -0.2667
23566SOL    HW171276   8.376   1.209   3.484 -0.1983 -0.4372 -0.4243
23566SOL    HW271277   8.374   1.063   3.525  0.8956 -0.1744  0.6250
23567SOL     OW71278   3.457   0.730   9.667 -0.0973  0.0747  0.4251
23567SOL    HW171279   3.395   0.714   9.739 -1.0145  1.7813  0.0668
23567SOL    HW271280   3.402   0.759   9.594  0.9726 -0.1407 -0.4886
23568SOL     OW71281   7.938   6.817   2.917 -0.0703 -0.0659 -0.0553
23568SOL    HW171282   7.867   6.823   2.981 -0.0142  0.8970 -0.0627
23568SOL    HW271283   7.898   6.778   2.840 -0.1812 -1.0814  0.5064
23569SOL     OW71284   4.169   2.402   0.081 -0.2007  0.5099 -0.0232
23569SOL    HW171285   4.209   2.452   0.009 -0.1972 -1.8782 -1.7998
23569SOL    HW271286   4.244   2.360   0.125 -0.4231 -1.0179 -1.0351
23570SOL     OW71287   3.693   3.298   1.723  0.0595  0.0283 -0.1054
23570SOL    HW171288   3.643   3.302   1.805  0.4988 -0.2858  0.1778
23570SOL    HW271289   3.717   3.206   1.713  0.5651  0.1697 -0.2458
23571SOL     OW71290   1.214   2.405   6.075 -0.2414  0.7125  0.4118
23571SOL    HW171291   1.236   2.318   6.109 -0.3667 -1.2603 -3.8482
23571SOL    HW271292   1.279   2.463   6.113  3.9553 -2.4441 -1.1830
23572SOL     OW71293   2.222   1.854   5.459 -0.0351 -0.1977 -0.0755
23572SOL    HW171294   2.181   1.877   5.376  0.8951 -0.5267 -0.6457
23572SOL    HW271295   2.151   1.820   5.512 -0.7573  0.5988 -0.5130
23573SOL     OW71296   2.453   5.430   6.608 -0.4289 -0.0745 -0.0763
23573SOL    HW171297   2.482   5.348   6.648  0.9524  0.7608  0.7107
23573SOL    HW271298   2.357   5.424   6.609 -0.3937 -0.9329  1.5824
23574SOL     OW71299   2.940   4.303   9.540  0.3138  0.0360 -0.0585
23574SOL    HW171300   2.887   4.233   9.501 -0.4603  1.5278 -1.8207
23574SOL    HW271301   2.875   4.364   9.577  0.9909 -0.7373  2.6644
23575SOL     OW71302   8.389   5.673   3.307  0.1173 -0.2501  0.2267
23575SOL    HW171303   8.313   5.711   3.265 -0.9375 -1.2549  1.1509
23575SOL    HW271304   8.357   5.592   3.347  1.1856  0.2750  2.3192
23576SOL     OW71305   7.279   3.014   4.539  0.0354 -0.0733 -0.8065
23576SOL    HW171306   7.275   2.981   4.449 -0.7169 -0.2212 -0.7253
23576SOL    HW271307   7.278   3.110   4.529 -0.8768 -0.0844 -0.9389
23577SOL     OW71308   9.917   0.425   9.049 -0.0348 -0.7563 -0.5336
23577SOL    HW171309   9.901   0.400   8.958 -0.8076  0.3468 -0.7318
23577SOL    HW271310  10.002   0.468   9.047 -0.5901  0.4014 -1.0206
23578SOL     OW71311   0.592   3.554   4.636 -0.1799  0.5575 -0.3069
23578SOL    HW171312   0.535   3.626   4.663 -0.4048 -0.1124  1.0639
23578SOL    HW271313   0.680   3.583   4.658 -0.2732  0.4009  0.2780
23579SOL     OW71314   3.223   2.949   6.513  0.2528  0.6969 -0.2798
23579SOL    HW171315   3.296   2.890   6.494  0.3338  0.7390 -0.0933
23579SOL    HW271316   3.196   2.926   6.601 -1.6966 -1.1828 -1.2624
23580SOL     OW71317   9.040   0.565   0.199  0.0105 -0.0931  0.2121
23580SOL    HW171318   8.987   0.531   0.271 -0.4800 -0.5763 -0.3773
23580SOL    HW271319   9.086   0.640   0.238 -2.2612  1.3156  0.3451
23581SOL     OW71320   9.695   6.255   5.809 -0.3930 -0.4659  0.0663
23581SOL    HW171321   9.725   6.233   5.897  0.2358 -0.6310 -0.1846
23581SOL    HW271322   9.625   6.319   5.823  1.5323  1.6527  0.6126
23582SOL     OW71323   6.123   3.683   4.347  0.2632  0.2237 -0.5232
23582SOL    HW171324   6.093   3.621   4.281 -1.7798 -0.0136  0.5454
23582SOL    HW271325   6.216   3.662   4.360  0.0724 -1.3507 -1.5223
23583SOL     OW71326   6.716   2.280   5.127  0.0023  0.1437  0.7724
23583SOL    HW171327   6.663   2.208   5.093  0.4246  0.9960 -1.9867
23583SOL    HW271328   6.806   2.252   5.112  0.1767  0.9384  0.2638
23584SOL     OW71329   1.900   3.307   8.412 -0.1498  0.2308  0.7869
23584SOL    HW171330   1.976   3.353   8.446 -0.2649  1.8229 -0.9207
23584SOL    HW271331   1.934   3.224   8.379  0.5717  0.3002  1.3399
23585SOL     OW71332   9.023   0.795   5.611 -0.4164  0.5507 -0.5326
23585SOL    HW171333   9.045   0.847   5.534  0.1764  0.0396 -0.7179
23585SOL    HW271334   8.927   0.795   5.614 -0.4390  0.6433 -1.2202
23586SOL     OW71335   6.121   2.412   0.916  0.4933  0.7598 -0.3578
23586SOL    HW171336   6.097   2.501   0.889 -0.1432  0.2427 -1.5482
23586SOL    HW271337   6.175   2.379   0.844  4.7535  1.7492  2.0418
23587SOL     OW71338   9.129   9.821   2.375 -0.3581 -0.0167 -0.7413
23587SOL    HW171339   9.224   9.811   2.382 -0.3347  0.6495  0.0812
23587SOL    HW271340   9.097   9.802   2.463 -1.0300 -0.5873 -1.0979
23588SOL     OW71341   1.477   0.540   7.410 -0.0943  0.5751 -0.6948
23588SOL    HW171342   1.410   0.585   7.461  1.3842  2.4233 -0.2877
23588SOL    HW271343   1.559   0.582   7.435  1.3497 -1.9868 -0.7398
23589SOL     OW71344   2.367   6.517   2.637 -0.3791  0.3382  0.2565
23589SOL    HW171345   2.380   6.423   2.650 -3.8412 -0.3054  0.1741
23589SOL    HW271346   2.382   6.555   2.724 -0.8760 -0.6085  0.7757
23590SOL     OW71347   6.010   9.112   0.278 -0.4543 -0.2549 -0.3998
23590SOL    HW171348   6.073   9.107   0.349 -0.9798  1.6068  0.2542
23590SOL    HW271349   5.969   9.198   0.288 -1.5614 -0.5321 -2.0964
23591SOL     OW71350   4.963   0.749   3.800 -0.7229 -0.0330  0.4466
23591SOL    HW171351   5.046   0.770   3.757 -0.3013 -0.2803  1.1137
23591SOL    HW271352   4.911   0.706   3.733 -0.4765  0.4991 -0.1017
23592SOL     OW71353   8.058   6.358   0.345  0.7744  0.7730 -0.8348
23592SOL    HW171354   8.080   6.397   0.430 -0.0676  0.9376 -0.6780
23592SOL    HW271355   8.093   6.419   0.280  0.0859  1.4394 -0.5930
23593SOL     OW71356   4.091   3.609   3.799  0.1275 -0.2731  0.1308
23593SOL    HW171357   4.110   3.667   3.872 -0.2599  0.4660 -0.3478
23593SOL    HW271358   4.115   3.522   3.831  2.4591  0.3323  0.2403
23594SOL     OW71359   5.497   8.511   3.528  0.5737 -0.1704 -0.5555
23594SOL    HW171360   5.436   8.440   3.505  0.7921 -0.4066 -0.4063
23594SOL    HW271361   5.583   8.475   3.509  0.7205 -0.1431  0.0446
23595SOL     OW71362   2.664   0.217   8.969  0.1488 -0.4094  0.3754
23595SOL    HW171363   2.689   0.152   9.035  0.8279 -2.3628 -1.6519
23595SOL    HW271364   2.659   0.167   8.888 -2.6980  1.4592 -0.7509
23596SOL     OW71365   5.926   8.685   1.071 -0.0419  0.2346 -0.2468
23596SOL    HW171366   5.971   8.614   1.024  0.1731 -0.4200  0.9292
23596SOL    HW271367   5.834   8.659   1.071  0.1893 -0.6436  1.1928
23597SOL     OW71368   0.915   6.134   7.175  0.5036  0.2373  0.1415
23597SOL    HW171369   0.947   6.076   7.244  0.7100  0.4456  0.2241
23597SOL    HW271370   0.965   6.108   7.098  0.5117  0.2260  0.1504
23598SOL     OW71371   4.883   2.962   4.231 -0.6584  0.4102  0.3582
23598SOL    HW171372   4.934   3.025   4.282  0.6873  0.5746 -1.1207
23598SOL    HW271373   4.914   2.876   4.259  0.2108  0.5051 -0.2791
23599SOL     OW71374   3.541   2.382   3.504 -0.3549  0.2980 -0.1008
23599SOL    HW171375   3.619   2.401   3.556 -0.3124 -1.3951  0.5404
23599SOL    HW271376   3.475   2.444   3.535 -0.5508 -1.1018  2.5811
23600SOL     OW71377   1.026   9.675   2.005 -0.4776 -0.3310 -0.2991
23600SOL    HW171378   0.966   9.734   2.050  0.1300  0.1057 -0.0357
23600SOL    HW271379   1.085   9.644   2.075 -1.3843 -2.0371 -0.2314
23601SOL     OW71380   9.602   0.314   3.620 -0.4335  0.0700  0.2474
23601SOL    HW171381   9.584   0.235   3.671 -0.0481  0.4975  1.0664
23601SOL    HW271382   9.578   0.386   3.678 -0.4615  0.5677 -0.3664
23602SOL     OW71383   7.106   2.705   0.601 -0.2476 -0.4282  0.0874
23602SOL    HW171384   7.168   2.756   0.653  0.8370 -1.5130 -0.0811
23602SOL    HW271385   7.135   2.614   0.612  1.0263 -0.6280 -3.5986
23603SOL     OW71386   6.893   0.134   4.922 -0.4958 -0.3315 -0.6672
23603SOL    HW171387   6.875   0.214   4.971 -2.7432 -0.2445 -1.5550
23603SOL    HW271388   6.809   0.089   4.917  0.4883 -2.2061 -1.1718
23604SOL     OW71389   6.986   2.186   5.099  0.6134 -0.1948 -0.2739
23604SOL    HW171390   7.028   2.270   5.083  1.1777  0.0016  1.8324
23604SOL    HW271391   7.022   2.127   5.033  0.8578  1.0039 -1.2397
23605SOL     OW71392   6.106   2.195   5.047  0.6178 -0.1361  0.2573
23605SOL    HW171393   6.190   2.196   5.093  0.9478 -2.2788 -0.1809
23605SOL    HW271394   6.049   2.141   5.103 -0.5202  1.3448  0.5816
23606SOL     OW71395   8.555   2.631   4.908  0.1315 -0.6688 -0.5011
23606SOL    HW171396   8.482   2.595   4.857 -1.0858  2.2738 -1.0146
23606SOL    HW271397   8.606   2.680   4.844  0.3207  0.5282  0.5307
23607SOL     OW71398   3.324   4.130   3.693  0.2645 -0.2200  0.4228
23607SOL    HW171399   3.309   4.074   3.770  3.0849 -1.1380  0.4247
23607SOL    HW271400   3.278   4.086   3.622 -0.1064 -0.8663  1.0533
23608SOL     OW71401   8.041   1.510   5.323 -0.0706 -0.5889  0.2694
23608SOL    HW171402   8.039   1.440   5.258  1.3460  0.0261 -0.4800
23608SOL    HW271403   8.006   1.470   5.402  1.0271 -2.2516 -0.0334
23609SOL     OW71404   0.484   2.895   4.266 -0.5672  0.2559 -0.3446
23609SOL    HW171405   0.427   2.945   4.324 -0.2610  0.0515  0.1360
23609SOL    HW271406   0.424   2.854   4.204 -0.8083  1.3577 -0.8688
23610SOL     OW71407   9.624   7.083   2.065 -0.0587 -0.1900 -0.1431
23610SOL    HW171408   9.550   7.024   2.050 -0.2780  0.0827 -0.1485
23610SOL    HW271409   9.620   7.103   2.159  0.2422 -0.4828 -0.0686
23611SOL     OW71410   8.921   6.201   5.885 -0.1318 -0.3104  0.2887
23611SOL    HW171411   8.987   6.134   5.904  0.5243  0.2468  0.0225
23611SOL    HW271412   8.966   6.264   5.829 -1.1186 -0.3051 -0.5277
23612SOL     OW71413   6.879   2.823   0.294  0.0455 -0.0482  0.0877
23612SOL    HW171414   6.792   2.852   0.267  0.4702 -0.8033 -2.3123
23612SOL    HW271415   6.876   2.727   0.287  1.6516 -0.0018 -2.1934
23613SOL     OW71416   9.122   5.480   9.740 -0.2474 -0.6795  0.2465
23613SOL    HW171417   9.056   5.549   9.731 -1.4740 -1.9735 -1.0489
23613SOL    HW271418   9.079   5.412   9.792  0.8157 -0.6741  1.1760
23614SOL     OW71419   2.703   2.126   5.913  0.0313  0.5270 -0.0697
23614SOL    HW171420   2.630   2.093   5.861  0.4057  0.6117 -0.6556
23614SOL    HW271421   2.662   2.163   5.991 -0.5608  0.6508 -0.4355
23615SOL     OW71422   5.144   4.374   9.872  0.1317 -0.5666 -0.2202
23615SOL    HW171423   5.160   4.290   9.828 -0.4129 -1.0457  0.4778
23615SOL    HW271424   5.057   4.366   9.910  0.3638  0.0337  0.4825
23616SOL     OW71425   1.539   9.925   0.016 -0.3982  0.1734 -0.4243
23616SOL    HW171426   1.511  10.015   0.003  1.5154  0.9451  0.4745
23616SOL    HW271427   1.459   9.873   0.004 -2.4785  2.2700  2.8852
23617SOL     OW71428   4.022   8.237   8.216 -0.2877  0.0066  0.2458
23617SOL    HW171429   3.992   8.183   8.289 -1.7621  0.0494 -0.3014
23617SOL    HW271430   3.988   8.193   8.138  2.5700 -0.9417 -0.6117
23618SOL     OW71431   9.287   5.858   3.910 -0.0091 -0.0866  0.4677
23618SOL    HW171432   9.203   5.902   3.895  0.7357  0.7672 -1.3414
23618SOL    HW271433   9.303   5.808   3.830  1.7188  0.6345  0.3167
23619SOL     OW71434   8.623   5.024   1.843 -0.0574 -0.1215  0.2587
23619SOL    HW171435   8.576   5.107   1.843  0.1632  0.0344  2.0975
23619SOL    HW271436   8.579   4.971   1.908  0.1681 -1.2638 -0.4825
23620SOL     OW71437   1.828   4.313   4.675 -0.1120  0.5219  0.1909
23620SOL    HW171438   1.821   4.352   4.762  1.8563  2.0362 -0.2530
23620SOL    HW271439   1.845   4.387   4.616 -1.2744 -0.4671 -1.4857
23621SOL     OW71440   6.615   9.566   3.226  0.2590  0.4613  0.5849
23621SOL    HW171441   6.532   9.519   3.229  0.6140 -0.2171  0.1493
23621SOL    HW271442   6.602   9.635   3.160  0.1690  0.0928  0.2149
23622SOL     OW71443   6.780   8.742   0.575 -0.3432 -0.1312  0.3458
23622SOL    HW171444   6.791   8.774   0.664  0.8681  1.0080 -0.1738
23622SOL    HW271445   6.724   8.808   0.533  1.0393  0.6348 -0.3587
23623SOL     OW71446   4.069   8.692   4.075 -0.2851  0.2071  0.1242
23623SOL    HW171447   4.033   8.684   4.164 -0.9718  0.4600 -0.1222
23623SOL    HW271448   4.150   8.741   4.086 -0.3816  0.2640  0.6075
23624SOL     OW71449   2.765   4.618   3.201 -0.6480  0.0324 -0.4281
23624SOL    HW171450   2.785   4.526   3.216 -0.2246 -0.0965 -1.6251
23624SOL    HW271451   2.741   4.653   3.287  0.8557 -0.7743  0.3537
23625SOL     OW71452   8.795   7.748   8.612 -0.0747 -0.1761  0.1061
23625SOL    HW171453   8.754   7.830   8.584 -1.5523 -0.7803  0.4453
23625SOL    HW271454   8.887   7.772   8.627 -0.3575  1.2899 -0.3222
23626SOL     OW71455   2.389   7.486   6.210 -0.5584  0.1196  0.0762
23626SOL    HW171456   2.401   7.397   6.178  0.5430 -0.0426  0.8938
23626SOL    HW271457   2.448   7.539   6.155 -0.6872  0.2403  0.0548
23627SOL     OW71458   6.272   5.276   7.237 -0.4313  0.3426 -0.2444
23627SOL    HW171459   6.324   5.231   7.171  2.0122  2.6033 -0.0362
23627SOL    HW271460   6.247   5.358   7.195 -0.7401  0.8451  0.8802
23628SOL     OW71461   3.821   9.740   0.937 -0.3463 -0.4393 -0.3349
23628SOL    HW171462   3.754   9.753   0.870  0.0423 -0.6802 -0.7879
23628SOL    HW271463   3.883   9.679   0.896 -0.7956 -1.6617  0.7425
23629SOL     OW71464   8.549   6.500   5.924 -0.3486 -0.6368  0.3453
23629SOL    HW171465   8.594   6.462   6.000 -0.4210  0.1312  0.7829
23629SOL    HW271466   8.567   6.439   5.853  2.3334  0.1281  0.2280
23630SOL     OW71467   6.249   7.241   5.062  0.1932 -0.0282 -0.1946
23630SOL    HW171468   6.238   7.298   4.986  2.4701  0.3407 -0.3120
23630SOL    HW271469   6.252   7.300   5.137  2.3427  0.0547 -0.2955
23631SOL     OW71470   1.230   2.085   8.475  0.5493 -0.4888 -0.1315
23631SOL    HW171471   1.172   2.021   8.517 -0.4649  0.6976  0.3484
23631SOL    HW271472   1.190   2.099   8.389  0.5255 -0.1905 -0.0714
23632SOL     OW71473   7.166   3.398   0.290  0.1895 -0.0377 -0.6362
23632SOL    HW171474   7.194   3.375   0.201  0.6069 -0.4555 -0.4058
23632SOL    HW271475   7.110   3.325   0.316  2.9120 -1.8201  0.7535
23633SOL     OW71476   7.510   2.959   7.332 -0.2394 -0.8056 -0.6697
23633SOL    HW171477   7.597   2.924   7.315  0.6767  1.1427 -0.1839
23633SOL    HW271478   7.487   3.008   7.253 -0.2598 -0.1034 -0.2364
23634SOL     OW71479   9.235   5.566   0.767 -0.3199 -0.1101  0.3924
23634SOL    HW171480   9.190   5.484   0.749 -0.1533 -0.4918  1.6229
23634SOL    HW271481   9.166   5.626   0.793 -0.3652 -0.0354  0.1090
23635SOL     OW71482   4.277   2.736   0.698  0.2749  0.1378  0.2501
23635SOL    HW171483   4.363   2.771   0.675 -0.5480  0.9301 -1.8101
23635SOL    HW271484   4.248   2.689   0.620 -0.9449 -0.5729  1.0992
23636SOL     OW71485   5.392   4.660   7.083 -0.5624  0.4239  0.0353
23636SOL    HW171486   5.336   4.724   7.127 -0.7954  0.1211  0.1886
23636SOL    HW271487   5.362   4.575   7.117 -0.1646  0.2436 -0.0574
23637SOL     OW71488   7.124   5.845   8.975 -0.7227  0.4224 -0.2843
23637SOL    HW171489   7.082   5.791   8.908  0.2446 -2.9307  1.6003
23637SOL    HW271490   7.053   5.898   9.012 -1.9717 -0.3866 -1.4369
23638SOL     OW71491   7.552   6.218   3.509 -0.0236  0.3585 -0.3705
23638SOL    HW171492   7.548   6.233   3.604  0.7445  1.6356 -0.5247
23638SOL    HW271493   7.499   6.288   3.472 -1.5583 -0.9799 -0.8553
23639SOL     OW71494   6.759   9.031   1.414 -0.2538 -0.2930  0.5877
23639SOL    HW171495   6.730   8.954   1.464  0.2584 -0.3756  0.7695
23639SOL    HW271496   6.751   9.104   1.475  1.6872 -0.6038  1.2816
23640SOL     OW71497   9.571   9.086   8.469 -0.2895 -0.0970 -0.4432
23640SOL    HW171498   9.649   9.037   8.445 -1.2456 -3.1917  2.1830
23640SOL    HW271499   9.600   9.145   8.539 -0.3222 -1.6243  0.9084
23641SOL     OW71500   0.068   5.813   1.302 -0.8236 -0.2476  0.2642
23641SOL    HW171501  -0.013   5.785   1.259  0.1903 -2.2499 -0.4366
23641SOL    HW271502   0.078   5.905   1.276 -2.3519 -0.2467 -0.4302
23642SOL     OW71503   7.062   7.401   3.446  0.2187 -0.0236  0.5381
23642SOL    HW171504   7.010   7.464   3.495  0.1418 -0.3207  0.8403
23642SOL    HW271505   7.074   7.442   3.360 -0.4101  0.1010  0.5043
23643SOL     OW71506   1.309   9.962   1.941 -0.1830 -0.8339 -0.3624
23643SOL    HW171507   1.301   9.928   1.852  0.2772 -0.4204 -0.5710
23643SOL    HW271508   1.222   9.951   1.980 -0.5498 -0.4595 -1.0632
23644SOL     OW71509   1.766   7.195   4.480  0.1585  0.1141  0.3500
23644SOL    HW171510   1.734   7.198   4.570 -1.7248 -2.6727 -0.1230
23644SOL    HW271511   1.854   7.157   4.487  0.4502  0.8917  1.0593
23645SOL     OW71512   5.780   6.154   7.321 -0.0082 -0.5342  0.5087
23645SOL    HW171513   5.818   6.242   7.319 -0.8022 -0.1168  2.2087
23645SOL    HW271514   5.831   6.108   7.388  0.1040 -1.2400 -0.0531
23646SOL     OW71515   2.677   2.440   9.430 -0.8258  0.0706 -0.0456
23646SOL    HW171516   2.646   2.358   9.470 -0.4851  0.2112  0.5293
23646SOL    HW271517   2.773   2.433   9.433 -0.7794 -0.2637 -1.5994
23647SOL     OW71518   8.477   1.072   6.540  0.0324  0.3013  0.4296
23647SOL    HW171519   8.426   1.003   6.581  2.2804 -1.6053  0.2464
23647SOL    HW271520   8.565   1.063   6.578  1.1869  1.0442 -1.8293
23648SOL     OW71521   5.082   4.862   4.050 -0.0567 -0.7626 -0.2153
23648SOL    HW171522   5.163   4.897   4.012  0.1111 -0.0571  0.7571
23648SOL    HW271523   5.078   4.901   4.137 -0.4886 -2.2577  0.4566
23649SOL     OW71524   6.263   1.392   2.402 -0.5600  0.3301 -0.5737
23649SOL    HW171525   6.233   1.379   2.492 -0.4635  1.0847 -0.4262
23649SOL    HW271526   6.191   1.361   2.348 -1.4239  1.6501 -0.2260
23650SOL     OW71527   0.352   4.973   8.890 -0.0930 -0.3580  0.2090
23650SOL    HW171528   0.365   4.959   8.797  0.5301  0.4870  0.1596
23650SOL    HW271529   0.271   4.926   8.911  0.3176 -1.4247 -0.5361
23651SOL     OW71530   9.136   6.179   7.566  0.3027  0.4409  0.0554
23651SOL    HW171531   9.056   6.222   7.535  0.6787  1.2813  0.2143
23651SOL    HW271532   9.203   6.207   7.504 -0.0701 -2.8261 -2.0429
23652SOL     OW71533   0.010   6.645   9.337 -0.3623 -0.0076  0.2314
23652SOL    HW171534  -0.007   6.735   9.363 -0.2822  0.2986 -0.7222
23652SOL    HW271535   0.100   6.629   9.364  0.4018  0.9674 -1.5515
23653SOL     OW71536   6.784   5.985   0.112  0.1684  0.0431  0.3653
23653SOL    HW171537   6.807   6.034   0.191 -1.0639 -0.7749  1.2586
23653SOL    HW271538   6.713   6.036   0.072  0.0348 -0.1234  0.3894
23654SOL     OW71539   2.231   7.603   9.573 -0.5579  0.3222  0.2980
23654SOL    HW171540   2.148   7.620   9.616 -0.8217  0.1113 -0.1224
23654SOL    HW271541   2.290   7.577   9.644 -0.9064  0.2733  0.5701
23655SOL     OW71542   4.737   1.013   0.844  0.1585 -0.4276 -0.2480
23655SOL    HW171543   4.660   1.064   0.820  0.2505 -0.5561 -0.8304
23655SOL    HW271544   4.792   1.074   0.892  0.2920  0.0447 -0.9821
23656SOL     OW71545   5.943   7.031   2.894 -0.5437  0.1170  0.7743
23656SOL    HW171546   6.019   6.986   2.931 -1.1591 -1.9384 -0.3157
23656SOL    HW271547   5.876   7.026   2.962 -0.2976  0.2795  1.0298
23657SOL     OW71548   6.279   4.991   3.459 -0.1128 -0.2510 -0.2724
23657SOL    HW171549   6.254   4.906   3.423 -0.1333 -0.7891  0.9514
23657SOL    HW271550   6.223   5.002   3.536  1.2529 -0.0666  0.7382
23658SOL     OW71551   3.976   4.007   7.397 -0.8390 -0.3834 -0.0540
23658SOL    HW171552   3.984   4.098   7.427 -0.6006 -0.3955 -0.0769
23658SOL    HW271553   3.997   4.011   7.303 -0.1914 -0.5572  0.0782
23659SOL     OW71554   9.731   5.008   4.538  0.2260 -0.6278 -0.4782
23659SOL    HW171555   9.637   5.014   4.519  0.2758 -2.8886 -1.7505
23659SOL    HW271556   9.773   5.021   4.453  1.0078 -0.7462 -0.1128
23660SOL     OW71557   7.483   1.833   0.497 -0.0200 -0.4487 -0.1032
23660SOL    HW171558   7.445   1.779   0.427  0.5673  0.4125 -1.1309
23660SOL    HW271559   7.451   1.795   0.578 -0.4597 -1.6913 -0.8403
23661SOL     OW71560   2.283   5.032   0.620 -0.0032  0.3132  0.3915
23661SOL    HW171561   2.349   4.983   0.573 -0.2219  0.9119 -0.5705
23661SOL    HW271562   2.233   4.966   0.668 -0.3241 -0.4268 -0.9105
23662SOL     OW71563   7.926   9.677   5.725 -0.5983 -0.4816 -0.3959
23662SOL    HW171564   7.961   9.720   5.647 -0.5969 -1.4109 -0.9192
23662SOL    HW271565   8.001   9.633   5.764 -0.4788  0.4309  0.4650
23663SOL     OW71566   6.869   6.412   3.688 -0.1630 -0.1834 -0.1122
23663SOL    HW171567   6.841   6.333   3.642  1.3622  0.3699 -2.1527
23663SOL    HW271568   6.799   6.475   3.672  0.6209  0.2023 -2.3590
23664SOL     OW71569   6.336   4.809   7.419 -0.9579  0.0058  0.4004
23664SOL    HW171570   6.421   4.765   7.430 -1.5989 -1.2121  0.6540
23664SOL    HW271571   6.358   4.902   7.413  0.5583 -0.4033 -1.2999
23665SOL     OW71572   9.831   9.675   4.341 -0.1552 -0.0032 -0.2518
23665SOL    HW171573   9.787   9.594   4.314 -0.3357  0.3337 -0.9778
23665SOL    HW271574   9.785   9.744   4.295 -0.6840  0.6298  1.1849
23666SOL     OW71575   9.127   7.396   2.600 -0.0152 -0.0425  0.4121
23666SOL    HW171576   9.107   7.303   2.591  2.0837 -0.5062 -0.1380
23666SOL    HW271577   9.221   7.401   2.585  0.0527  2.0834  1.2352
23667SOL     OW71578   4.942   0.375   9.408 -0.1953  0.5384  0.1268
23667SOL    HW171579   5.014   0.394   9.348  0.5754  1.4928  1.3036
23667SOL    HW271580   4.897   0.300   9.369  1.3632 -0.0015 -0.7118
23668SOL     OW71581   2.320   6.477   0.672  0.5569 -0.1018  0.0387
23668SOL    HW171582   2.312   6.382   0.663 -0.1203 -0.0232 -0.2122
23668SOL    HW271583   2.341   6.509   0.584  0.7031 -0.0116  0.1057
23669SOL     OW71584   2.876   3.248   9.350  0.1717  0.1616  0.1366
23669SOL    HW171585   2.831   3.164   9.350  0.8070 -0.1954  0.5975
23669SOL    HW271586   2.904   3.259   9.441  1.0788  0.3205 -0.1481
23670SOL     OW71587   9.773   7.508   6.784 -0.7298 -0.2227  0.0170
23670SOL    HW171588   9.845   7.568   6.802 -0.0105 -1.2640  0.6890
23670SOL    HW271589   9.797   7.465   6.702 -1.2918  0.4511 -0.5151
23671SOL     OW71590   1.964   9.319   0.102 -0.3910  0.0892  0.0106
23671SOL    HW171591   1.922   9.301   0.018 -0.2777  1.1147 -0.2768
23671SOL    HW271592   2.023   9.245   0.115 -0.6673 -0.2560 -0.6456
23672SOL     OW71593   9.710   5.014   6.101  0.1113 -0.0443  0.1334
23672SOL    HW171594   9.760   5.073   6.158  0.4599 -0.4850  0.2896
23672SOL    HW271595   9.696   4.936   6.155  0.9282 -0.6965 -0.5656
23673SOL     OW71596   3.609   5.442   6.849 -0.1474 -0.1834 -0.5122
23673SOL    HW171597   3.513   5.436   6.852 -0.1721  0.0669 -0.6824
23673SOL    HW271598   3.639   5.396   6.927 -0.4961  1.7302  0.8359
23674SOL     OW71599   3.046   3.723   5.218 -0.3561 -0.2438 -0.1584
23674SOL    HW171600   3.131   3.763   5.240 -0.4663 -1.0277  1.9830
23674SOL    HW271601   3.042   3.644   5.273 -1.4092 -1.6166 -2.1039
23675SOL     OW71602   0.284   4.225   7.851 -0.0893 -0.2077 -0.2742
23675SOL    HW171603   0.220   4.156   7.833  1.0803 -1.3813 -0.0477
23675SOL    HW271604   0.366   4.179   7.866  1.4325  1.3519 -3.0212
23676SOL     OW71605   8.757   7.009   3.124  0.1665  0.1179  0.0439
23676SOL    HW171606   8.746   7.051   3.039 -5.1917 -0.7956 -0.1048
23676SOL    HW271607   8.763   6.916   3.104 -0.6974 -0.0675  0.5758
23677SOL     OW71608   1.439   3.227   0.703 -0.0110  0.0136  0.3094
23677SOL    HW171609   1.434   3.150   0.759  1.0269  1.4383  2.4697
23677SOL    HW271610   1.364   3.281   0.728 -0.4130 -0.0168 -0.7856
23678SOL     OW71611   2.879   9.690   3.611 -0.6905 -0.1417  0.0036
23678SOL    HW171612   2.968   9.678   3.645 -1.1773 -0.5457  1.1857
23678SOL    HW271613   2.852   9.602   3.585 -0.6207  0.0390 -0.6969
23679SOL     OW71614   0.260   4.933   2.628 -0.0915 -0.5279 -0.2952
23679SOL    HW171615   0.324   4.989   2.584 -2.4666  0.6108 -2.5650
23679SOL    HW271616   0.259   4.852   2.576 -0.1500 -0.7334  0.0237
23680SOL     OW71617   5.026   7.831   5.811  0.0475 -0.0585  0.3892
23680SOL    HW171618   5.101   7.792   5.855  0.3713 -0.6321 -0.6249
23680SOL    HW271619   4.966   7.757   5.797  0.2964 -0.0670 -0.7888
23681SOL     OW71620   2.142   5.887   6.951  0.5788 -0.5356 -0.2101
23681SOL    HW171621   2.177   5.831   6.882  0.6148 -0.6153 -0.1259
23681SOL    HW271622   2.064   5.841   6.983 -0.7530  0.5428 -1.7248
23682SOL     OW71623   4.320   8.008   6.729  0.1016  0.4470 -0.3534
23682SOL    HW171624   4.231   8.017   6.764 -0.0893  0.8134 -0.9302
23682SOL    HW271625   4.375   8.045   6.798  0.0361 -1.8485  1.0362
23683SOL     OW71626   1.159   7.938   7.781 -0.8650  0.3657  0.2260
23683SOL    HW171627   1.137   8.029   7.763 -0.8971  0.7462  2.0088
23683SOL    HW271628   1.077   7.890   7.771 -0.6794  0.3730 -1.5274
23684SOL     OW71629   5.152   8.415   6.545  0.3035 -0.2960 -0.5619
23684SOL    HW171630   5.226   8.380   6.595  1.3275 -1.0477 -2.4847
23684SOL    HW271631   5.077   8.363   6.574  0.9861 -1.1374 -0.2267
23685SOL     OW71632   6.245   4.338   1.965 -0.1049  0.2305 -0.0738
23685SOL    HW171633   6.252   4.426   2.001  1.1482  0.5242 -0.9641
23685SOL    HW271634   6.159   4.336   1.923 -0.3207  0.8832  0.3245
23686SOL     OW71635   3.662   7.779   1.647 -0.5149 -0.0579  0.2382
23686SOL    HW171636   3.640   7.834   1.572 -1.0147 -1.1415 -0.4249
23686SOL    HW271637   3.744   7.735   1.622 -0.2354  0.2014  0.6750
23687SOL     OW71638   4.847   3.376   9.137 -0.2025  0.1230  0.1907
23687SOL    HW171639   4.877   3.396   9.226  1.5707 -1.3496  0.0092
23687SOL    HW271640   4.754   3.358   9.147 -0.2587  0.9690  1.5641
23688SOL     OW71641   1.652   1.517   4.273  0.8858  0.2526 -0.4647
23688SOL    HW171642   1.718   1.582   4.249  0.4529  0.1582 -2.0814
23688SOL    HW271643   1.647   1.521   4.368  1.5956  1.8692 -0.4586
23689SOL     OW71644   1.041   3.423   7.806 -0.2420 -0.4554  0.2965
23689SOL    HW171645   1.089   3.359   7.858 -2.3117 -0.8119  1.9551
23689SOL    HW271646   1.008   3.486   7.871 -0.7945  0.5772 -0.9292
23690SOL     OW71647   7.823   9.920   4.469  0.2485  0.1953 -0.1873
23690SOL    HW171648   7.900   9.952   4.516  1.2015 -1.0086 -0.8746
23690SOL    HW271649   7.760   9.899   4.538  1.3672 -0.8990  0.5505
23691SOL     OW71650   8.923   7.222   6.832  0.0335 -0.7436  0.4504
23691SOL    HW171651   8.894   7.202   6.743 -1.5329  0.9995  0.4953
23691SOL    HW271652   9.014   7.249   6.822 -0.3170  0.0923 -0.7710
23692SOL     OW71653   8.552   0.189   3.059  0.4841  0.6100 -0.2434
23692SOL    HW171654   8.621   0.204   2.994 -0.2831  0.4755 -1.1105
23692SOL    HW271655   8.590   0.219   3.142  1.6150  0.4446 -0.6833
23693SOL     OW71656   0.244   1.490   5.379 -0.3020  0.1018 -0.0808
23693SOL    HW171657   0.297   1.432   5.324 -0.4436  0.1070 -0.2259
23693SOL    HW271658   0.247   1.575   5.335 -1.2029 -0.1238 -0.6164
23694SOL     OW71659   4.794   5.633   6.159  0.2413 -0.2401  0.1174
23694SOL    HW171660   4.802   5.632   6.254 -1.0355  0.8916  0.2693
23694SOL    HW271661   4.734   5.561   6.139  0.5942 -0.5471  0.1418
23695SOL     OW71662   4.555   2.995   2.504  0.1097  0.0098 -0.0406
23695SOL    HW171663   4.509   2.933   2.561  2.5150 -1.5140  0.3874
23695SOL    HW271664   4.579   3.067   2.562  2.7982 -1.6664  1.1373
23696SOL     OW71665   8.925   7.202   7.914 -0.2003  0.1781  0.0263
23696SOL    HW171666   8.861   7.251   7.966  0.3004  0.1973  0.6365
23696SOL    HW271667   8.872   7.138   7.866 -0.7332  0.5437  0.1150
23697SOL     OW71668   8.838   4.546   3.832  1.2267 -0.1252  0.5167
23697SOL    HW171669   8.870   4.491   3.761  1.8458 -1.5738  1.8521
23697SOL    HW271670   8.910   4.549   3.895  0.7998  1.3594  0.9708
23698SOL     OW71671   9.773   7.097   7.098  0.0451 -0.3070  0.2090
23698SOL    HW171672   9.737   7.157   7.032 -0.1161 -0.4090  0.2054
23698SOL    HW271673   9.722   7.116   7.177  1.1911  0.8350  0.7071
23699SOL     OW71674   9.393   2.835   6.751  0.6593 -0.1730 -0.0901
23699SOL    HW171675   9.472   2.819   6.700  0.6088 -4.0580  0.7594
23699SOL    HW271676   9.333   2.879   6.690  3.0063  1.9082 -1.0542
23700SOL     OW71677   1.336   3.978   3.978  0.1495 -0.0826  0.0274
23700SOL    HW171678   1.428   3.952   3.983  0.4831  1.0246 -0.0549
23700SOL    HW271679   1.292   3.904   3.935  1.0576 -0.4655 -0.2664
23701SOL     OW71680   9.372   3.140   4.240 -0.1914  0.3989  0.1477
23701SOL    HW171681   9.448   3.196   4.222  0.6841 -0.4953  0.9678
23701SOL    HW271682   9.331   3.180   4.317  0.3354  0.0169  0.6306
23702SOL     OW71683   9.793   0.364   2.426  0.5769  0.4003  0.1705
23702SOL    HW171684   9.699   0.381   2.424  0.2956 -0.7981  1.5906
23702SOL    HW271685   9.830   0.439   2.472  0.0745  0.0330  1.1972
23703SOL     OW71686   1.800   7.371   7.161 -0.1529 -0.1281  0.0863
23703SOL    HW171687   1.824   7.399   7.249  0.2895  1.1753 -0.4338
23703SOL    HW271688   1.777   7.452   7.115  1.7320 -0.4949 -1.6358
23704SOL     OW71689   6.376   3.814   8.251 -0.2620 -0.2853  0.4240
23704SOL    HW171690   6.451   3.866   8.221 -0.2489 -0.0592  0.8387
23704SOL    HW271691   6.397   3.725   8.226  0.0021 -0.1751  0.2524
23705SOL     OW71692   4.808   1.449   8.070 -0.4974  0.0148  0.5986
23705SOL    HW171693   4.858   1.466   7.990 -1.7444  0.0899 -0.1860
23705SOL    HW271694   4.825   1.525   8.126 -0.4609  0.4634 -0.0215
23706SOL     OW71695   5.821   2.852   2.478  0.7193 -0.4300 -0.3695
23706SOL    HW171696   5.776   2.917   2.532 -0.8752 -3.1603  1.8969
23706SOL    HW271697   5.909   2.889   2.465  0.0649  1.9173  1.1684
23707SOL     OW71698   5.620   0.445   1.736 -0.1980 -0.9060  0.0193
23707SOL    HW171699   5.590   0.496   1.810 -0.4276 -0.2903 -0.4859
23707SOL    HW271700   5.707   0.480   1.716 -0.6546 -0.1941 -0.7847
23708SOL     OW71701   7.400   3.291   2.326  0.4208 -0.7217 -0.2129
23708SOL    HW171702   7.405   3.387   2.336  3.9882 -0.6269 -1.4623
23708SOL    HW271703   7.307   3.273   2.314 -0.2091  2.8849 -2.1773
23709SOL     OW71704   9.349   4.711   3.910 -0.0632 -0.0962  0.2044
23709SOL    HW171705   9.436   4.734   3.878 -0.7346  2.2181 -0.1612
23709SOL    HW271706   9.360   4.697   4.004  0.3478  2.7883  0.6838
23710SOL     OW71707   0.061   5.739   9.295  1.0105 -0.2226 -0.1379
23710SOL    HW171708   0.105   5.799   9.235  1.1128 -0.5180 -0.3573
23710SOL    HW271709  -0.032   5.764   9.289  1.1390  0.4335  0.3648
23711SOL     OW71710   2.046   8.800   2.947 -0.7114 -0.5092 -0.7587
23711SOL    HW171711   2.079   8.712   2.927  1.5672  0.2959 -0.7907
23711SOL    HW271712   2.020   8.835   2.862  1.9114  0.1602 -1.3670
23712SOL     OW71713   8.779   6.989   2.825  0.4643  0.5121 -0.6450
23712SOL    HW171714   8.799   6.982   2.732  0.1276 -2.3427 -0.6072
23712SOL    HW271715   8.700   6.935   2.836  0.8828  0.2372  1.3799
23713SOL     OW71716   5.203   2.682   9.456 -0.1329  0.1390 -0.7230
23713SOL    HW171717   5.194   2.611   9.392  0.5583  0.2511 -0.9558
23713SOL    HW271718   5.278   2.734   9.424 -0.4447  0.8029 -0.3972
23714SOL     OW71719   7.313   9.340   1.744 -0.8592  0.0808 -0.4512
23714SOL    HW171720   7.286   9.389   1.821 -1.2859 -1.8773  0.7284
23714SOL    HW271721   7.407   9.329   1.753 -0.8721  0.0678 -0.3327
23715SOL     OW71722   9.226   4.507   4.920  0.5244  0.0350  0.2222
23715SOL    HW171723   9.254   4.435   4.977  1.0884  0.6830  0.7749
23715SOL    HW271724   9.257   4.482   4.833 -0.0790 -0.8168  0.2340
23716SOL     OW71725   3.071   7.203   1.769 -0.4008  0.1995  0.0771
23716SOL    HW171726   3.153   7.154   1.779 -1.2164 -1.0290  1.0298
23716SOL    HW271727   3.047   7.192   1.677 -0.5519 -1.2128  0.2646
23717SOL     OW71728   5.747   7.745   9.531 -0.4656  0.5137  0.0502
23717SOL    HW171729   5.669   7.730   9.584 -1.3046  1.7997 -0.7804
23717SOL    HW271730   5.750   7.839   9.517  1.2556  0.5016  0.0449
23718SOL     OW71731   3.537   1.418   4.914 -0.3644 -0.1041  0.6272
23718SOL    HW171732   3.604   1.487   4.910  2.1942 -2.4672 -0.7974
23718SOL    HW271733   3.557   1.362   4.839 -4.8174 -0.3259 -0.6704
23719SOL     OW71734   8.210   6.896   7.722 -0.2000 -0.2180 -0.4894
23719SOL    HW171735   8.294   6.880   7.764  0.4547  0.8743 -1.3167
23719SOL    HW271736   8.151   6.833   7.762  0.9563 -0.8628  0.2704
23720SOL     OW71737   5.696   9.817   8.625  0.2901  0.0664  0.1531
23720SOL    HW171738   5.687   9.750   8.557 -1.9720 -2.2147  2.4996
23720SOL    HW271739   5.615   9.867   8.622  0.1531 -0.0725  1.1694
23721SOL     OW71740   5.288   0.299   5.967 -0.4305  0.0700 -0.2820
23721SOL    HW171741   5.362   0.270   6.020 -1.1939  0.6238  1.1565
23721SOL    HW271742   5.294   0.394   5.968 -0.3841  0.0885 -1.3386
23722SOL     OW71743   0.325   2.400   8.548  0.4260  0.1493 -0.0432
23722SOL    HW171744   0.273   2.479   8.532 -0.9631 -0.1092  2.6535
23722SOL    HW271745   0.264   2.338   8.588  2.0692 -1.4043  0.2203
23723SOL     OW71746   5.563   1.246   5.988 -0.0080  0.0641  0.1342
23723SOL    HW171747   5.652   1.223   5.961 -0.1537  0.7877 -0.9991
23723SOL    HW271748   5.538   1.175   6.048  1.4349  0.0193  0.7213
23724SOL     OW71749   6.952   9.434   1.383 -0.4668 -0.0726  0.1706
23724SOL    HW171750   7.035   9.394   1.407 -0.6193 -0.9870 -0.7281
23724SOL    HW271751   6.968   9.529   1.389  1.5240 -0.0847 -2.5632
23725SOL     OW71752   1.101   5.579   2.721  0.0880 -0.5165 -0.0339
23725SOL    HW171753   1.133   5.489   2.724  4.1167  0.6210 -1.8397
23725SOL    HW271754   1.161   5.628   2.777 -1.1547  1.2701 -0.1737
23726SOL     OW71755   0.289   9.891   4.973  0.6315 -0.2108 -0.2677
23726SOL    HW171756   0.198   9.901   4.947  0.0818 -1.7562  0.9355
23726SOL    HW271757   0.320   9.815   4.925  0.9287 -0.4186  0.2426
23727SOL     OW71758   0.305   7.982   4.309  0.2232  0.1388 -0.3235
23727SOL    HW171759   0.212   7.992   4.291  0.1933  0.5454  0.0361
23727SOL    HW271760   0.341   8.070   4.301  0.5159  0.0379 -0.1525
23728SOL     OW71761   2.522   7.384   4.839 -0.0481  0.1552  0.0422
23728SOL    HW171762   2.463   7.310   4.830  0.9452 -0.9343  1.8850
23728SOL    HW271763   2.488   7.450   4.778 -1.4811 -1.4600 -0.9827
23729SOL     OW71764   2.000   1.576   2.052 -0.3047  0.6025 -0.5083
23729SOL    HW171765   1.929   1.603   1.993 -0.4118 -1.9023 -1.6381
23729SOL    HW271766   1.965   1.501   2.099  1.1837  0.0819 -0.1815
23730SOL     OW71767   8.737   0.091   4.300 -0.1501  0.2269 -0.3678
23730SOL    HW171768   8.708   0.159   4.240  0.0162  0.8472  0.2451
23730SOL    HW271769   8.773   0.023   4.244 -1.2975  0.1609 -1.0586
23731SOL     OW71770   7.711   5.744   3.910 -0.0946 -0.1950  0.3274
23731SOL    HW171771   7.667   5.828   3.896  0.4591  0.1789  0.7877
23731SOL    HW271772   7.641   5.679   3.905 -0.7272  0.4044  1.2206
23732SOL     OW71773   9.134   6.125   3.315  0.3676 -0.2031 -0.4751
23732SOL    HW171774   9.126   6.030   3.310 -1.5399 -0.2081  1.2276
23732SOL    HW271775   9.149   6.153   3.225  0.1108 -2.0452 -1.1412
23733SOL     OW71776   0.850   3.360   5.377 -0.1326 -0.1010 -0.1880
23733SOL    HW171777   0.827   3.452   5.395 -1.4212 -0.4148 -0.1140
23733SOL    HW271778   0.940   3.364   5.344 -0.3837  1.2677 -0.7886
23734SOL     OW71779   8.129   0.041   1.963 -0.8042  0.0710 -0.1399
23734SOL    HW171780   8.185  -0.013   1.907 -2.0285 -0.7292 -0.6510
23734SOL    HW271781   8.145   0.131   1.933 -2.5286 -0.4167 -2.9107
23735SOL     OW71782   4.398   5.613   8.458  0.8974 -0.1421  0.1782
23735SOL    HW171783   4.459   5.670   8.507  0.7354  0.1154  0.0830
23735SOL    HW271784   4.432   5.614   8.369 -0.2192  1.4132 -0.2785
23736SOL     OW71785   6.539   3.172   2.251 -0.6420  0.2121 -0.5107
23736SOL    HW171786   6.614   3.113   2.258 -1.0093 -0.2105 -0.0922
23736SOL    HW271787   6.578   3.258   2.234 -0.0172  0.1676  0.6177
23737SOL     OW71788   3.664   3.052   0.991  0.1825 -0.1254  0.2996
23737SOL    HW171789   3.708   3.136   0.980  3.0199 -1.7262 -2.5387
23737SOL    HW271790   3.705   3.014   1.069  0.0059  0.5062  0.7060
23738SOL     OW71791   5.403   0.545   5.449 -0.0972 -0.0951  0.2932
23738SOL    HW171792   5.388   0.501   5.365 -0.6675  0.0028  0.3423
23738SOL    HW271793   5.398   0.475   5.514  3.2198 -0.7222  0.0522
23739SOL     OW71794   7.664   3.369   5.537 -0.6477  0.0034 -0.3663
23739SOL    HW171795   7.612   3.445   5.508  1.0448  1.0590 -0.7628
23739SOL    HW271796   7.646   3.364   5.631 -0.6387  1.0318 -0.2885
23740SOL     OW71797   9.411   1.923   2.685  0.2518 -0.0686 -0.0021
23740SOL    HW171798   9.497   1.960   2.703 -0.3287  0.3162  2.2601
23740SOL    HW271799   9.430   1.839   2.642  1.7071  0.3257 -0.2008
23741SOL     OW71800   0.754   4.467   9.568 -0.2303  0.1969  0.3937
23741SOL    HW171801   0.680   4.493   9.623 -1.6544  0.4113 -1.5299
23741SOL    HW271802   0.831   4.483   9.622 -1.5618  0.2345  2.3560
23742SOL     OW71803   6.820   5.457   4.288  0.2535  0.3889  0.3783
23742SOL    HW171804   6.867   5.440   4.206  0.1551 -1.4474  0.6750
23742SOL    HW271805   6.786   5.372   4.314 -2.4144  1.4682  0.7018
23743SOL     OW71806   8.422   4.042   2.969  0.4809  0.2792 -0.4430
23743SOL    HW171807   8.487   4.110   2.954 -0.5638  1.5844  0.6106
23743SOL    HW271808   8.356   4.057   2.902 -1.3622  2.4926  1.6457
23744SOL     OW71809   0.649   0.943   5.232  0.1511 -0.4032 -0.5404
23744SOL    HW171810   0.561   0.917   5.258  0.3959 -0.6862  0.0273
23744SOL    HW271811   0.692   0.861   5.204  1.1526 -0.8021  1.9247
23745SOL     OW71812   9.211   6.126   6.219 -0.1475  0.1357  0.0239
23745SOL    HW171813   9.147   6.064   6.255  0.4437 -0.7280 -0.3659
23745SOL    HW271814   9.294   6.101   6.260 -0.1095  1.4899  0.8206
23746SOL     OW71815   7.319   3.847   0.968 -0.4895 -0.1763 -0.2591
23746SOL    HW171816   7.334   3.933   0.929 -0.4712 -0.7661 -1.6250
23746SOL    HW271817   7.395   3.795   0.942  0.3743 -0.1630  2.0139
23747SOL     OW71818   2.111   9.335   6.949 -0.1542  0.2359 -0.9474
23747SOL    HW171819   2.071   9.419   6.925  0.8122  0.9415 -0.2267
23747SOL    HW271820   2.205   9.352   6.944  0.0738 -1.1297 -1.8120
23748SOL     OW71821   2.959   6.005   8.382 -0.2696  0.2893  0.1844
23748SOL    HW171822   2.936   5.956   8.460  1.0632 -0.3934  0.1851
23748SOL    HW271823   3.052   5.985   8.368 -0.2823  1.0194 -1.1176
23749SOL     OW71824   6.148   0.428   4.435  0.3200  0.0342 -0.3672
23749SOL    HW171825   6.137   0.472   4.350  1.5609  0.0225 -0.5484
23749SOL    HW271826   6.058   0.411   4.464 -0.1835  1.5949 -0.8628
23750SOL     OW71827   1.402   6.778   9.094 -0.1485  0.2637  0.4246
23750SOL    HW171828   1.459   6.717   9.047  0.3359  0.9363  0.1335
23750SOL    HW271829   1.457   6.853   9.115 -0.4267  0.0996  1.8518
23751SOL     OW71830   0.823   6.078   8.654 -0.1839  0.3488  0.3928
23751SOL    HW171831   0.868   6.044   8.732  0.7256 -0.7255 -0.5666
23751SOL    HW271832   0.757   6.011   8.635 -0.8692  0.9443  0.6162
23752SOL     OW71833   5.581   9.551   4.205  0.7432  0.4249 -0.6427
23752SOL    HW171834   5.575   9.647   4.211  0.0510  0.3719 -0.4135
23752SOL    HW271835   5.491   9.521   4.215  0.6439 -0.1471 -2.8198
23753SOL     OW71836   5.466   4.556   4.163 -0.0477 -0.4155  0.2224
23753SOL    HW171837   5.431   4.497   4.230  0.2546 -1.1166 -0.2235
23753SOL    HW271838   5.449   4.644   4.197 -2.1777 -0.7097  0.0699
23754SOL     OW71839   4.010   4.797   6.752  0.1156 -0.0510  0.2331
23754SOL    HW171840   3.941   4.765   6.694 -0.3849  0.2429  0.6598
23754SOL    HW271841   4.019   4.889   6.728  0.3944 -0.1025  0.1435
23755SOL     OW71842   3.789   3.050   0.726 -0.0530  0.4425 -0.1233
23755SOL    HW171843   3.866   3.050   0.783  0.4328 -0.2571 -0.7488
23755SOL    HW271844   3.715   3.037   0.785  0.4244 -0.0500  0.3812
23756SOL     OW71845   7.455   4.684   0.685  0.1872 -0.5347 -0.0179
23756SOL    HW171846   7.416   4.763   0.649  0.2920  0.4105  1.8202
23756SOL    HW271847   7.415   4.675   0.772  3.8701  0.4775  2.0155
23757SOL     OW71848   9.103   0.795   7.026 -0.7685 -0.6523  0.1089
23757SOL    HW171849   9.018   0.835   7.007  0.0749  0.5211 -1.4876
23757SOL    HW271850   9.116   0.811   7.119 -1.2686  1.2930 -0.0993
23758SOL     OW71851   9.826   2.953   3.126  0.8635 -0.2503  0.3133
23758SOL    HW171852   9.867   2.901   3.057 -1.0596 -1.8306  0.2642
23758SOL    HW271853   9.890   3.021   3.147  2.3614 -1.0214 -1.5245
23759SOL     OW71854   9.946   2.769   5.791  0.0887 -0.3168  0.1841
23759SOL    HW171855  10.031   2.785   5.831  0.8098 -0.0835 -1.4018
23759SOL    HW271856   9.945   2.675   5.773 -0.9224 -0.7547  2.1952
23760SOL     OW71857   7.845   0.131   6.925 -0.0555  0.0916  0.2439
23760SOL    HW171858   7.929   0.158   6.887  0.2157 -0.5971  0.3339
23760SOL    HW271859   7.786   0.204   6.907  0.3838  0.2926 -0.4241
23761SOL     OW71860   7.666   3.019   4.848  0.0981  0.1032 -0.2317
23761SOL    HW171861   7.647   3.111   4.828  1.3244  0.8217  1.6014
23761SOL    HW271862   7.584   2.985   4.883  0.2828  1.3029  1.5257
23762SOL     OW71863   6.297   6.106   7.645 -0.4105 -0.0939 -0.4093
23762SOL    HW171864   6.244   6.090   7.723  1.7092  0.7571  1.2881
23762SOL    HW271865   6.255   6.181   7.602 -1.3937 -0.3534  0.0776
23763SOL     OW71866   4.035   8.734   5.859 -0.1375  0.3095 -0.3075
23763SOL    HW171867   3.956   8.764   5.904  0.3167  1.2684 -0.1209
23763SOL    HW271868   4.021   8.756   5.767 -1.4966 -2.5509 -0.8934
23764SOL     OW71869   2.251   8.152   4.130  0.0944 -0.4134 -0.4644
23764SOL    HW171870   2.278   8.115   4.213  0.0822 -0.1836 -0.3568
23764SOL    HW271871   2.180   8.095   4.099  0.2111 -0.5928 -0.3966
23765SOL     OW71872   5.519   5.292   9.020 -0.0530  0.0742 -0.1083
23765SOL    HW171873   5.598   5.240   9.035  0.8636  1.3032 -0.5125
23765SOL    HW271874   5.536   5.375   9.065 -1.3712  0.1499  0.2995
23766SOL     OW71875   3.316   3.897   1.403 -0.2674 -0.4473 -0.2542
23766SOL    HW171876   3.237   3.908   1.351 -1.4587  1.9977  1.8614
23766SOL    HW271877   3.300   3.817   1.454 -0.7528 -0.6913 -0.7770
23767SOL     OW71878   7.644   7.247   4.343  0.0012  0.0770 -0.7537
23767SOL    HW171879   7.694   7.168   4.367  0.7910  0.4059 -1.2608
23767SOL    HW271880   7.661   7.258   4.249  0.2258  1.0627 -0.6090
23768SOL     OW71881   1.274   1.050   5.324 -0.0301 -0.5421 -0.5671
23768SOL    HW171882   1.273   1.075   5.417  1.3808 -2.5223  0.0333
23768SOL    HW271883   1.346   1.100   5.287  1.2951 -1.8959  0.1030
23769SOL     OW71884   0.399   0.745   6.071  0.5444  0.1977 -0.3094
23769SOL    HW171885   0.330   0.793   6.025  0.3731  0.5547  0.2990
23769SOL    HW271886   0.480   0.772   6.027  0.3380  0.0784 -0.7739
23770SOL     OW71887   3.663   9.921   5.347  0.2959  0.1240 -0.0917
23770SOL    HW171888   3.664   9.858   5.275  0.3740 -1.0485  0.9097
23770SOL    HW271889   3.579   9.966   5.339  0.2785 -0.0334 -0.8733
23771SOL     OW71890   1.639   8.488   5.818  0.2938 -0.6067 -0.1336
23771SOL    HW171891   1.598   8.413   5.861 -0.0570 -0.9314 -1.0199
23771SOL    HW271892   1.586   8.504   5.740  0.1253  0.8152  0.2373
23772SOL     OW71893   8.476   3.924   8.643 -0.3405 -0.0241  0.1614
23772SOL    HW171894   8.502   3.920   8.551  1.5669  0.4962  0.6458
23772SOL    HW271895   8.474   3.832   8.670 -2.1105 -0.2730 -0.6732
23773SOL     OW71896   5.193   6.932   2.202  0.6957 -0.0071  0.1045
23773SOL    HW171897   5.256   6.892   2.142  0.2762  0.5011 -0.6872
23773SOL    HW271898   5.120   6.869   2.206  0.7817 -0.1020  0.1865
23774SOL     OW71899   8.509   2.402   0.361  0.0149 -0.3075 -0.2124
23774SOL    HW171900   8.446   2.425   0.292  0.1753 -0.8314 -0.5432
23774SOL    HW271901   8.595   2.421   0.322  0.0670  0.4324  0.2474
23775SOL     OW71902   9.474   9.461   9.812 -0.3363  0.4072  0.2770
23775SOL    HW171903   9.492   9.368   9.821 -1.5030  0.1969  0.6099
23775SOL    HW271904   9.546   9.495   9.759  0.4819 -0.5373  0.7650
23776SOL     OW71905   0.580   8.041   6.035 -0.2139  0.0312 -1.1433
23776SOL    HW171906   0.509   8.098   6.064 -0.4258 -1.0688  0.6065
23776SOL    HW271907   0.654   8.064   6.091 -0.4996 -1.8452  0.0793
23777SOL     OW71908   9.628   6.387   7.153  0.9038  0.8583 -0.3509
23777SOL    HW171909   9.707   6.347   7.117  0.2386  0.0429 -0.9294
23777SOL    HW271910   9.563   6.379   7.084 -1.0991 -2.7886  1.6304
23778SOL     OW71911   2.571   7.456   8.717 -0.1655  0.3855  0.2038
23778SOL    HW171912   2.478   7.477   8.724  0.1817  2.0159  0.0931
23778SOL    HW271913   2.611   7.501   8.792  0.3624 -1.5780  1.1894
23779SOL     OW71914   0.286   4.204   7.168  0.0644  0.2749 -0.2936
23779SOL    HW171915   0.306   4.129   7.225 -2.4075  0.5153  1.0708
23779SOL    HW271916   0.363   4.213   7.112  0.8436 -2.6907  0.1084
23780SOL     OW71917   1.960   2.995   7.692  0.4218 -0.0013  0.1613
23780SOL    HW171918   2.020   3.065   7.721 -1.3012  1.3965  0.5635
23780SOL    HW271919   1.945   2.943   7.771  0.3316  0.2565  0.3168
23781SOL     OW71920   5.137   0.790   3.604 -0.2506  0.1277 -0.1767
23781SOL    HW171921   5.193   0.855   3.647  0.9478 -1.3950  0.6814
23781SOL    HW271922   5.195   0.716   3.588 -1.0371  0.0546 -3.1384
23782SOL     OW71923   1.660   2.750   2.899  0.5317  0.6621  0.0055
23782SOL    HW171924   1.632   2.833   2.938 -2.2470 -0.5785  0.9231
23782SOL    HW271925   1.616   2.747   2.814  1.1719  0.4081 -0.3231
23783SOL     OW71926   6.042   7.483   8.668  0.3829 -0.1347  0.2817
23783SOL    HW171927   6.026   7.512   8.578  1.0574  0.6440  0.4034
23783SOL    HW271928   6.124   7.435   8.663  0.4351 -0.0653  0.4864
23784SOL     OW71929   9.157   2.625   4.509 -0.0172 -0.2548 -0.0267
23784SOL    HW171930   9.143   2.544   4.559  2.5650 -2.5878 -2.7288
23784SOL    HW271931   9.079   2.633   4.455  0.3106 -1.8387 -0.7890
23785SOL     OW71932   3.479   7.728   7.994  0.3018  0.0056  0.0408
23785SOL    HW171933   3.406   7.685   8.039 -2.1627  3.2815 -0.4898
23785SOL    HW271934   3.484   7.815   8.034  2.3158  0.7498 -1.6592
23786SOL     OW71935   7.953   8.767   8.176  0.1764  0.3307 -0.4345
23786SOL    HW171936   7.989   8.796   8.260  0.1014  1.9857 -0.9388
23786SOL    HW271937   7.858   8.780   8.184 -0.0072 -0.9187 -0.2785
23787SOL     OW71938   2.449   1.180   2.065  0.1198  0.0572 -0.6599
23787SOL    HW171939   2.394   1.138   2.130 -0.7399 -0.2341 -1.5540
23787SOL    HW271940   2.427   1.137   1.982  1.8583 -0.2328 -1.0203
23788SOL     OW71941   1.826   2.224   2.415 -0.0660  0.0351  0.2623
23788SOL    HW171942   1.826   2.262   2.503  0.6251  2.4081 -0.6778
23788SOL    HW271943   1.912   2.246   2.379  0.0916 -1.8778 -0.6451
23789SOL     OW71944   5.886   5.987   5.714 -0.2268 -0.6169 -0.0882
23789SOL    HW171945   5.819   6.053   5.728  1.7582  2.6233 -3.7707
23789SOL    HW271946   5.851   5.931   5.646 -0.1848 -0.4948 -0.2115
23790SOL     OW71947   6.274   1.463   0.846 -0.6704  0.2156  0.3345
23790SOL    HW171948   6.189   1.445   0.807 -0.5010  0.2240 -0.0441
23790SOL    HW271949   6.290   1.388   0.904  0.8130 -1.9207 -2.5457
23791SOL     OW71950   3.691   8.361   2.035 -0.6828 -0.1411 -0.3678
23791SOL    HW171951   3.675   8.293   2.099  0.7601 -1.3145 -1.1854
23791SOL    HW271952   3.752   8.422   2.078  0.0348 -0.7591 -0.4790
23792SOL     OW71953   4.271   3.435   3.912 -0.3588 -0.1622 -0.5821
23792SOL    HW171954   4.241   3.353   3.951  0.6661  0.3185  1.3859
23792SOL    HW271955   4.366   3.423   3.903  0.1039  1.4290  1.5099
23793SOL     OW71956   2.511   8.624   5.046 -0.4852  0.2230  0.6948
23793SOL    HW171957   2.495   8.633   4.952 -0.5783 -3.5235  0.2052
23793SOL    HW271958   2.604   8.644   5.057 -0.2654 -0.1714 -0.3618
23794SOL     OW71959   0.358   7.555   9.590  0.2584  0.3459 -0.2443
23794SOL    HW171960   0.324   7.494   9.655  0.2376 -1.1153 -1.5693
23794SOL    HW271961   0.448   7.571   9.617  0.8627 -1.7770 -0.8912
23795SOL     OW71962   9.305   7.017   1.478  0.4304  0.4310 -0.3253
23795SOL    HW171963   9.383   7.073   1.485  0.1444  0.6782  1.5005
23795SOL    HW271964   9.246   7.050   1.546 -0.5007 -0.9398 -0.4321
23796SOL     OW71965   4.708   7.395   2.281 -0.1854 -0.4646  0.4097
23796SOL    HW171966   4.725   7.483   2.247  0.2640 -1.2176 -1.4000
23796SOL    HW271967   4.613   7.394   2.297 -0.4839 -0.1621 -1.1525
23797SOL     OW71968   7.166   9.022   2.129  0.1624  0.0039 -0.2099
23797SOL    HW171969   7.169   9.067   2.044 -0.1237  1.2999  0.4417
23797SOL    HW271970   7.145   8.931   2.107  0.0306  0.3327 -1.5233
23798SOL     OW71971   8.667   1.357   8.176  0.0377  0.4056  0.9097
23798SOL    HW171972   8.605   1.284   8.173  0.3339  0.1195  1.5374
23798SOL    HW271973   8.716   1.352   8.094 -0.6360  0.5189  0.4936
23799SOL     OW71974   8.826   7.109   8.563  0.4656  0.7980 -0.1540
23799SOL    HW171975   8.877   7.034   8.594  1.9521  1.4683 -0.9152
23799SOL    HW271976   8.797   7.084   8.475 -1.1956  0.1330  0.5275
23800SOL     OW71977   2.213   5.408   2.915  0.5940 -0.8614  0.3935
23800SOL    HW171978   2.284   5.433   2.857  1.8671 -1.3937  1.6538
23800SOL    HW271979   2.183   5.491   2.953  0.6254 -0.6492 -0.0376
23801SOL     OW71980   6.639   8.094   5.383  0.0173  0.3959  0.5771
23801SOL    HW171981   6.732   8.088   5.362 -0.4201 -2.1915 -1.1083
23801SOL    HW271982   6.601   8.141   5.308 -0.4827 -2.0799 -0.8478
23802SOL     OW71983   6.936   4.006   7.948 -0.5193 -0.1321  0.3623
23802SOL    HW171984   6.997   4.037   7.881  0.5957 -1.1347  0.8735
23802SOL    HW271985   6.874   3.951   7.900 -1.0938  0.9483 -0.1730
23803SOL     OW71986   8.028   9.305   4.351  0.2499 -0.3069 -0.1281
23803SOL    HW171987   8.115   9.305   4.312 -0.2446  2.8514 -1.6189
23803SOL    HW271988   8.036   9.365   4.426 -0.5041 -0.4390  0.0621
23804SOL     OW71989   5.962   4.718   7.250  0.0806 -0.4648  0.1117
23804SOL    HW171990   5.929   4.732   7.339 -0.4165 -0.3989 -0.0769
23804SOL    HW271991   5.883   4.700   7.198  0.3288 -0.1613 -0.3783
23805SOL     OW71992   0.950   8.105   3.790 -0.0202 -0.1909 -0.2042
23805SOL    HW171993   0.886   8.176   3.797  1.0333  0.7292  0.3144
23805SOL    HW271994   0.907   8.030   3.833 -0.1906  0.8224  1.4900
23806SOL     OW71995   2.867   9.880   4.972  0.3423  0.0494 -0.3514
23806SOL    HW171996   2.941   9.873   5.033 -0.0657  0.0517  0.1539
23806SOL    HW271997   2.908   9.890   4.886  0.9316 -0.3257 -0.1259
23807SOL     OW71998   1.268   8.231   2.012  0.1564 -0.2008 -0.1865
23807SOL    HW171999   1.347   8.265   1.970 -0.8022  0.6296 -1.3820
23807SOL    HW272000   1.252   8.148   1.969  0.6945 -0.6622  0.4801
23808SOL     OW72001   5.352   8.087   0.488 -0.1342  0.3833 -0.1571
23808SOL    HW172002   5.372   8.063   0.397  0.3996  0.6961 -0.1246
23808SOL    HW272003   5.350   8.004   0.535  0.1502  0.2716 -0.3448
23809SOL     OW72004   8.023   9.303   1.281 -0.1039 -0.0636 -0.1308
23809SOL    HW172005   7.948   9.340   1.233 -0.2605  0.4658  0.5018
23809SOL    HW272006   8.006   9.209   1.283 -0.0051 -0.1239 -1.2533
23810SOL     OW72007   5.785   8.066   9.472 -0.3752  0.0424  0.1902
23810SOL    HW172008   5.694   8.053   9.496 -0.4386  4.0107  3.0967
23810SOL    HW272009   5.833   8.058   9.554  1.6118 -0.0004 -0.9099
23811SOL     OW72010   4.545   9.357   0.418  0.4192  0.1230  0.3233
23811SOL    HW172011   4.603   9.298   0.468 -3.3155 -3.1696  1.2599
23811SOL    HW272012   4.529   9.311   0.336 -0.1883  1.3737 -0.2801
23812SOL     OW72013   6.896   0.564   7.157 -0.7114 -0.2786  0.9608
23812SOL    HW172014   6.834   0.539   7.226 -1.9181  0.2457  0.1055
23812SOL    HW272015   6.944   0.484   7.138 -0.3485 -0.4386  2.3947
23813SOL     OW72016   8.502   8.152   3.237 -0.6842 -0.4922 -0.5130
23813SOL    HW172017   8.502   8.087   3.307  0.5125  0.0367 -0.0088
23813SOL    HW272018   8.410   8.179   3.230 -0.6715  0.2850  1.6449
23814SOL     OW72019   7.358   4.409   0.145 -0.1465  0.1928  0.2320
23814SOL    HW172020   7.364   4.491   0.194  1.2395 -0.6275  1.5254
23814SOL    HW272021   7.413   4.423   0.068  0.2842  0.4059  0.5744
23815SOL     OW72022   8.180   4.721   8.280 -0.5799 -0.3429 -0.0643
23815SOL    HW172023   8.159   4.729   8.187 -0.3430 -0.2178 -0.1049
23815SOL    HW272024   8.227   4.801   8.301  0.7187 -1.0473 -0.1925
23816SOL     OW72025   3.437   9.469   3.404  0.5945 -0.4785 -0.1522
23816SOL    HW172026   3.350   9.489   3.438 -0.3029 -3.1111 -0.6417
23816SOL    HW272027   3.420   9.436   3.316  2.3438  0.9686 -1.0963
23817SOL     OW72028   0.614   5.050   5.999 -0.1771  0.0864  0.0096
23817SOL    HW172029   0.652   5.017   5.918  1.2401  0.1891  0.6064
23817SOL    HW272030   0.662   5.131   6.017 -1.8766  1.1556 -0.1039
23818SOL     OW72031   8.009   3.470   7.488  0.1156 -0.0339  0.4176
23818SOL    HW172032   8.046   3.408   7.425  1.1374  0.7092  0.2649
23818SOL    HW272033   8.026   3.556   7.451 -1.4858  0.3533  0.5268
23819SOL     OW72034   6.418   8.661   5.010 -0.2199  0.3653 -0.2556
23819SOL    HW172035   6.485   8.654   5.078 -0.5489 -0.7136 -0.0250
23819SOL    HW272036   6.337   8.632   5.053 -0.7040  0.9649 -0.7361
23820SOL     OW72037   5.245   4.362   2.602  0.5340  0.2750 -0.0663
23820SOL    HW172038   5.186   4.394   2.534  0.4438  2.1851  0.8625
23820SOL    HW272039   5.283   4.283   2.564 -1.7955 -0.4518 -1.1170
23821SOL     OW72040   8.060   0.330   2.511 -0.9935 -0.0543  0.1878
23821SOL    HW172041   8.035   0.299   2.598 -2.2274  0.4008  0.0300
23821SOL    HW272042   8.078   0.423   2.524 -3.3279  0.5567 -0.3638
23822SOL     OW72043   6.521   0.876   5.081  0.4176 -0.0427 -0.0757
23822SOL    HW172044   6.593   0.937   5.061 -1.0733  1.4241 -1.1979
23822SOL    HW272045   6.464   0.880   5.004 -1.1644 -0.7625  1.0134
23823SOL     OW72046   2.269   5.113   7.383  0.0849  0.2482  0.0164
23823SOL    HW172047   2.342   5.106   7.444 -0.3185 -0.2497  0.4544
23823SOL    HW272048   2.306   5.090   7.298  0.2837 -0.7160  0.3512
23824SOL     OW72049   2.530   0.128   7.399 -0.1090 -0.2642  0.1426
23824SOL    HW172050   2.579   0.079   7.465  1.1743  0.2479 -0.4022
23824SOL    HW272051   2.440   0.129   7.433 -0.0966 -2.5445  0.4080
23825SOL     OW72052   2.923   4.851   9.378 -0.1258 -0.0272 -0.3399
23825SOL    HW172053   2.837   4.891   9.368 -0.0725 -0.2023 -1.6453
23825SOL    HW272054   2.907   4.774   9.432 -0.1780  1.8302  2.4792
23826SOL     OW72055   8.368   1.898   1.543 -0.2023  0.3464  0.4394
23826SOL    HW172056   8.416   1.981   1.545  0.6655 -0.0964  3.8399
23826SOL    HW272057   8.426   1.839   1.496  0.7744  0.8465  0.9719
23827SOL     OW72058   0.760   9.900   4.993 -0.0133  0.0246  0.3257
23827SOL    HW172059   0.798   9.879   4.908  1.1664  2.3951  0.1758
23827SOL    HW272060   0.670   9.926   4.974  0.8535  2.7246 -0.6506
23828SOL     OW72061   5.668   2.861   3.630  0.4073 -0.2420 -0.5663
23828SOL    HW172062   5.577   2.840   3.650  0.6082  0.8064  1.8263
23828SOL    HW272063   5.665   2.950   3.596  0.4395 -0.6942 -1.7927
23829SOL     OW72064   6.004   3.516   0.027  0.2699  0.2285 -0.2090
23829SOL    HW172065   6.005   3.479  -0.061 -0.3712 -0.6680  0.1462
23829SOL    HW272066   5.911   3.528   0.047  0.4398  1.3230 -0.0113
23830SOL     OW72067   5.877   5.596   1.146  0.1207 -0.0419  0.5300
23830SOL    HW172068   5.847   5.657   1.079  1.3703 -1.3296 -1.3088
23830SOL    HW272069   5.973   5.606   1.145  0.1619 -0.1067  2.1227
23831SOL     OW72070   7.297   7.946   1.673  0.2173 -0.5735  0.1733
23831SOL    HW172071   7.348   8.007   1.725  0.4429  0.4972 -1.2418
23831SOL    HW272072   7.284   7.870   1.730 -0.2242  0.8446  2.0549
23832SOL     OW72073   4.698   1.512   0.887  0.3483 -0.4226 -0.2314
23832SOL    HW172074   4.667   1.558   0.965 -2.1222  0.4525 -1.6109
23832SOL    HW272075   4.715   1.582   0.823  0.2397 -1.2069 -1.1450
23833SOL     OW72076   6.621   0.848   5.725  0.2643  0.0035  0.0361
23833SOL    HW172077   6.665   0.792   5.661  0.5344  0.0066  0.2182
23833SOL    HW272078   6.552   0.891   5.675 -0.0606 -0.6244 -0.0695
23834SOL     OW72079   9.836   2.883   3.474 -0.0214  0.1469 -0.5167
23834SOL    HW172080   9.758   2.923   3.436  1.6750  2.6500 -1.6927
23834SOL    HW272081   9.872   2.951   3.532 -0.1905 -2.0010  2.3013
23835SOL     OW72082   0.168   8.509   6.450 -0.2588  0.5348 -0.2296
23835SOL    HW172083   0.096   8.491   6.511  0.0333  0.9705  0.2502
23835SOL    HW272084   0.179   8.428   6.401  0.3348 -0.2415  1.1600
23836SOL     OW72085   8.125   1.681   7.904 -0.3282  0.2515 -0.0569
23836SOL    HW172086   8.144   1.605   7.958  3.5061  0.6851 -0.4956
23836SOL    HW272087   8.070   1.737   7.958 -0.3668 -1.3332  1.6060
23837SOL     OW72088   7.807   0.720   7.452 -0.1484  0.2814 -0.4662
23837SOL    HW172089   7.858   0.801   7.448 -1.3657  1.0587 -0.7502
23837SOL    HW272090   7.716   0.748   7.441 -0.8353 -0.8805  1.6858
23838SOL     OW72091   5.006   9.080   5.261 -0.1997 -0.2147 -0.4328
23838SOL    HW172092   5.043   9.119   5.182 -0.4607 -0.5613 -0.7320
23838SOL    HW272093   4.942   9.017   5.229 -2.8687  2.0513  0.0555
23839SOL     OW72094   1.772   3.063   9.181 -0.1265  0.0607  0.2528
23839SOL    HW172095   1.757   3.082   9.274 -1.7713 -1.0132  0.2583
23839SOL    HW272096   1.821   2.981   9.181  0.0474  0.1668  0.1881
23840SOL     OW72097   3.296   6.750   1.350  0.4107  0.2306  0.3092
23840SOL    HW172098   3.341   6.832   1.330  1.5626 -0.2004  0.9814
23840SOL    HW272099   3.242   6.770   1.427 -0.0709  0.5919 -0.1156
23841SOL     OW72100   2.919   2.779   1.955 -0.1107  0.4967 -0.2173
23841SOL    HW172101   2.851   2.788   1.888 -0.3549  1.3658  0.1395
23841SOL    HW272102   2.880   2.817   2.034  0.1419 -0.5976  0.4575
23842SOL     OW72103   4.895   3.199   3.465  0.3375 -0.2199 -0.2071
23842SOL    HW172104   4.964   3.229   3.406 -0.0344 -0.3309 -0.7065
23842SOL    HW272105   4.843   3.139   3.412  0.2355 -0.6398  0.3563
23843SOL     OW72106   0.636   3.305   0.993  0.0430 -0.0665 -0.5579
23843SOL    HW172107   0.714   3.310   0.937  0.2634  2.3230 -0.1528
23843SOL    HW272108   0.630   3.213   1.018  1.3793 -0.7306 -2.4756
23844SOL     OW72109   7.279   6.565   9.918  0.1368 -0.1176 -0.0220
23844SOL    HW172110   7.345   6.497   9.932 -0.6121 -0.3271  3.1620
23844SOL    HW272111   7.241   6.545   9.832  1.9072 -1.9603 -0.4396
23845SOL     OW72112   4.030   3.754   4.218  0.1547 -0.4874 -0.0422
23845SOL    HW172113   4.081   3.741   4.298 -0.8512  0.9181  0.8870
23845SOL    HW272114   4.090   3.732   4.147  1.7984  0.3327  1.0244
23846SOL     OW72115   6.385   6.668   4.614 -0.2153  0.2279 -0.1547
23846SOL    HW172116   6.379   6.684   4.708 -0.7933  0.8808 -0.2974
23846SOL    HW272117   6.299   6.634   4.590  0.0782 -0.3725 -0.3721
23847SOL     OW72118   6.057   1.853   1.874 -0.1368 -0.5016  0.5424
23847SOL    HW172119   5.982   1.874   1.930  0.1284  1.8013  0.1381
23847SOL    HW272120   6.121   1.922   1.892 -0.4287  1.0536 -3.2206
23848SOL     OW72121   0.159   3.936   5.499  0.0388  0.0183 -0.3162
23848SOL    HW172122   0.224   4.005   5.510 -0.7873  1.2858 -2.6196
23848SOL    HW272123   0.125   3.949   5.410 -3.2273 -0.6947  0.6785
23849SOL     OW72124   2.917   2.513   5.217  0.3720 -0.4156  0.5105
23849SOL    HW172125   3.010   2.516   5.240  0.2887 -1.3038  1.0569
23849SOL    HW272126   2.886   2.603   5.227  1.7367  0.5013 -2.3180
23850SOL     OW72127   3.089   9.863   0.088  0.4795 -0.6586 -0.5549
23850SOL    HW172128   3.025   9.929   0.062  1.1915  0.1368 -0.3168
23850SOL    HW272129   3.039   9.782   0.092 -0.0783 -0.4488 -2.4055
23851SOL     OW72130   7.376   1.248   6.551  0.1304  0.4749 -0.2573
23851SOL    HW172131   7.457   1.275   6.594  1.5578  1.5133 -3.2569
23851SOL    HW272132   7.335   1.188   6.612  1.8629  1.8782  2.4938
23852SOL     OW72133   8.536   0.596   6.436 -0.0143  0.7396 -0.2391
23852SOL    HW172134   8.575   0.515   6.467  0.7813  1.0344 -0.4284
23852SOL    HW272135   8.505   0.640   6.515 -4.0023 -1.4253 -0.3482
23853SOL     OW72136   8.209   4.581   3.527  0.2956  0.2924 -0.2366
23853SOL    HW172137   8.156   4.613   3.600 -0.2993 -0.4356 -0.3417
23853SOL    HW272138   8.291   4.630   3.535  0.5547 -0.3350  1.3880
23854SOL     OW72139   7.427   3.165   5.328  0.5696 -0.0964  0.1851
23854SOL    HW172140   7.370   3.091   5.306 -0.8105  1.1598 -0.5916
23854SOL    HW272141   7.393   3.196   5.412  0.5062  0.2730  0.0214
23855SOL     OW72142   9.206   8.500   5.282 -0.0612  0.2482 -0.0528
23855SOL    HW172143   9.143   8.564   5.248 -1.0727 -1.3091 -1.2085
23855SOL    HW272144   9.154   8.439   5.333  0.8316  0.0925  0.7028
23856SOL     OW72145   9.455   4.750   6.584 -0.4295  0.0881 -0.1419
23856SOL    HW172146   9.488   4.680   6.527 -0.4475  1.0158 -1.3297
23856SOL    HW272147   9.494   4.830   6.549  2.7205  0.3980  3.4705
23857SOL     OW72148   4.917   2.224   2.332  0.2655  0.1098 -0.0030
23857SOL    HW172149   5.000   2.264   2.358  1.4002 -0.4995 -2.4104
23857SOL    HW272150   4.875   2.289   2.277  0.1719 -0.4066 -0.5492
23858SOL     OW72151   4.788   7.550   5.505 -0.3606 -0.3132  0.1918
23858SOL    HW172152   4.818   7.641   5.509  1.0185 -0.7725  0.8587
23858SOL    HW272153   4.853   7.506   5.450 -0.4185 -1.1057  0.7400
23859SOL     OW72154   5.205   9.143   9.296  0.2281  0.1026  0.0398
23859SOL    HW172155   5.227   9.053   9.319  0.8282 -0.2973 -1.9032
23859SOL    HW272156   5.290   9.187   9.289 -0.0727  0.9768  1.4005
23860SOL     OW72157   8.089   3.899   8.163  0.1339  0.7126 -0.0759
23860SOL    HW172158   7.998   3.878   8.143  0.2638  0.7590 -0.7456
23860SOL    HW272159   8.107   3.979   8.114  0.1912  1.3660  0.9931
23861SOL     OW72160   0.972   9.837   1.022  0.1331  0.4246 -1.1353
23861SOL    HW172161   0.918   9.760   1.003 -0.2034 -0.4866  2.7781
23861SOL    HW272162   0.957   9.895   0.947 -2.1063 -1.9656 -2.7207
23862SOL     OW72163   7.434   0.872   7.679 -0.4654 -0.5494  0.4654
23862SOL    HW172164   7.471   0.814   7.745  1.9853  0.2493 -0.0914
23862SOL    HW272165   7.415   0.953   7.726  1.8563  0.2367  0.1880
23863SOL     OW72166   3.139   3.369   2.692 -0.6419  0.0269 -0.1685
23863SOL    HW172167   3.184   3.450   2.713  0.7757 -0.7383 -0.1188
23863SOL    HW272168   3.168   3.347   2.603  1.0737 -1.7121  0.7305
23864SOL     OW72169   4.242   4.082   7.505 -0.1449 -0.0542  0.4588
23864SOL    HW172170   4.251   4.116   7.415  0.4294  0.4767  0.7073
23864SOL    HW272171   4.254   3.988   7.495  0.5984  0.0683  0.0509
23865SOL     OW72172   6.952   8.148   5.529  0.3200  0.1822  0.3155
23865SOL    HW172173   6.966   8.065   5.575 -0.4325  0.6295  1.3813
23865SOL    HW272174   6.948   8.124   5.436  1.1150 -0.8328  0.5195
23866SOL     OW72175   8.290   5.696   9.679 -0.0556  0.1700  0.2054
23866SOL    HW172176   8.242   5.614   9.685  1.3911 -0.6184  2.1944
23866SOL    HW272177   8.261   5.735   9.596 -2.4410 -1.2448  0.2900
23867SOL     OW72178   5.556   5.816   0.390  0.0588 -0.4612  0.2611
23867SOL    HW172179   5.584   5.851   0.306 -0.8750 -0.4010 -0.0400
23867SOL    HW272180   5.497   5.883   0.425 -1.5344 -1.5710 -0.1924
23868SOL     OW72181   1.285   6.618   2.940 -0.1564 -0.3241 -0.2031
23868SOL    HW172182   1.283   6.698   2.888  1.2744  0.3522  0.7034
23868SOL    HW272183   1.271   6.547   2.877  1.3031  0.4816 -1.4976
23869SOL     OW72184   5.568   5.102   6.539 -0.1124 -0.1433  0.1280
23869SOL    HW172185   5.526   5.155   6.607  0.4891 -0.2963  0.6297
23869SOL    HW272186   5.662   5.117   6.552  0.0358 -0.7616 -0.1911
23870SOL     OW72187   1.071   2.863   3.989  0.2161  0.0674  0.1164
23870SOL    HW172188   1.077   2.769   3.978 -0.8561 -0.0508  0.4528
23870SOL    HW272189   1.013   2.892   3.919 -0.3853  0.3260  0.7197
23871SOL     OW72190   1.530   6.845   2.398 -0.0835  0.1626 -0.3654
23871SOL    HW172191   1.501   6.901   2.470 -0.3520  0.1144 -0.4330
23871SOL    HW272192   1.567   6.768   2.441  0.1692  0.3350 -0.2739
23872SOL     OW72193   3.024   2.736   0.754 -0.0374 -0.1623  0.0731
23872SOL    HW172194   3.062   2.763   0.671  0.7033 -1.1550  0.0723
23872SOL    HW272195   3.041   2.809   0.814  0.3059  0.1335 -0.3856
23873SOL     OW72196   2.644   3.989   1.841  0.3708  0.5265  0.0976
23873SOL    HW172197   2.639   3.894   1.844  2.5357  0.3675  0.7845
23873SOL    HW272198   2.639   4.016   1.933  1.7649  0.8738  0.1018
23874SOL     OW72199   1.962   9.864   5.847 -0.2167 -0.1208  0.5316
23874SOL    HW172200   1.965   9.800   5.918 -1.1398 -0.9472 -0.1564
23874SOL    HW272201   2.044   9.851   5.799  0.9024  1.1528  2.0216
23875SOL     OW72202   8.913   4.748   2.791 -1.0060 -0.4258 -0.2837
23875SOL    HW172203   8.888   4.840   2.791 -2.0184 -0.6885 -0.3343
23875SOL    HW272204   8.911   4.722   2.699 -0.2250 -0.3719 -0.3180
23876SOL     OW72205   6.146   9.396   9.454  0.1646  0.2287  0.7725
23876SOL    HW172206   6.137   9.455   9.528  1.8047 -2.0784  2.9977
23876SOL    HW272207   6.218   9.432   9.402 -0.4544  1.4267  0.7165
23877SOL     OW72208   6.325   9.224   2.796  0.5038 -0.2999  0.1957
23877SOL    HW172209   6.294   9.164   2.728  0.9802 -0.7874  0.3996
23877SOL    HW272210   6.246   9.254   2.840  0.3445 -3.0626  2.0103
23878SOL     OW72211   5.597   8.432   5.918  0.0718 -0.0165 -0.5257
23878SOL    HW172212   5.594   8.423   6.014  0.7603  0.1725 -0.4790
23878SOL    HW272213   5.575   8.345   5.886  1.9544 -0.6956 -0.1438
23879SOL     OW72214   1.097   2.523   9.409  0.2106  0.6264 -0.2369
23879SOL    HW172215   1.136   2.573   9.337 -0.8815  1.4026 -0.3215
23879SOL    HW272216   1.121   2.572   9.488 -2.5478  2.5758 -0.4530
23880SOL     OW72217   9.117   3.193   7.389  0.0838  0.1165  0.1707
23880SOL    HW172218   9.144   3.258   7.453 -1.4705 -0.0764  1.0424
23880SOL    HW272219   9.024   3.179   7.405  0.0267 -1.1515 -1.0466
23881SOL     OW72220   3.908   9.674   6.715  0.5686  0.1904 -0.0644
23881SOL    HW172221   3.914   9.752   6.770  1.6477  0.2566 -0.2649
23881SOL    HW272222   3.982   9.681   6.655 -1.0547  0.5868 -2.1544
23882SOL     OW72223   9.220   3.228   9.882  0.0786  0.2407 -0.4873
23882SOL    HW172224   9.284   3.299   9.879 -0.0162  0.3035 -0.9767
23882SOL    HW272225   9.234   3.188   9.968 -1.4278  2.3082  0.8002
23883SOL     OW72226   7.418   0.373   9.797 -0.4341  0.4491 -0.0301
23883SOL    HW172227   7.334   0.417   9.783  0.1066  1.3172 -0.7147
23883SOL    HW272228   7.439   0.389   9.888 -1.2375 -0.2035  0.2841
23884SOL     OW72229   7.433   1.140   1.346  0.3282  0.2125  0.5978
23884SOL    HW172230   7.366   1.086   1.303  0.6542  0.7282 -0.6106
23884SOL    HW272231   7.507   1.136   1.286  1.1453  0.2008  1.5960
23885SOL     OW72232   8.537   1.085   1.323 -0.3360  0.2129 -0.1699
23885SOL    HW172233   8.597   1.063   1.395 -1.2223  1.5837  1.0649
23885SOL    HW272234   8.592   1.123   1.255  0.3571  0.2567  0.4106
23886SOL     OW72235   9.686  -0.010   5.962 -0.3037 -0.3516  0.5253
23886SOL    HW172236   9.594  -0.015   5.937 -0.6912  0.2666  1.7549
23886SOL    HW272237   9.729   0.028   5.886 -1.2087  0.1839  0.2622
23887SOL     OW72238   4.254   1.046   6.453  0.2029 -0.5940 -1.0572
23887SOL    HW172239   4.261   1.140   6.466 -0.7730 -0.7245  0.6912
23887SOL    HW272240   4.166   1.033   6.418  0.4695 -0.8304 -1.6472
23888SOL     OW72241   5.329   7.422   0.357 -0.0087 -0.1912  0.1353
23888SOL    HW172242   5.352   7.384   0.442 -0.3728 -1.9268 -0.5029
23888SOL    HW272243   5.413   7.442   0.316  0.1689  0.5695  0.8574
23889SOL     OW72244   1.802   4.015   0.979  0.3678 -0.1615  0.2148
23889SOL    HW172245   1.818   3.957   0.905  2.6478 -0.5000  0.8962
23889SOL    HW272246   1.786   4.101   0.940  1.2458 -0.3969 -0.6976
23890SOL     OW72247   1.550   8.268   5.917 -0.1471  0.2375 -0.2054
23890SOL    HW172248   1.511   8.216   5.848  0.1932  0.2386 -0.4006
23890SOL    HW272249   1.619   8.212   5.953  0.1339  0.5037 -0.3298
23891SOL     OW72250   2.372   1.617   7.327 -0.0533  0.3766 -0.1078
23891SOL    HW172251   2.294   1.620   7.383 -0.6992 -0.7037 -0.9029
23891SOL    HW272252   2.343   1.569   7.249  0.9087  1.5479 -1.2332
23892SOL     OW72253   4.276   3.857   8.299  0.0394 -0.1600  0.4620
23892SOL    HW172254   4.208   3.817   8.352 -0.2504 -0.7021 -0.3008
23892SOL    HW272255   4.336   3.786   8.279  0.5828  0.2154  0.7417
23893SOL     OW72256   2.424   4.289   9.797 -0.3585 -0.3152 -0.4669
23893SOL    HW172257   2.438   4.305   9.703  0.2099 -0.6644 -0.4433
23893SOL    HW272258   2.510   4.266   9.831 -0.3274  0.9488  0.3765
23894SOL     OW72259   3.361   0.648   9.171 -0.0023  0.1021  0.2910
23894SOL    HW172260   3.378   0.713   9.103  0.3143 -0.7482 -0.4550
23894SOL    HW272261   3.352   0.565   9.124 -2.6666 -0.1007  0.9557
23895SOL     OW72262   6.487   9.047   8.417 -0.3291 -0.1204 -0.1070
23895SOL    HW172263   6.430   8.984   8.373 -1.9635  1.6225 -0.6385
23895SOL    HW272264   6.478   9.027   8.510  1.7803 -2.7032 -0.3133
23896SOL     OW72265   4.432   0.713   0.768 -0.2874 -0.6302 -0.5486
23896SOL    HW172266   4.433   0.733   0.675 -0.3682  0.5034 -0.3153
23896SOL    HW272267   4.463   0.622   0.773 -0.9128 -0.9268 -1.7186
23897SOL     OW72268   8.018   4.879   6.335 -0.1852 -0.1072  0.4259
23897SOL    HW172269   8.017   4.878   6.239 -0.1842 -0.9206  0.4280
23897SOL    HW272270   8.050   4.967   6.357 -0.9804  0.3849 -0.3046
23898SOL     OW72271   9.656   6.028   6.603  0.5672 -0.1626 -0.0747
23898SOL    HW172272   9.601   5.951   6.618 -0.8766  0.7376 -0.5317
23898SOL    HW272273   9.708   6.037   6.683  1.4533 -2.1330 -0.3871
23899SOL     OW72274   3.369   8.989   1.098 -0.2593  0.0478  0.6226
23899SOL    HW172275   3.390   8.906   1.140  0.0928  0.0309  0.4178
23899SOL    HW272276   3.326   9.041   1.166  0.4108  0.0690  1.0421
23900SOL     OW72277   2.343   5.802   4.596 -0.1629 -0.4247 -0.6856
23900SOL    HW172278   2.353   5.817   4.502 -0.4308  0.4361 -0.5778
23900SOL    HW272279   2.269   5.741   4.602 -0.2785 -0.3227 -1.0165
23901SOL     OW72280   9.402   6.229   0.083 -0.2331 -0.1481 -0.0661
23901SOL    HW172281   9.422   6.177   0.161  2.1409  0.1875 -0.3808
23901SOL    HW272282   9.355   6.168   0.026 -0.1344 -1.0405  0.7732
23902SOL     OW72283   3.024   3.543   2.282 -0.2818  0.1554  0.2267
23902SOL    HW172284   2.981   3.586   2.209 -0.6264 -0.0268  0.3185
23902SOL    HW272285   3.077   3.611   2.323  1.2520 -0.1296 -1.1907
23903SOL     OW72286   5.845   5.536   9.323  0.2376  0.4072 -0.0130
23903SOL    HW172287   5.935   5.505   9.335 -0.2690 -0.7985  0.9572
23903SOL    HW272288   5.853   5.610   9.263  1.9489  0.7723  0.5892
23904SOL     OW72289   9.567   5.749   2.402 -0.1173  0.9658  0.1770
23904SOL    HW172290   9.601   5.835   2.425  0.2814  1.0935 -0.8175
23904SOL    HW272291   9.644   5.698   2.377 -0.4941  0.8628 -0.8662
23905SOL     OW72292   8.307   2.072   9.054 -0.4486  0.6796  0.3740
23905SOL    HW172293   8.288   2.105   9.141 -1.7311  1.4068 -0.1544
23905SOL    HW272294   8.382   2.124   9.024 -0.5039  0.9688  0.7357
23906SOL     OW72295   5.609   5.020   8.451  0.0418 -0.1800  0.1213
23906SOL    HW172296   5.563   5.041   8.532  0.9178 -0.3150  0.6692
23906SOL    HW272297   5.684   5.080   8.449  1.7313 -2.1395  0.9625
23907SOL     OW72298   9.269   8.302   4.494  0.3649 -0.1120  0.6167
23907SOL    HW172299   9.353   8.264   4.519  1.1653  2.6530  2.6198
23907SOL    HW272300   9.263   8.383   4.545 -2.6947  0.7480 -0.8580
23908SOL     OW72301   4.578   7.820   8.932 -0.4556  0.2817  0.4960
23908SOL    HW172302   4.514   7.834   8.862 -0.0885  1.2223  0.3342
23908SOL    HW272303   4.658   7.862   8.900  0.2337 -0.7992  0.7378
23909SOL     OW72304   0.318   4.052   0.201  0.2176  0.4071  0.0152
23909SOL    HW172305   0.251   4.086   0.142 -0.9137 -1.3883  0.1753
23909SOL    HW272306   0.400   4.069   0.157 -0.4281  1.4679 -0.8216
23910SOL     OW72307   0.705   1.487   5.352  0.3167 -0.0023  0.4002
23910SOL    HW172308   0.659   1.404   5.335  1.8302 -0.5964 -1.1337
23910SOL    HW272309   0.639   1.554   5.333 -0.8938 -0.8241  1.5019
23911SOL     OW72310   2.086   1.226   3.704 -0.0876  0.2190  0.2163
23911SOL    HW172311   2.110   1.263   3.619  0.9868  0.1753  0.4823
23911SOL    HW272312   2.048   1.141   3.683  0.2820  0.1543 -0.2162
23912SOL     OW72313   0.880   6.993   9.038  0.3620 -0.0684  0.4584
23912SOL    HW172314   0.861   7.077   8.998  0.3248 -0.3226 -0.0596
23912SOL    HW272315   0.800   6.970   9.084  0.2789  0.0488  0.3716
23913SOL     OW72316   9.576   2.255   7.782  0.3530 -0.3769  0.2878
23913SOL    HW172317   9.526   2.225   7.706 -0.2093  0.3966  0.3426
23913SOL    HW272318   9.521   2.233   7.857  0.4342 -0.1939  0.4008
23914SOL     OW72319   6.950   5.042   7.225 -0.2952 -0.2970  0.2081
23914SOL    HW172320   6.975   5.090   7.146 -1.2370  0.7005  0.5028
23914SOL    HW272321   6.860   5.070   7.243 -1.8173 -3.8382 -0.9073
23915SOL     OW72322   3.938   0.315   7.625 -0.9671 -0.1868  0.0456
23915SOL    HW172323   3.868   0.352   7.571 -1.6485  0.1327  1.1291
23915SOL    HW272324   3.913   0.224   7.638 -2.2052  0.3903  2.0094
23916SOL     OW72325   9.187   2.706   3.030 -1.1383  0.6655  0.5093
23916SOL    HW172326   9.279   2.733   3.033 -1.4937  1.8827  0.9718
23916SOL    HW272327   9.188   2.624   2.981 -0.0347  1.6574 -1.2421
23917SOL     OW72328   7.430   7.371   4.121  0.0512  0.2849 -0.3658
23917SOL    HW172329   7.491   7.360   4.048 -0.8433  1.9517 -1.4188
23917SOL    HW272330   7.416   7.465   4.127  2.0026  0.5228  3.6095
23918SOL     OW72331   6.868   8.080   5.877  0.0753 -0.0457  0.2881
23918SOL    HW172332   6.951   8.037   5.854 -0.1550 -0.7301  0.7089
23918SOL    HW272333   6.867   8.081   5.973  0.0371  0.8356  0.2811
23919SOL     OW72334   9.469   8.279   8.579  0.1236  0.0703  0.1197
23919SOL    HW172335   9.494   8.214   8.513  1.5508  2.0767 -1.4501
23919SOL    HW272336   9.375   8.288   8.568 -0.0485 -1.3879  0.0870
23920SOL     OW72337   6.398   7.993   3.500 -0.1376  0.0309  0.2582
23920SOL    HW172338   6.322   7.953   3.542 -0.0907 -0.9949 -0.6094
23920SOL    HW272339   6.464   7.998   3.569 -0.7827  0.3821  0.8612
23921SOL     OW72340   9.251   9.802   8.075 -0.1635  0.3348  0.4240
23921SOL    HW172341   9.228   9.895   8.081  0.7885  0.5374  1.2490
23921SOL    HW272342   9.347   9.801   8.079 -0.1913 -0.7241  1.3119
23922SOL     OW72343   6.496   6.771   5.448  1.0451  0.2708 -0.1699
23922SOL    HW172344   6.457   6.812   5.371 -0.5875 -0.0698  0.4291
23922SOL    HW272345   6.577   6.820   5.463  1.0080  0.8248 -1.6493
23923SOL     OW72346   1.206   4.423   3.484  0.6101 -0.5988  0.2484
23923SOL    HW172347   1.239   4.462   3.403  0.1116 -1.8333 -0.5749
23923SOL    HW272348   1.285   4.393   3.530  0.8560 -0.4501 -0.0761
23924SOL     OW72349   7.622   4.747   1.803 -0.1610 -0.0724  0.0032
23924SOL    HW172350   7.559   4.729   1.733  0.7226 -0.3123 -0.7614
23924SOL    HW272351   7.637   4.841   1.798 -0.1955 -0.0701 -0.0557
23925SOL     OW72352   0.464   5.510   4.730 -0.3884  0.0461  0.3396
23925SOL    HW172353   0.539   5.466   4.771 -1.1981 -0.8163  0.9590
23925SOL    HW272354   0.408   5.535   4.804  0.0032  2.0934 -0.0127
23926SOL     OW72355   3.295   7.912   6.414 -0.4438 -0.1508 -0.6721
23926SOL    HW172356   3.270   8.000   6.385 -1.5207 -0.2580 -0.1241
23926SOL    HW272357   3.247   7.853   6.356  0.0038 -0.3822 -0.8129
23927SOL     OW72358   4.392   7.749   8.643  0.0258  0.3747  0.0739
23927SOL    HW172359   4.407   7.840   8.666  0.5212  0.2011  0.4453
23927SOL    HW272360   4.322   7.720   8.702 -0.7888  0.7636 -0.6652
23928SOL     OW72361   4.658   9.990   7.197  0.7252  0.3949 -0.0344
23928SOL    HW172362   4.685   9.910   7.152  2.2311  1.7681 -1.7103
23928SOL    HW272363   4.709   9.990   7.278  0.4850 -0.4937  0.1207
23929SOL     OW72364   0.497   0.424   0.090  0.2063  0.4467 -0.6966
23929SOL    HW172365   0.552   0.498   0.113  1.3525 -0.9287  1.3855
23929SOL    HW272366   0.547   0.375   0.024  0.9759 -0.1396  0.2872
23930SOL     OW72367   5.098   1.231   7.824  0.4712 -0.2665 -0.1257
23930SOL    HW172368   5.039   1.156   7.823  0.8578 -0.5650 -0.4552
23930SOL    HW272369   5.144   1.224   7.908  2.3436 -1.8359 -1.2244
23931SOL     OW72370   3.315   5.840   2.930 -0.0356 -0.2903  0.6604
23931SOL    HW172371   3.390   5.872   2.879 -1.5262  1.9361 -0.2951
23931SOL    HW272372   3.254   5.913   2.931 -1.0532 -1.0355  3.8304
23932SOL     OW72373   8.738   2.322   3.407  0.1689  0.0121  0.1113
23932SOL    HW172374   8.747   2.230   3.382  0.0552 -0.0776  0.3891
23932SOL    HW272375   8.741   2.321   3.503  1.2187  0.4206  0.0862
23933SOL     OW72376   0.998   3.777   5.530 -0.0074 -0.0633  0.4615
23933SOL    HW172377   0.947   3.825   5.596 -1.1055 -0.5594 -0.0054
23933SOL    HW272378   1.077   3.830   5.518 -2.0827  2.8899 -1.5782
23934SOL     OW72379   4.225   4.185   1.980  0.1730 -0.0803 -0.0519
23934SOL    HW172380   4.192   4.264   2.023  1.3294  1.5749 -2.0278
23934SOL    HW272381   4.291   4.151   2.040  0.4558  1.1213  0.3498
23935SOL     OW72382   6.631   3.405   5.042  0.1975 -0.1591 -0.5704
23935SOL    HW172383   6.616   3.468   4.972  0.5662 -0.7966 -1.2351
23935SOL    HW272384   6.640   3.459   5.121 -1.3441  0.4859 -0.8108
23936SOL     OW72385   6.818   9.895   3.194  0.5207  0.1612 -0.3989
23936SOL    HW172386   6.746   9.873   3.252  0.4523 -1.4190 -1.0286
23936SOL    HW272387   6.777   9.942   3.121  0.2710  0.1262 -0.2804
23937SOL     OW72388   8.557   5.310   6.989  0.1450  0.0887  0.3535
23937SOL    HW172389   8.560   5.380   7.054  0.3886  0.2016  0.2240
23937SOL    HW272390   8.634   5.326   6.933  0.1631 -0.2406  0.2811
23938SOL     OW72391   2.931   6.484   2.888  0.0340 -0.4647  0.5099
23938SOL    HW172392   2.837   6.496   2.877  0.0476 -0.8321 -0.0520
23938SOL    HW272393   2.948   6.512   2.978 -0.4193  0.6662  0.2606
23939SOL     OW72394   7.592   4.755   8.477  0.2313 -0.0761  0.3744
23939SOL    HW172395   7.508   4.716   8.453  0.3639 -0.7400  0.9360
23939SOL    HW272396   7.633   4.689   8.533  1.2727  0.1023 -0.1679
23940SOL     OW72397   4.154   7.126   0.453  0.1038 -0.2869  0.3383
23940SOL    HW172398   4.194   7.088   0.532 -0.9457 -2.1023  0.0586
23940SOL    HW272399   4.227   7.132   0.390  0.2672 -2.4306  0.2306
23941SOL     OW72400   0.193   5.968   6.619  0.3666 -0.4765 -0.0911
23941SOL    HW172401   0.225   6.045   6.574 -0.0306 -1.1403 -1.5787
23941SOL    HW272402   0.182   5.995   6.710  1.5837  0.7899 -0.3039
23942SOL     OW72403   2.407   5.455   7.775  0.0307  0.1705  0.6217
23942SOL    HW172404   2.333   5.514   7.761  0.0689  0.1670  0.4024
23942SOL    HW272405   2.371   5.367   7.759  0.9337  0.3358 -3.3958
23943SOL     OW72406   1.148   7.919   0.096 -0.0833 -0.5073  0.4726
23943SOL    HW172407   1.147   8.003   0.052  1.6723 -0.9222 -0.4603
23943SOL    HW272408   1.095   7.932   0.175  0.2130  1.4816  0.3855
23944SOL     OW72409   7.854   3.908   0.878  0.1120  0.1132  0.3761
23944SOL    HW172410   7.911   3.956   0.819  0.2766  0.6715  0.9721
23944SOL    HW272411   7.913   3.863   0.938 -0.0590 -0.2324  0.2911
23945SOL     OW72412   2.502   3.850   8.362 -0.7768  0.1138  0.4032
23945SOL    HW172413   2.569   3.913   8.388 -1.7175  1.1334  0.4413
23945SOL    HW272414   2.547   3.766   8.364  1.4656  1.0305 -2.7834
23946SOL     OW72415   5.945   6.960   5.094  0.0793 -0.2552 -0.0416
23946SOL    HW172416   5.879   6.912   5.142 -0.2155  0.6302  0.4600
23946SOL    HW272417   5.920   6.950   5.002  0.1639 -1.2461  0.0379
23947SOL     OW72418   2.203   1.330   2.509 -0.1397  0.7585 -0.1127
23947SOL    HW172419   2.156   1.335   2.425 -1.5235 -2.0029  0.3802
23947SOL    HW272420   2.182   1.413   2.552 -1.9229  0.9861 -1.2747
23948SOL     OW72421   9.320   3.487   6.971  0.1138  0.7098 -0.2173
23948SOL    HW172422   9.239   3.483   6.920  0.4863  1.9608 -0.9201
23948SOL    HW272423   9.290   3.499   7.062 -0.5874 -2.4287  0.1074
23949SOL     OW72424   3.067   1.450   3.807  0.0855  0.3508 -0.6170
23949SOL    HW172425   3.070   1.362   3.769 -0.3901 -0.0346  0.2200
23949SOL    HW272426   3.050   1.508   3.733 -0.6273 -0.3675 -1.0296
23950SOL     OW72427   0.799   2.104   3.933 -0.1084 -0.0731 -0.4166
23950SOL    HW172428   0.858   2.071   4.001  0.0071 -0.5840 -0.7620
23950SOL    HW272429   0.726   2.143   3.982  0.2743  0.1208  0.0068
23951SOL     OW72430   2.148   4.701   8.611  0.5975 -0.2083  0.4316
23951SOL    HW172431   2.086   4.726   8.543  1.5016  1.5087  0.1905
23951SOL    HW272432   2.109   4.624   8.652 -1.5980  0.7165  0.1965
23952SOL     OW72433   9.082   8.368   1.282  0.0972 -0.7561  0.2693
23952SOL    HW172434   9.122   8.354   1.368 -1.1707 -0.3397  0.9544
23952SOL    HW272435   8.989   8.381   1.301 -0.1165 -0.0842 -1.1225
23953SOL     OW72436   4.195   3.006   3.777 -0.2181  0.0560  0.3223
23953SOL    HW172437   4.204   3.054   3.860 -0.0598 -0.5864  0.6831
23953SOL    HW272438   4.103   2.981   3.773 -0.1445 -0.2533  0.5020
23954SOL     OW72439   7.409   2.065   1.091  0.1840 -0.1003 -0.3315
23954SOL    HW172440   7.392   1.982   1.048  0.5438 -0.1755 -0.3321
23954SOL    HW272441   7.330   2.117   1.077 -0.1112 -0.5070 -0.1726
23955SOL     OW72442   0.124   4.555   2.983  0.4595  0.3078  0.4009
23955SOL    HW172443   0.216   4.543   2.958  0.5816  0.2822  0.8358
23955SOL    HW272444   0.121   4.524   3.074  0.2912  1.4963  0.8135
23956SOL     OW72445   9.554   8.724   9.851 -0.1330 -0.2228  0.4350
23956SOL    HW172446   9.520   8.670   9.922  0.5820 -0.6329  0.4755
23956SOL    HW272447   9.584   8.661   9.785 -1.1455  0.1593 -0.4039
23957SOL     OW72448   0.432   7.682   1.181 -0.2607  0.1448  0.0538
23957SOL    HW172449   0.523   7.707   1.199 -0.6558  0.0977  2.4346
23957SOL    HW272450   0.380   7.729   1.246 -1.7442 -1.3206 -0.0005
23958SOL     OW72451   1.609   8.347   1.666 -0.7082 -0.1716 -0.5415
23958SOL    HW172452   1.609   8.372   1.573 -1.3969  1.5959 -0.0947
23958SOL    HW272453   1.675   8.277   1.671  1.6068  1.7572 -1.8322
23959SOL     OW72454   6.590   6.324   8.674 -0.5018  0.0742 -0.5186
23959SOL    HW172455   6.587   6.394   8.609 -0.9206 -0.0999 -0.6880
23959SOL    HW272456   6.606   6.370   8.757  0.1844  0.2806 -0.7549
23960SOL     OW72457   2.383   7.271   7.323  0.6490 -0.7211  0.1972
23960SOL    HW172458   2.442   7.197   7.338 -0.4907 -1.2434  2.4438
23960SOL    HW272459   2.380   7.317   7.407 -0.8533  0.2499 -0.3526
23961SOL     OW72460   4.461   2.159   6.471  0.2969 -0.1498  0.2092
23961SOL    HW172461   4.506   2.075   6.472 -0.6314 -0.7800 -2.5705
23961SOL    HW272462   4.393   2.150   6.404 -0.8280  2.3275  0.8914
23962SOL     OW72463   5.342   6.241   8.147  0.4579 -0.0259 -0.3574
23962SOL    HW172464   5.345   6.191   8.229 -1.3347  0.9721  0.3716
23962SOL    HW272465   5.334   6.175   8.078  1.4082 -0.8519  0.2903
23963SOL     OW72466   8.503   1.072   1.790  0.2587  0.0823  0.0129
23963SOL    HW172467   8.573   1.132   1.814  0.5909 -0.5860  0.7435
23963SOL    HW272468   8.428   1.129   1.771  1.2028  0.8589 -1.6105
23964SOL     OW72469   9.524   9.690   6.378  0.6881 -0.1043 -0.0463
23964SOL    HW172470   9.453   9.694   6.442 -0.5116  0.6507 -1.3658
23964SOL    HW272471   9.589   9.753   6.410  0.9522 -1.0335  1.3457
23965SOL     OW72472   4.483   4.248   4.580 -0.6363  0.6331  0.1461
23965SOL    HW172473   4.421   4.207   4.641 -2.8116  1.3072 -1.5231
23965SOL    HW272474   4.561   4.192   4.585 -1.1261  0.0322  2.6777
23966SOL     OW72475   2.309   9.314   7.184 -0.5347  0.1132  0.0099
23966SOL    HW172476   2.278   9.275   7.265  0.3579 -1.3644 -0.3200
23966SOL    HW272477   2.372   9.381   7.213  0.8157 -1.3288  0.5544
23967SOL     OW72478   9.468   8.096   5.736 -0.0052 -0.3653  0.1866
23967SOL    HW172479   9.545   8.053   5.701  0.6768  0.6220  0.4375
23967SOL    HW272480   9.421   8.129   5.658  0.9770  0.9305  0.1051
23968SOL     OW72481   5.981   5.115   1.232 -0.3131 -0.6437  0.1320
23968SOL    HW172482   6.043   5.042   1.223  0.2138 -0.4103  1.5593
23968SOL    HW272483   6.022   5.187   1.185  1.4106  0.0158  2.4787
23969SOL     OW72484   4.638   2.883   6.768  0.3644 -0.0714  0.1577
23969SOL    HW172485   4.711   2.914   6.714  0.4684  0.2912  0.5027
23969SOL    HW272486   4.671   2.886   6.858 -0.6326  1.7921  0.5074
23970SOL     OW72487   1.804   9.528   8.621  0.6454 -0.6149 -0.2843
23970SOL    HW172488   1.832   9.467   8.690 -1.3440 -3.2510 -1.6511
23970SOL    HW272489   1.755   9.596   8.668  1.9999 -0.5887  1.1846
23971SOL     OW72490   8.966   3.260   5.748 -0.4580  0.2299  0.2212
23971SOL    HW172491   9.026   3.221   5.684 -0.0195  0.5783  0.4114
23971SOL    HW272492   9.008   3.342   5.773 -0.6847  0.1602  0.8559
23972SOL     OW72493   3.486   6.407   9.016 -0.4171  0.1385  0.1031
23972SOL    HW172494   3.568   6.454   9.030  0.5350 -2.0598  2.6338
23972SOL    HW272495   3.509   6.314   9.024 -3.1636 -0.5542  1.3310
23973SOL     OW72496   9.870   5.290   2.900 -0.4395  0.2412 -0.4680
23973SOL    HW172497   9.878   5.234   2.824 -0.7764 -0.0728 -0.2749
23973SOL    HW272498   9.862   5.379   2.865  1.9120  0.4020 -0.7390
23974SOL     OW72499   9.444   6.388   1.349  0.3655 -0.3589 -0.0179
23974SOL    HW172500   9.393   6.307   1.360  2.0695 -1.5813 -0.6961
23974SOL    HW272501   9.398   6.435   1.279 -0.2364 -1.1088 -0.1471
23975SOL     OW72502   7.439   3.316   2.688 -0.1728 -0.1451  0.2724
23975SOL    HW172503   7.363   3.333   2.745  1.0888  0.8819  1.7484
23975SOL    HW272504   7.500   3.269   2.744  0.7573  0.0990 -0.5208
23976SOL     OW72505   2.468   7.732   5.330 -0.3556 -0.0104  0.3314
23976SOL    HW172506   2.411   7.655   5.338  0.8988 -0.8371  1.8520
23976SOL    HW272507   2.542   7.713   5.388  1.2191  1.2620 -1.1602
23977SOL     OW72508   3.314   6.045   4.405  0.1951  0.3005  0.4126
23977SOL    HW172509   3.305   6.021   4.498  1.6682 -0.6348  0.3367
23977SOL    HW272510   3.352   5.968   4.364  0.4927  1.0676 -0.7887
23978SOL     OW72511   3.125   5.149   1.612  0.1156 -0.4173  0.2795
23978SOL    HW172512   3.099   5.106   1.531 -1.9674  1.3573 -0.0843
23978SOL    HW272513   3.155   5.236   1.585  0.8216 -0.3159  1.3058
23979SOL     OW72514   8.892   3.286   6.930 -0.1321 -0.1419 -0.0091
23979SOL    HW172515   8.859   3.196   6.932 -0.2090 -0.1159 -0.1142
23979SOL    HW272516   8.874   3.319   7.018 -1.0643  0.1087 -0.2842
23980SOL     OW72517   9.242   8.360   7.832  0.1047 -0.0927 -0.2849
23980SOL    HW172518   9.160   8.391   7.794 -0.6051  0.0104  1.2888
23980SOL    HW272519   9.309   8.388   7.769 -1.1435 -1.5158 -2.3993
23981SOL     OW72520   4.017   5.833   7.221 -0.4791  0.3162 -0.3787
23981SOL    HW172521   4.030   5.746   7.185 -1.0621 -0.8098  1.9420
23981SOL    HW272522   3.927   5.856   7.198 -0.8081 -0.3430  0.1961
23982SOL     OW72523   5.587   2.565   1.696  0.0426 -0.3020 -0.2198
23982SOL    HW172524   5.534   2.514   1.757  0.5706  0.7451  1.1731
23982SOL    HW272525   5.528   2.634   1.665  0.0760 -0.2116 -0.0812
23983SOL     OW72526   1.861   9.141   5.548 -0.3072  0.6200 -0.3987
23983SOL    HW172527   1.837   9.169   5.636 -0.8117 -1.6054  0.2399
23983SOL    HW272528   1.957   9.131   5.551 -0.4112 -0.3708  0.2342
23984SOL     OW72529   3.658   5.632   2.828 -0.4808  0.4678 -0.2570
23984SOL    HW172530   3.650   5.697   2.898 -2.6133 -0.0403  0.0481
23984SOL    HW272531   3.687   5.683   2.751 -0.1196  1.3884  0.4645
23985SOL     OW72532   8.696   6.219   7.296  0.3853 -0.1756  0.1244
23985SOL    HW172533   8.640   6.282   7.250  0.6775 -0.1810 -0.2462
23985SOL    HW272534   8.654   6.134   7.280  0.1423 -0.1075  0.3954
23986SOL     OW72535   4.306   4.844   2.055  0.0416 -0.3399 -0.0200
23986SOL    HW172536   4.307   4.766   1.999  1.2288 -0.4791  0.1770
23986SOL    HW272537   4.393   4.882   2.045  0.0202  0.0449  1.1731
23987SOL     OW72538   8.745   4.460   1.256 -0.5346  0.0383  0.2432
23987SOL    HW172539   8.674   4.400   1.278 -0.5967 -0.1185 -0.3602
23987SOL    HW272540   8.706   4.547   1.260 -0.6079 -0.0079  0.5032
23988SOL     OW72541   9.324   4.296   5.048 -0.1689  0.5350  0.3854
23988SOL    HW172542   9.358   4.206   5.040  0.2289  0.8044 -1.2426
23988SOL    HW272543   9.307   4.306   5.142  2.1199 -0.4096  0.9928
23989SOL     OW72544   0.315   5.822   5.954  0.1574  0.7747  0.2654
23989SOL    HW172545   0.245   5.853   6.012 -0.0576  2.4357 -0.8113
23989SOL    HW272546   0.380   5.892   5.955  0.5909  0.4066 -0.7489
23990SOL     OW72547   3.748   3.182   4.202 -0.7717 -0.2591 -0.0329
23990SOL    HW172548   3.658   3.205   4.181 -0.2440  0.6878 -1.4386
23990SOL    HW272549   3.775   3.247   4.267 -0.8697 -0.0582 -0.1909
23991SOL     OW72550   4.940   7.691   1.131 -0.2870  0.2792 -0.2309
23991SOL    HW172551   4.884   7.623   1.168  1.9188 -0.7515  1.4393
23991SOL    HW272552   4.933   7.678   1.036 -1.3458 -1.0586 -0.0022
23992SOL     OW72553   4.335   4.360   9.589 -0.9768 -0.0997  0.1140
23992SOL    HW172554   4.296   4.282   9.548  1.5754 -1.0463 -0.6835
23992SOL    HW272555   4.401   4.389   9.526  0.1313  0.9589  1.7162
23993SOL     OW72556   6.031   0.286   0.628 -0.1376  0.2525 -0.1692
23993SOL    HW172557   5.948   0.331   0.614 -0.5688  0.3287  2.2095
23993SOL    HW272558   6.010   0.193   0.616 -0.2440  0.3627 -0.8664
23994SOL     OW72559   4.680   6.884   9.379  0.7248  0.0877 -0.4200
23994SOL    HW172560   4.711   6.934   9.304  0.4870 -1.2423 -1.4342
23994SOL    HW272561   4.604   6.835   9.346 -0.2377  0.5073  1.0497
23995SOL     OW72562   2.506   3.399   3.441  0.0285  0.6977 -0.8558
23995SOL    HW172563   2.431   3.418   3.385  0.6166  0.8042 -1.6132
23995SOL    HW272564   2.539   3.315   3.409 -1.0807 -0.4779  0.8946
23996SOL     OW72565   9.689   6.129   3.879  0.2602  0.6166 -0.8977
23996SOL    HW172566   9.602   6.102   3.909  0.0982  1.9610 -0.0684
23996SOL    HW272567   9.749   6.065   3.917 -0.2814  0.2969 -0.5814
23997SOL     OW72568   4.131   6.710   2.518  0.0635  0.2560 -0.0650
23997SOL    HW172569   4.122   6.699   2.612  0.6539 -0.3473 -0.0725
23997SOL    HW272570   4.108   6.801   2.502 -0.1575  0.3291  0.6439
23998SOL     OW72571   4.468   2.303   4.095  0.3093  0.0140  0.4476
23998SOL    HW172572   4.396   2.356   4.062  0.2749  0.1593  0.7472
23998SOL    HW272573   4.544   2.360   4.090 -0.0140  0.6985  2.2979
23999SOL     OW72574   8.406   5.827   2.421  0.0422  0.2714  0.0738
23999SOL    HW172575   8.314   5.807   2.442 -0.2826  1.6129  0.0679
23999SOL    HW272576   8.441   5.864   2.502  1.3191 -2.3849  0.8517
24000SOL     OW72577   0.283   7.207   8.969 -0.1307  0.0014  0.0850
24000SOL    HW172578   0.284   7.213   9.064  0.4462  0.4112  0.0567
24000SOL    HW272579   0.342   7.276   8.940  0.8330 -1.0503 -0.5289
24001SOL     OW72580   5.664   4.428   1.963  0.0113  0.4857 -0.0308
24001SOL    HW172581   5.709   4.467   2.038  2.4364 -1.1273 -0.5261
24001SOL    HW272582   5.689   4.483   1.888 -1.2079  1.2320  0.0871
24002SOL     OW72583   3.985   6.327   3.357  0.6419 -0.1590  0.1631
24002SOL    HW172584   3.927   6.390   3.400  1.4188 -0.3113  1.4807
24002SOL    HW272585   4.063   6.378   3.335  0.0032  0.0770 -1.7284
24003SOL     OW72586   9.705   3.699   1.876  0.1459 -0.2105 -0.1877
24003SOL    HW172587   9.754   3.716   1.796  0.4742  0.7450  0.2051
24003SOL    HW272588   9.762   3.643   1.928 -0.0979 -0.8944 -0.6451
24004SOL     OW72589   9.211   3.362   0.236 -0.0771  0.0811 -1.0562
24004SOL    HW172590   9.223   3.273   0.269 -2.6716 -0.0541 -0.2489
24004SOL    HW272591   9.280   3.373   0.171  1.6786 -1.7058  0.3711
24005SOL     OW72592   0.833   3.045   8.094  0.6699  0.3922  0.2426
24005SOL    HW172593   0.802   3.135   8.108  0.3760  0.3051  0.1687
24005SOL    HW272594   0.764   3.005   8.041  1.1173  0.3178 -0.2850
24006SOL     OW72595   6.885   5.520   4.793  1.1976 -0.2797  0.0292
24006SOL    HW172596   6.905   5.554   4.705  0.2855 -0.7201 -0.3597
24006SOL    HW272597   6.886   5.424   4.781 -1.3261 -0.3508 -0.0851
24007SOL     OW72598   4.326   8.974   9.374 -0.2587 -0.1959  0.1100
24007SOL    HW172599   4.231   8.984   9.367 -0.3056 -0.2200  0.6575
24007SOL    HW272600   4.338   8.911   9.445  0.2063  1.0597  1.1794
24008SOL     OW72601   0.683   4.090   5.241  0.2653  0.0723 -0.6324
24008SOL    HW172602   0.732   4.070   5.321 -0.5118 -0.3234 -0.2415
24008SOL    HW272603   0.625   4.162   5.266 -0.1048 -0.1686 -0.7751
24009SOL     OW72604   4.293   0.143   0.771  0.5525  0.2821 -0.1495
24009SOL    HW172605   4.380   0.125   0.735  0.4229 -0.1632 -0.2467
24009SOL    HW272606   4.305   0.140   0.866  0.2499 -1.8875 -0.1211
24010SOL     OW72607   3.996   3.150   5.365  0.1132  0.0544  0.3280
24010SOL    HW172608   4.010   3.240   5.335  1.6116 -0.3267 -0.2484
24010SOL    HW272609   3.941   3.111   5.297  3.1575 -0.6861 -1.9547
24011SOL     OW72610   0.682   9.326   5.168  0.0622 -0.2234  0.0319
24011SOL    HW172611   0.759   9.345   5.221 -0.7185  0.8911  0.8152
24011SOL    HW272612   0.637   9.410   5.160 -0.8736 -0.7722 -0.7388
24012SOL     OW72613   0.538   5.800   7.428  0.2319  0.3750  0.6637
24012SOL    HW172614   0.556   5.886   7.467  0.0834  0.5396  0.3699
24012SOL    HW272615   0.465   5.816   7.368  1.4822  0.4773 -0.9067
24013SOL     OW72616   7.694   5.309   4.294  0.2746  0.5561 -0.2758
24013SOL    HW172617   7.652   5.358   4.366 -0.9352  0.3024 -0.7774
24013SOL    HW272618   7.762   5.257   4.337 -0.0862  0.8014  0.6184
24014SOL     OW72619   6.776   5.661   0.160  0.0204  0.1135 -0.1815
24014SOL    HW172620   6.757   5.751   0.187  1.3310 -0.0892  1.6636
24014SOL    HW272621   6.776   5.611   0.242 -1.1176 -1.6838 -1.2098
24015SOL     OW72622   3.762   9.969   9.279 -0.1501 -0.1495 -0.4676
24015SOL    HW172623   3.785   9.903   9.214  1.0870  0.3171 -0.5195
24015SOL    HW272624   3.820  10.043   9.261  2.0309 -0.9007  2.6595
24016SOL     OW72625   1.813   2.544   0.285 -0.0761 -0.6803  0.4678
24016SOL    HW172626   1.797   2.601   0.361  0.2759  1.7125 -1.1400
24016SOL    HW272627   1.757   2.468   0.300 -0.8909  0.2455  2.5451
24017SOL     OW72628   3.041   8.833   2.904  0.3049  0.5592 -0.4262
24017SOL    HW172629   3.066   8.781   2.981 -0.6769  2.0387  0.9457
24017SOL    HW272630   2.962   8.791   2.871  2.0866 -1.6338 -2.2804
24018SOL     OW72631   5.653   6.440   8.076  0.2235  0.1193  0.1164
24018SOL    HW172632   5.740   6.440   8.037  0.0932 -1.9115 -0.2836
24018SOL    HW272633   5.645   6.355   8.119 -1.0580  0.8187  1.3542
24019SOL     OW72634   0.746   5.665   9.127  0.7972 -0.2027 -0.3035
24019SOL    HW172635   0.725   5.694   9.038 -0.6507 -0.7892 -0.1838
24019SOL    HW272636   0.697   5.584   9.138 -0.8897  0.9768  1.7658
24020SOL     OW72637   8.918   6.495   9.759 -0.7379 -0.8090  0.1209
24020SOL    HW172638   8.858   6.483   9.833 -0.8146  1.3456  0.4857
24020SOL    HW272639   8.861   6.524   9.688 -0.4518 -1.3054 -0.3131
24021SOL     OW72640   8.259   0.639   0.421 -0.0213 -0.3663  0.4674
24021SOL    HW172641   8.351   0.652   0.444  0.0860 -0.1095 -0.0964
24021SOL    HW272642   8.217   0.616   0.504  1.0671 -3.4731  0.2858
24022SOL     OW72643   5.416   2.267   6.296  0.0486  0.3313  0.3748
24022SOL    HW172644   5.356   2.199   6.328 -1.5119 -0.5109 -3.7417
24022SOL    HW272645   5.488   2.218   6.256  1.4671  1.3048  1.6206
24023SOL     OW72646   9.263   7.685   4.592  0.1151  0.3673  0.0443
24023SOL    HW172647   9.305   7.613   4.544  0.3191  0.8356 -0.4936
24023SOL    HW272648   9.265   7.657   4.683  2.2760  0.6871  0.1479
24024SOL     OW72649   4.348   9.114   1.793  0.2010  0.2104 -0.0003
24024SOL    HW172650   4.431   9.156   1.769 -0.1607  0.3314 -1.0903
24024SOL    HW272651   4.365   9.020   1.784  0.2354  0.2348 -0.2055
24025SOL     OW72652   1.243   7.170   3.931 -0.2809 -0.4078 -0.0524
24025SOL    HW172653   1.186   7.172   3.854 -1.1838  2.9486  0.5443
24025SOL    HW272654   1.324   7.212   3.901 -0.0595 -0.4982  0.4214
24026SOL     OW72655   1.709   0.536   4.845 -0.2292 -0.0545 -0.7553
24026SOL    HW172656   1.664   0.570   4.923 -0.3236  1.8137 -1.5706
24026SOL    HW272657   1.744   0.451   4.872 -0.5886  0.3813  1.2088
24027SOL     OW72658   5.207   0.502   6.458 -0.2181 -0.0065  0.3587
24027SOL    HW172659   5.209   0.410   6.483 -1.0301 -1.9756 -5.3563
24027SOL    HW272660   5.299   0.525   6.445 -0.0937 -1.6322 -2.3684
24028SOL     OW72661   0.137   2.977   9.478  0.2009  0.4132 -0.0999
24028SOL    HW172662   0.094   3.015   9.401 -2.1396  1.5268  1.6089
24028SOL    HW272663   0.065   2.944   9.532  1.3088  2.6754  3.1159
24029SOL     OW72664   5.103   6.355   9.560  0.6512  0.6574 -0.2916
24029SOL    HW172665   5.105   6.368   9.655  1.9324  1.4387 -0.4012
24029SOL    HW272666   5.053   6.430   9.527  0.2262  0.3984 -0.2356
24030SOL     OW72667   9.742   0.004   8.676 -0.1471 -0.3415 -0.3957
24030SOL    HW172668   9.653  -0.032   8.671  0.2058 -1.1666 -1.0362
24030SOL    HW272669   9.734   0.093   8.641 -0.8799 -0.0841  0.3951
24031SOL     OW72670   7.689   8.004   3.229  0.0333  0.4849  0.1888
24031SOL    HW172671   7.673   8.003   3.323 -0.0836 -1.5914  0.1928
24031SOL    HW272672   7.618   8.058   3.193 -0.7524  0.1506  1.1847
24032SOL     OW72673   1.933   0.529   7.328 -0.3005 -0.4396 -0.4568
24032SOL    HW172674   1.884   0.530   7.246 -0.4575 -0.1870 -0.3617
24032SOL    HW272675   1.873   0.567   7.393 -0.0293 -0.2495 -0.3136
24033SOL     OW72676   5.202   6.858   1.719  0.1467  0.0818 -0.9896
24033SOL    HW172677   5.297   6.865   1.733  0.1912  1.9646 -1.8423
24033SOL    HW272678   5.174   6.949   1.705 -1.4321 -0.6206 -2.8749
24034SOL     OW72679   6.184   4.665   5.603 -0.3228 -0.3893  0.4492
24034SOL    HW172680   6.167   4.574   5.626 -1.6124 -0.1959  0.3111
24034SOL    HW272681   6.171   4.668   5.508  1.3524 -0.3879  0.1731
24035SOL     OW72682   4.320   4.051   2.403 -0.1863 -0.2932  0.2001
24035SOL    HW172683   4.346   4.108   2.330 -1.3570  0.0924  0.0574
24035SOL    HW272684   4.274   3.979   2.362 -0.7302 -0.1479  0.5476
24036SOL     OW72685   2.676   4.209   0.556 -0.0633 -0.0647 -0.1398
24036SOL    HW172686   2.699   4.301   0.566  1.5162 -0.3859 -0.5793
24036SOL    HW272687   2.620   4.190   0.631 -0.8660  1.3735 -0.3367
24037SOL     OW72688   6.476   3.217   7.724  0.0857  0.3719  0.4531
24037SOL    HW172689   6.398   3.192   7.676  0.3360  0.4975 -0.0191
24037SOL    HW272690   6.448   3.219   7.816 -0.2928 -0.2381  0.3535
24038SOL     OW72691   9.715   4.086   5.697  0.0594  0.3074  0.0250
24038SOL    HW172692   9.748   4.167   5.735 -1.5343  0.5999  0.8945
24038SOL    HW272693   9.719   4.099   5.602 -0.5913  1.5938  0.1579
24039SOL     OW72694   7.439   6.349   8.077 -0.0740  0.0980  0.0287
24039SOL    HW172695   7.395   6.410   8.136 -2.2092 -1.5024  0.2030
24039SOL    HW272696   7.445   6.395   7.994 -2.6555  0.2318 -0.1487
24040SOL     OW72697   7.042   7.662   3.560  0.5129  0.5279  0.5357
24040SOL    HW172698   7.049   7.671   3.465 -0.3879 -1.4522  0.2177
24040SOL    HW272699   7.122   7.701   3.594  1.8126 -0.4744 -1.1919
24041SOL     OW72700   4.948   2.665   7.660 -0.1145 -0.5719 -0.7188
24041SOL    HW172701   4.894   2.700   7.730 -1.0411 -0.8468 -1.2831
24041SOL    HW272702   4.954   2.736   7.596  2.3427  0.4022  0.4530
24042SOL     OW72703   9.052   9.925   5.492  0.2279 -0.3702 -0.0713
24042SOL    HW172704   9.077   9.839   5.526  0.7124  0.1555  0.9361
24042SOL    HW272705   8.989   9.958   5.555  0.9993  0.5410  0.2525
24043SOL     OW72706   9.280   0.790   5.735 -0.2369 -0.0566  0.4866
24043SOL    HW172707   9.262   0.750   5.820  0.1046  0.9919  1.0812
24043SOL    HW272708   9.195   0.797   5.693 -0.4686 -0.1905  0.9234
24044SOL     OW72709   5.227   2.170   1.898 -0.4906  0.3406  0.5973
24044SOL    HW172710   5.293   2.124   1.847 -0.4186 -1.4399  2.1682
24044SOL    HW272711   5.174   2.216   1.833  1.2929  0.5165 -0.8082
24045SOL     OW72712   6.683   8.539   4.541 -0.4291 -0.3432 -0.9364
24045SOL    HW172713   6.591   8.536   4.569 -0.3038 -0.7614 -0.5450
24045SOL    HW272714   6.680   8.566   4.449 -0.9451 -0.4140 -0.9425
24046SOL     OW72715   9.559   3.534   6.117  0.7047 -0.4231 -0.1657
24046SOL    HW172716   9.532   3.443   6.124  1.1794 -0.5504  0.0705
24046SOL    HW272717   9.613   3.537   6.038 -0.0782 -0.1464 -0.7021
24047SOL     OW72718   3.189   8.528   5.524  0.2444 -0.1947 -0.6014
24047SOL    HW172719   3.097   8.556   5.520  0.6418  1.2539 -0.3994
24047SOL    HW272720   3.228   8.585   5.591  1.5417  0.0159 -1.5030
24048SOL     OW72721   0.786   3.023   2.235 -0.0405  0.3090  0.2101
24048SOL    HW172722   0.871   2.989   2.263  0.9249  0.5102 -2.2221
24048SOL    HW272723   0.724   2.955   2.261  0.7993  0.1770  2.0843
24049SOL     OW72724   8.256   2.706   8.776  0.4495  0.1659 -0.6790
24049SOL    HW172725   8.220   2.681   8.691 -1.0476  0.5275 -0.1903
24049SOL    HW272726   8.316   2.778   8.757 -0.0246  0.3803 -1.4103
24050SOL     OW72727   1.881   5.704   8.707 -0.3653  0.2494 -0.3487
24050SOL    HW172728   1.798   5.666   8.737  0.1113 -0.1839  0.4742
24050SOL    HW272729   1.948   5.653   8.752  0.3262  1.3410 -0.1046
24051SOL     OW72730   4.536   3.179   2.316 -0.2885 -0.0356  0.4738
24051SOL    HW172731   4.539   3.120   2.391  2.5140  3.1016  3.1280
24051SOL    HW272732   4.447   3.213   2.315 -0.9418 -1.6362  1.0188
24052SOL     OW72733   8.390   5.236   7.384  0.2162 -0.3330 -0.8130
24052SOL    HW172734   8.356   5.321   7.356 -0.1683 -0.6005 -1.1789
24052SOL    HW272735   8.334   5.210   7.457  0.4780 -0.1709 -0.5516
24053SOL     OW72736   2.103   9.255   0.351  0.2368 -0.3168 -0.0938
24053SOL    HW172737   2.137   9.217   0.432 -0.7630  0.7147  0.8515
24053SOL    HW272738   2.112   9.186   0.286 -0.5487 -1.8106  1.3113
24054SOL     OW72739   3.534   8.415   3.744 -0.0742 -0.5724 -0.3689
24054SOL    HW172740   3.583   8.352   3.797  0.5208 -0.0005 -0.2206
24054SOL    HW272741   3.593   8.439   3.673 -0.1175  0.1508 -0.1740
24055SOL     OW72742   0.686   8.077   6.650  0.1041 -0.0624 -0.0339
24055SOL    HW172743   0.667   8.104   6.560 -0.8567 -0.9246 -0.1072
24055SOL    HW272744   0.620   8.120   6.703  0.2745 -0.0641  0.1825
24056SOL     OW72745   2.758   3.016   9.332  0.1149  0.1641  0.1682
24056SOL    HW172746   2.792   2.937   9.289  1.0666  0.7392 -0.1781
24056SOL    HW272747   2.672   2.990   9.365  1.0760 -1.5173  1.5353
24057SOL     OW72748   1.420   5.946   5.801 -0.3218  0.0930 -0.1469
24057SOL    HW172749   1.329   5.953   5.772 -0.4750 -0.8145  0.0767
24057SOL    HW272750   1.445   6.035   5.824 -1.0573  0.3986 -0.5064
24058SOL     OW72751   0.979   4.508   1.081  1.0189 -0.1428 -0.3042
24058SOL    HW172752   1.013   4.438   1.137  0.9881  0.7770  0.9050
24058SOL    HW272753   0.927   4.462   1.014  2.7665 -1.4108 -0.8639
24059SOL     OW72754   9.463   9.230   8.248 -0.2944  0.5205 -0.2820
24059SOL    HW172755   9.488   9.181   8.325 -0.5811 -0.4398 -0.7862
24059SOL    HW272756   9.506   9.315   8.259 -0.6843  0.5569  1.1264
24060SOL     OW72757   8.795   2.115   2.646 -0.0073 -0.3652  0.1307
24060SOL    HW172758   8.742   2.194   2.653 -1.0538 -1.0593  0.2496
24060SOL    HW272759   8.877   2.137   2.689 -0.6206  0.3695  0.9664
24061SOL     OW72760   0.503   0.712   4.559  0.1384 -0.4786  0.6914
24061SOL    HW172761   0.535   0.647   4.622 -0.0268  0.7870  2.1512
24061SOL    HW272762   0.582   0.757   4.530  0.1984 -0.9589  0.0963
24062SOL     OW72763   2.788   3.268   1.596  0.6787  0.3226  0.3612
24062SOL    HW172764   2.711   3.319   1.619 -1.0366 -2.2071  0.6411
24062SOL    HW272765   2.768   3.231   1.510  1.6517 -0.2254  0.3534
24063SOL     OW72766   2.373   0.840   4.245 -0.1263  0.3315 -0.0415
24063SOL    HW172767   2.296   0.790   4.270 -0.6091  0.3756 -1.3203
24063SOL    HW272768   2.447   0.780   4.256 -0.6828 -0.6755 -1.4531
24064SOL     OW72769   8.830   5.390   1.251  0.4914  0.2401 -0.1557
24064SOL    HW172770   8.850   5.391   1.158  0.2920 -2.6994 -0.3328
24064SOL    HW272771   8.893   5.450   1.291 -0.0787  2.3503 -2.2317
24065SOL     OW72772   3.382   8.031   3.185  0.0532  0.0660 -0.4773
24065SOL    HW172773   3.307   8.044   3.243 -0.6608  0.9510 -1.5585
24065SOL    HW272774   3.387   8.112   3.134  1.1606 -0.3637 -1.0825
24066SOL     OW72775   1.962   8.795   1.497 -0.1789  0.5762 -0.7264
24066SOL    HW172776   1.866   8.791   1.501 -0.0849 -0.3222  1.3991
24066SOL    HW272777   1.986   8.865   1.557  0.6560 -2.7205  3.1547
24067SOL     OW72778   1.315   8.824   6.555 -0.6287  0.1148  0.1252
24067SOL    HW172779   1.268   8.802   6.475 -2.0205 -1.0489  1.1840
24067SOL    HW272780   1.332   8.918   6.549 -2.7179  0.4998 -0.5463
24068SOL     OW72781   6.838   2.747   8.156 -0.5320  0.3045 -0.0519
24068SOL    HW172782   6.906   2.699   8.203 -0.8795  0.2827  0.4303
24068SOL    HW272783   6.863   2.739   8.064 -1.2199 -1.8169 -0.0938
24069SOL     OW72784   5.958   9.749   2.700 -0.2001 -0.2479  0.0313
24069SOL    HW172785   6.002   9.665   2.689  0.1972  0.1934 -2.0900
24069SOL    HW272786   5.866   9.732   2.678 -0.3605 -0.3545  0.7508
24070SOL     OW72787   4.078   9.917   9.175  0.2246 -0.2268 -0.1358
24070SOL    HW172788   4.140   9.978   9.214 -0.7251  0.9595 -0.4487
24070SOL    HW272789   4.084   9.933   9.081  0.1285 -0.7867 -0.2411
24071SOL     OW72790   0.113   3.587   3.145  0.6525  0.1388  0.3997
24071SOL    HW172791   0.076   3.584   3.233  0.1688 -0.9056  0.1803
24071SOL    HW272792   0.148   3.498   3.131 -0.1032 -0.0001 -0.7966
24072SOL     OW72793   7.088   3.985   2.260 -0.2269 -0.4785 -0.0382
24072SOL    HW172794   7.164   4.034   2.230 -1.2276  0.4229 -1.1770
24072SOL    HW272795   7.048   4.041   2.327 -0.6289 -0.3254 -0.3993
24073SOL     OW72796   0.310   5.506   0.748  0.5938  0.2389 -0.0110
24073SOL    HW172797   0.256   5.577   0.715 -1.2129 -0.2865  1.6064
24073SOL    HW272798   0.335   5.456   0.670 -0.5663  0.9874 -0.8987
24074SOL     OW72799   4.557   5.868   2.678 -0.4734  0.1512  0.0332
24074SOL    HW172800   4.615   5.819   2.619 -1.3227  0.0197 -0.7025
24074SOL    HW272801   4.554   5.815   2.757 -2.0285 -1.4576 -1.0430
24075SOL     OW72802   5.779   6.902   6.065 -0.2954 -0.1793 -0.1213
24075SOL    HW172803   5.818   6.841   6.129 -1.4443 -0.8781 -0.0564
24075SOL    HW272804   5.708   6.944   6.113 -1.9526 -1.5826 -1.2340
24076SOL     OW72805   3.065   6.318   1.912 -0.0296  0.0662 -0.2901
24076SOL    HW172806   3.100   6.317   2.001 -0.6219  1.4516 -0.0191
24076SOL    HW272807   3.142   6.327   1.856  0.4507 -1.9023 -0.0214
24077SOL     OW72808   7.539   4.843   7.614 -0.7297  0.3468 -0.4801
24077SOL    HW172809   7.477   4.857   7.685 -0.7714  1.1821 -0.6674
24077SOL    HW272810   7.527   4.919   7.557  1.6387  1.4359  0.3409
24078SOL     OW72811   4.866   9.324   5.870 -0.5137  0.1765 -0.4554
24078SOL    HW172812   4.875   9.268   5.793 -2.3854  0.1416 -0.7024
24078SOL    HW272813   4.951   9.321   5.913  0.3824 -0.2947 -2.1886
24079SOL     OW72814   1.052   0.220   6.190  0.3560 -0.0674  0.1472
24079SOL    HW172815   1.021   0.199   6.102 -0.3652  2.8817 -0.4100
24079SOL    HW272816   1.139   0.257   6.176 -0.6516  2.6115  0.2630
24080SOL     OW72817   2.877   8.055   7.281 -0.0094  0.0247  0.3030
24080SOL    HW172818   2.887   7.976   7.335  0.3466  0.1645  0.4460
24080SOL    HW272819   2.883   8.024   7.191 -0.8995 -0.2544  0.3292
24081SOL     OW72820   7.814   5.578   9.115  0.1357  0.7696 -0.2191
24081SOL    HW172821   7.827   5.625   9.197 -0.7001 -1.7612  1.4793
24081SOL    HW272822   7.719   5.572   9.105  0.2264 -0.1273 -0.6487
24082SOL     OW72823   4.135   8.494   5.651 -0.1184 -0.7159  0.4401
24082SOL    HW172824   4.085   8.418   5.620 -0.0387 -1.6855  2.5388
24082SOL    HW272825   4.220   8.458   5.677  0.6731  0.4540 -0.4077
24083SOL     OW72826   1.109   4.515   8.411  0.6480 -0.1757 -0.1371
24083SOL    HW172827   1.084   4.456   8.340  0.1656  2.5402 -2.4209
24083SOL    HW272828   1.205   4.521   8.404  0.5179  1.0007 -1.4725
24084SOL     OW72829   5.282   7.843   6.197  0.1156  0.3666  0.1165
24084SOL    HW172830   5.209   7.905   6.198  1.2719  1.7979  1.9207
24084SOL    HW272831   5.249   7.768   6.148 -2.4294  1.1246  0.5354
24085SOL     OW72832   2.654   1.818   7.763 -0.3215  0.3723 -0.4653
24085SOL    HW172833   2.576   1.796   7.815  0.2908 -0.5025  0.1202
24085SOL    HW272834   2.712   1.742   7.773  0.5476  0.9374 -1.0170
24086SOL     OW72835   3.966   2.748   5.513  0.4556  0.2243  0.0724
24086SOL    HW172836   4.034   2.783   5.570 -0.5261  1.5167  0.5060
24086SOL    HW272837   3.990   2.780   5.426  0.8772 -0.0871  0.0684
24087SOL     OW72838   7.686   6.642   2.137  0.5863 -0.4400  0.2224
24087SOL    HW172839   7.761   6.587   2.114  0.7090  0.7552 -2.6912
24087SOL    HW272840   7.648   6.666   2.052 -0.5817  2.3938  1.4313
24088SOL     OW72841   7.382   0.438   5.422 -0.2843  0.1084 -0.0370
24088SOL    HW172842   7.349   0.350   5.407  1.0023 -0.2927 -0.6450
24088SOL    HW272843   7.468   0.425   5.460  0.0546  1.0968 -0.4331
24089SOL     OW72844   4.975   4.450   0.363  0.2726 -0.2601 -0.2636
24089SOL    HW172845   4.916   4.441   0.438  0.5153  0.4862  0.0335
24089SOL    HW272846   5.042   4.384   0.378 -0.4686 -1.0999 -0.5938
24090SOL     OW72847   1.120   1.378   2.479  0.2783 -0.2554  0.4055
24090SOL    HW172848   1.196   1.324   2.500 -0.2145 -0.1553  2.6824
24090SOL    HW272849   1.085   1.405   2.564 -1.2971  1.1251 -0.6123
24091SOL     OW72850   2.581   7.999   6.721 -0.5103 -0.5394  0.0923
24091SOL    HW172851   2.531   7.971   6.798  1.0918 -1.5834  0.8038
24091SOL    HW272852   2.641   8.066   6.754 -1.7660  1.1249 -0.8679
24092SOL     OW72853   7.964   9.121   7.971 -0.1999 -0.1819  0.1494
24092SOL    HW172854   7.953   9.121   8.066 -1.0154 -1.9549  0.0939
24092SOL    HW272855   7.889   9.170   7.938  1.1387  2.2585  0.4273
24093SOL     OW72856   4.451   7.204   9.863 -0.3486  0.0962 -0.1625
24093SOL    HW172857   4.378   7.247   9.906  0.8516 -0.1776  2.3914
24093SOL    HW272858   4.503   7.168   9.936  2.3893  0.4205 -1.8199
24094SOL     OW72859   8.354   0.671   2.809 -0.3091 -0.1948 -0.3833
24094SOL    HW172860   8.343   0.615   2.886  1.3586  1.1647  0.9180
24094SOL    HW272861   8.424   0.630   2.758 -0.7464 -0.5682 -0.6931
24095SOL     OW72862   3.235   9.246   8.327  0.2312 -0.0536  0.6828
24095SOL    HW172863   3.148   9.276   8.302  0.0524 -2.4719 -2.0332
24095SOL    HW272864   3.290   9.325   8.319 -1.3643  1.1295  0.8175
24096SOL     OW72865   9.228   1.118   5.737 -0.0623  0.4216 -0.2969
24096SOL    HW172866   9.211   1.035   5.781  0.4677  0.7378  0.5301
24096SOL    HW272867   9.164   1.179   5.775  0.0926  0.5871 -0.2985
24097SOL     OW72868   7.591   0.271   1.709  0.0694 -0.4279 -0.4895
24097SOL    HW172869   7.533   0.285   1.784  1.2949 -1.5119  0.7183
24097SOL    HW272870   7.533   0.236   1.641 -0.7566 -1.3070  0.6062
24098SOL     OW72871   9.071   6.106   4.818  0.1137  0.1916 -0.0504
24098SOL    HW172872   8.985   6.068   4.804  0.4822 -1.1811  1.0607
24098SOL    HW272873   9.132   6.034   4.800  0.9649  0.8476  0.1418
24099SOL     OW72874   0.381   7.749   0.054  0.0841  0.7095  0.4151
24099SOL    HW172875   0.295   7.735   0.014  1.0146 -0.4700 -1.3359
24099SOL    HW272876   0.416   7.661   0.067  0.8904  1.1586  1.4687
24100SOL     OW72877   4.177   8.382   7.142 -0.2257 -0.3692 -0.0524
24100SOL    HW172878   4.163   8.337   7.059  1.1710  1.4092 -1.3461
24100SOL    HW272879   4.098   8.365   7.193 -1.2807 -1.2087 -1.8850
24101SOL     OW72880   4.021   1.333   3.619  0.3323 -0.4019 -0.2278
24101SOL    HW172881   4.093   1.376   3.574  1.2677 -0.7462  0.9184
24101SOL    HW272882   3.946   1.392   3.606  0.5408 -0.4898 -2.2303
24102SOL     OW72883   2.442   9.648   7.856 -0.0346  0.0108  0.2050
24102SOL    HW172884   2.463   9.554   7.855  0.9584  0.2147  0.8514
24102SOL    HW272885   2.395   9.660   7.939  2.4587  0.5938  1.6241
24103SOL     OW72886   9.964   9.515   9.544  0.7456  0.8839  0.5453
24103SOL    HW172887   9.891   9.571   9.517  0.0724  0.5003  1.4731
24103SOL    HW272888   9.928   9.426   9.543  0.8515  0.7889  2.0301
24104SOL     OW72889   9.423   5.304   2.156 -0.5011  0.2161  0.2610
24104SOL    HW172890   9.365   5.372   2.121  1.3157  1.6166 -0.2014
24104SOL    HW272891   9.364   5.241   2.198 -2.6401 -0.3006 -3.1408
24105SOL     OW72892   1.963   5.523   6.705 -0.5816  0.0222  0.3355
24105SOL    HW172893   2.004   5.546   6.622  0.3853 -0.1060  0.7585
24105SOL    HW272894   1.941   5.430   6.697  1.1064 -0.4543  0.8307
24106SOL     OW72895   0.970   8.102   8.926  0.2233 -0.2868  0.3522
24106SOL    HW172896   0.920   8.119   8.847  1.5088 -1.4276 -0.7504
24106SOL    HW272897   0.949   8.011   8.949  1.8530 -0.8237 -0.2037
24107SOL     OW72898   7.500   8.578   2.552 -0.0086  0.6041  0.4853
24107SOL    HW172899   7.418   8.621   2.528  0.1624  0.7022  0.0789
24107SOL    HW272900   7.505   8.502   2.494  0.1529  0.5552  0.5634
24108SOL     OW72901   8.614   6.212   9.201 -0.3895 -0.3360 -0.0561
24108SOL    HW172902   8.651   6.297   9.179  0.3293 -0.3807  0.8983
24108SOL    HW272903   8.624   6.160   9.121  0.1197  0.1569 -0.3192
24109SOL     OW72904   5.588   9.022   0.896 -0.2989  0.4068  0.3601
24109SOL    HW172905   5.547   8.956   0.841 -1.2853 -0.2491  1.8119
24109SOL    HW272906   5.524   9.093   0.901 -0.1781  0.5022  0.5825
24110SOL     OW72907   1.942   1.723   1.616  0.3694 -0.1426 -0.5978
24110SOL    HW172908   2.029   1.695   1.646  0.1594  1.6891  2.1575
24110SOL    HW272909   1.952   1.818   1.602 -1.0640  0.0086 -0.7270
24111SOL     OW72910   0.588   5.881   0.688 -0.1236 -0.4334  0.6188
24111SOL    HW172911   0.571   5.973   0.669 -1.0749 -1.0733 -2.2109
24111SOL    HW272912   0.513   5.852   0.739  0.0597  0.2672  1.3065
24112SOL     OW72913   7.921   4.829   4.683 -0.7719  0.0877  0.3714
24112SOL    HW172914   7.987   4.898   4.684  0.3784 -0.9200 -1.0887
24112SOL    HW272915   7.926   4.789   4.770  1.6691 -0.9188 -0.1417
24113SOL     OW72916   4.065   4.128   8.826  0.3177 -0.3718  0.1883
24113SOL    HW172917   4.118   4.068   8.774 -0.3032 -0.8958  0.1494
24113SOL    HW272918   4.077   4.213   8.784  1.0058 -0.5091  0.0957
24114SOL     OW72919   0.263   7.455   1.794 -0.0068 -0.3594 -0.0366
24114SOL    HW172920   0.282   7.548   1.808  0.8711 -0.5695  0.2041
24114SOL    HW272921   0.309   7.433   1.713  1.5104 -1.0651  0.9701
24115SOL     OW72922   9.799   2.497   2.320  0.0818  0.2304 -0.3992
24115SOL    HW172923   9.826   2.458   2.404 -2.2620 -0.4958  0.1005
24115SOL    HW272924   9.881   2.524   2.279  1.3610  0.1441  1.8934
24116SOL     OW72925   2.052   1.136   3.171 -0.1097 -0.0974  0.4352
24116SOL    HW172926   1.972   1.094   3.202 -0.2599 -1.0559 -1.1385
24116SOL    HW272927   2.091   1.072   3.111  1.0980  0.9270  0.0788
24117SOL     OW72928   6.760   1.630   2.490 -0.3306 -0.0561 -0.9667
24117SOL    HW172929   6.770   1.704   2.550 -1.3924  0.1196 -0.9917
24117SOL    HW272930   6.668   1.604   2.498  0.3420 -2.3399  0.1585
24118SOL     OW72931   5.196   6.965   9.633 -0.2090 -0.2232 -0.0787
24118SOL    HW172932   5.157   7.025   9.697 -1.5831 -1.3378  0.1922
24118SOL    HW272933   5.160   6.879   9.656 -0.5616 -0.7096 -2.1813
24119SOL     OW72934   6.467   3.996   6.894 -0.1634 -0.5465  0.3126
24119SOL    HW172935   6.530   4.068   6.894  0.6736 -1.2335 -1.1266
24119SOL    HW272936   6.433   3.993   6.984 -0.2963  1.6817  0.3810
24120SOL     OW72937   9.512   9.809   6.640  0.1743 -0.4964  0.1110
24120SOL    HW172938   9.444   9.862   6.600  0.4775  0.0765  0.3451
24120SOL    HW272939   9.548   9.864   6.710  0.1017 -1.2269  0.7346
24121SOL     OW72940   2.631   7.765   4.928 -0.5792  0.6803  0.1095
24121SOL    HW172941   2.723   7.762   4.902 -1.0153  0.2191 -1.4821
24121SOL    HW272942   2.584   7.781   4.847 -2.1761 -2.7177  0.2119
24122SOL     OW72943   1.248   4.960   4.340  0.4579 -0.3579  1.0301
24122SOL    HW172944   1.308   5.031   4.314  1.5835 -0.5798  2.8691
24122SOL    HW272945   1.302   4.881   4.339 -0.1337 -0.7766  1.4796
24123SOL     OW72946   9.940   4.385   3.685 -0.3665  0.2382 -0.0695
24123SOL    HW172947   9.860   4.340   3.659 -0.8834  1.1212 -0.0411
24123SOL    HW272948   9.962   4.347   3.771 -0.6327 -0.1488 -0.1696
24124SOL     OW72949   9.539   0.873   7.733  0.0801  0.2139  0.4155
24124SOL    HW172950   9.562   0.848   7.643  0.6276 -0.3801  0.7113
24124SOL    HW272951   9.524   0.790   7.778 -0.0455  0.5006  0.9152
24125SOL     OW72952   4.704   2.573   3.263 -0.3308 -0.0738  0.2255
24125SOL    HW172953   4.770   2.537   3.322 -0.2330  0.3014  0.3489
24125SOL    HW272954   4.653   2.497   3.234  0.5041 -0.4475 -0.3156
24126SOL     OW72955   8.480   3.002   0.574 -0.3961 -0.1337 -0.5023
24126SOL    HW172956   8.422   3.043   0.509  1.3357 -0.5003 -2.3883
24126SOL    HW272957   8.483   2.910   0.549  0.4319 -0.2479 -0.0273
24127SOL     OW72958   8.885   1.783   1.680  0.3495 -0.7492  0.1904
24127SOL    HW172959   8.934   1.739   1.750  1.4017 -0.5350 -0.3885
24127SOL    HW272960   8.953   1.819   1.623 -0.4756  0.9456  0.2163
24128SOL     OW72961   9.222   6.755   8.707  0.4826  0.1224 -0.0374
24128SOL    HW172962   9.312   6.723   8.706  1.0834  1.6657 -1.6466
24128SOL    HW272963   9.226   6.839   8.662 -1.5588  0.8901  1.0788
24129SOL     OW72964   0.491   0.635   7.830 -0.1485  0.4664  0.2937
24129SOL    HW172965   0.470   0.697   7.760 -0.0092  0.7430  0.4981
24129SOL    HW272966   0.451   0.553   7.801 -0.9819  0.8348  0.3842
24130SOL     OW72967   5.808   7.424   7.644 -0.4692 -0.4457 -0.1396
24130SOL    HW172968   5.743   7.364   7.608 -2.2399  1.3366 -0.0766
24130SOL    HW272969   5.831   7.481   7.571 -0.8223  0.4446  0.4225
24131SOL     OW72970   4.903   1.304   8.311  0.1862 -0.0262  0.3756
24131SOL    HW172971   4.985   1.257   8.292 -1.9933 -4.1203 -0.1156
24131SOL    HW272972   4.886   1.355   8.232  1.2028 -0.8054 -0.3809
24132SOL     OW72973   6.679   9.254   6.921 -0.3255 -0.2654 -0.0752
24132SOL    HW172974   6.594   9.256   6.877 -0.1006 -0.7086 -0.5349
24132SOL    HW272975   6.661   9.287   7.009 -0.9163 -0.0657 -0.2672
24133SOL     OW72976   7.348   6.721   5.786  0.1651 -0.5075 -0.5488
24133SOL    HW172977   7.393   6.776   5.849 -2.3858 -0.7417  1.6577
24133SOL    HW272978   7.349   6.771   5.704  0.1587  1.6672  0.7064
24134SOL     OW72979   0.684   8.581   6.152 -0.5289  0.0298 -0.0505
24134SOL    HW172980   0.646   8.524   6.085  1.5098 -0.6236 -0.7337
24134SOL    HW272981   0.770   8.543   6.169  0.1080  1.7948  0.9221
24135SOL     OW72982   7.160   0.083   3.662  0.1338 -0.1588 -0.0478
24135SOL    HW172983   7.094   0.015   3.652  0.7647 -0.7076 -0.6070
24135SOL    HW272984   7.169   0.094   3.757 -1.6904  0.8760  0.0371
24136SOL     OW72985   2.275   2.534   6.753 -0.1083  0.0338 -0.0917
24136SOL    HW172986   2.331   2.457   6.743  0.6761  0.4283  1.1149
24136SOL    HW272987   2.229   2.520   6.835  0.8386  1.3158  0.7022
24137SOL     OW72988   3.464   0.084   5.898  0.4761  0.0137 -0.1546
24137SOL    HW172989   3.523   0.129   5.959  0.2240  0.4505 -0.2321
24137SOL    HW272990   3.439   0.151   5.834 -0.0323 -0.1921 -0.1757
24138SOL     OW72991   9.360   8.696   7.684 -0.0696  0.3540 -0.6191
24138SOL    HW172992   9.427   8.750   7.644  2.1041 -0.1111  2.1126
24138SOL    HW272993   9.392   8.606   7.672 -2.3449 -0.2970 -2.8212
24139SOL     OW72994   8.281   7.570   9.668  0.5588  0.3144 -1.0875
24139SOL    HW172995   8.202   7.624   9.671 -1.2726 -2.1521 -1.6452
24139SOL    HW272996   8.262   7.497   9.727  3.9978  1.4282  1.7966
24140SOL     OW72997   5.615   3.573   2.127 -0.4641  0.5210 -0.1787
24140SOL    HW172998   5.583   3.579   2.218  0.2077  0.3792  0.0731
24140SOL    HW272999   5.680   3.643   2.120  1.1017 -0.8166  0.1381
24141SOL     OW73000   7.895   7.123   2.838 -0.3286  0.8821 -0.2715
24141SOL    HW173001   7.931   7.034   2.829 -1.8792  0.2855 -0.7885
24141SOL    HW273002   7.826   7.114   2.904  0.2374  1.9667  0.5112
24142SOL     OW73003   0.687   7.582   5.504  0.2559  0.7207 -0.3852
24142SOL    HW173004   0.734   7.553   5.426  1.1493  1.2646 -0.0672
24142SOL    HW273005   0.750   7.572   5.575  0.4626  2.9590 -0.1773
24143SOL     OW73006   2.782   6.899   9.239 -0.4559 -0.0649  0.2938
24143SOL    HW173007   2.796   6.805   9.231 -1.7104 -0.3189  0.9599
24143SOL    HW273008   2.783   6.931   9.148  1.1726 -0.5123  0.1186
24144SOL     OW73009   3.135   2.470   1.876  0.3564 -0.2839  0.6075
24144SOL    HW173010   3.213   2.414   1.874  0.2458 -0.4264 -0.3618
24144SOL    HW273011   3.076   2.431   1.811  0.1854  0.8168  0.0853
24145SOL     OW73012   6.239   5.978   3.533 -0.3605  0.1551  0.0456
24145SOL    HW173013   6.325   6.006   3.563  0.7843 -1.7743 -1.2656
24145SOL    HW273014   6.198   5.940   3.611  0.2962  0.3212  0.4795
24146SOL     OW73015   6.664   4.195   6.809  0.1129 -0.1554  0.0382
24146SOL    HW173016   6.706   4.280   6.796  0.5620 -0.4462 -0.4658
24146SOL    HW273017   6.650   4.162   6.720 -1.7165  0.1900  0.1759
24147SOL     OW73018   3.528   4.689   9.107 -0.2579 -0.0299 -0.3176
24147SOL    HW173019   3.488   4.748   9.043 -0.4557  0.8786  0.6242
24147SOL    HW273020   3.461   4.622   9.124 -0.6047  0.3354 -0.2489
24148SOL     OW73021   4.520   3.907   5.261 -0.9065 -0.2360  0.1517
24148SOL    HW173022   4.490   3.823   5.295 -1.8278  0.6651  1.7269
24148SOL    HW273023   4.583   3.938   5.326 -1.5994  0.8665  0.3410
24149SOL     OW73024   7.574   8.883   2.368  0.2204 -0.1012  0.1305
24149SOL    HW173025   7.518   8.951   2.330  1.5573  0.7742 -0.3737
24149SOL    HW273026   7.518   8.839   2.431 -1.1596  0.4452 -0.6441
24150SOL     OW73027   8.932   6.477   8.448  0.1079 -0.2828 -0.2687
24150SOL    HW173028   8.932   6.573   8.453 -1.2849 -0.2819  0.1079
24150SOL    HW273029   8.989   6.449   8.519  1.1416  0.2677 -0.8566
24151SOL     OW73030   5.572   6.120   0.400 -0.0829  0.4199 -0.6162
24151SOL    HW173031   5.625   6.089   0.327 -1.2167 -0.8685 -0.9407
24151SOL    HW273032   5.487   6.141   0.360 -1.0547 -1.2925  0.4444
24152SOL     OW73033   9.243   4.945   5.518 -0.4917  0.2548  0.2928
24152SOL    HW173034   9.149   4.945   5.501 -0.2994  0.2599 -0.8910
24152SOL    HW273035   9.279   5.008   5.455  0.5653 -1.5436 -1.0114
24153SOL     OW73036   9.258   3.203   0.563 -0.5248  0.4292 -0.2940
24153SOL    HW173037   9.199   3.263   0.608  0.9186  1.1979  0.6403
24153SOL    HW273038   9.267   3.129   0.623 -0.6559  0.2399 -0.5063
24154SOL     OW73039   6.613   7.745   3.575  0.4145 -0.3152 -0.4842
24154SOL    HW173040   6.546   7.781   3.518 -0.2996 -0.4617  0.2386
24154SOL    HW273041   6.575   7.663   3.607  0.0604  0.5655  1.5185
24155SOL     OW73042   4.925   2.903   8.477  0.5505 -0.2829  0.3411
24155SOL    HW173043   4.948   2.901   8.570 -1.7082 -0.8536  0.9630
24155SOL    HW273044   5.008   2.891   8.431  1.9007  1.2084  2.2334
24156SOL     OW73045   4.939   9.717   0.376  0.2652 -0.0817 -0.7934
24156SOL    HW173046   4.845   9.711   0.392  0.4449 -1.0677  0.0156
24156SOL    HW273047   4.946   9.766   0.294 -0.9142  0.6585 -0.4892
24157SOL     OW73048   4.364   6.623   9.920  0.0260  0.0812  0.4144
24157SOL    HW173049   4.407   6.704   9.946 -0.0019  0.0269  0.6358
24157SOL    HW273050   4.272   6.637   9.943 -0.0554  0.1539  0.0502
24158SOL     OW73051   9.812   8.856   0.024  0.7839 -0.0000 -0.6605
24158SOL    HW173052   9.880   8.816   0.078  1.5480 -0.9002 -2.2504
24158SOL    HW273053   9.731   8.811   0.050  1.5248 -2.1803 -1.9451
24159SOL     OW73054   5.710   3.616   3.234 -0.9079 -0.3878  0.1637
24159SOL    HW173055   5.625   3.605   3.190 -2.0036  0.3228  1.9896
24159SOL    HW273056   5.687   3.643   3.323  1.2719  2.5584 -0.0220
24160SOL     OW73057   1.481   2.005   8.445  0.4285  0.1277 -0.1845
24160SOL    HW173058   1.530   2.060   8.505  0.9377  0.4667 -0.9034
24160SOL    HW273059   1.389   2.029   8.459  0.4255 -0.5848  1.2410
24161SOL     OW73060   6.805   3.592   9.352  0.4254  0.1101 -0.0025
24161SOL    HW173061   6.746   3.632   9.417 -1.1361  0.9094 -1.8105
24161SOL    HW273062   6.770   3.504   9.339  0.2552  0.2252 -0.3273
24162SOL     OW73063   9.670   5.218   7.236 -0.4779  0.3357 -0.4152
24162SOL    HW173064   9.736   5.169   7.284  0.6214  0.7946 -1.4063
24162SOL    HW273065   9.622   5.266   7.304  0.1993 -0.0215  0.3317
24163SOL     OW73066   9.389   6.294   5.521 -0.8532  0.0759  0.0153
24163SOL    HW173067   9.395   6.271   5.428  1.1073  1.5361 -0.2761
24163SOL    HW273068   9.334   6.373   5.522 -1.2881 -0.2215  0.1791
24164SOL     OW73069   2.757   2.793   3.276 -0.5450  0.0925 -0.5740
24164SOL    HW173070   2.683   2.853   3.281 -1.3760 -0.7689 -1.8762
24164SOL    HW273071   2.788   2.785   3.366 -1.3858  1.2534 -0.1612
24165SOL     OW73072   0.840   9.635   1.304  0.0462  0.1684 -0.2626
24165SOL    HW173073   0.773   9.674   1.360  1.3690  2.7591 -0.3314
24165SOL    HW273074   0.802   9.636   1.216 -0.7245 -0.7412  0.0327
24166SOL     OW73075   2.602   9.822   5.043  0.2998  0.2095  0.1685
24166SOL    HW173076   2.552   9.784   4.971 -0.7948  0.6154  0.7083
24166SOL    HW273077   2.689   9.839   5.005 -0.6808  1.8215 -1.5063
24167SOL     OW73078   4.280   7.374   0.613  0.2082  0.1180  0.6853
24167SOL    HW173079   4.361   7.336   0.647  0.1775 -0.8499 -0.2570
24167SOL    HW273080   4.232   7.299   0.577  0.8541  1.1907 -2.7159
24168SOL     OW73081   3.266   6.016   1.407 -0.2977 -0.6419 -0.2725
24168SOL    HW173082   3.208   5.945   1.378  0.2245 -1.5597  0.8344
24168SOL    HW273083   3.217   6.060   1.477 -0.1189 -0.7261 -0.0910
24169SOL     OW73084   6.069   9.308   9.951 -0.3497 -0.0726 -0.0148
24169SOL    HW173085   6.103   9.341  10.034 -1.9013  0.4320  0.4593
24169SOL    HW273086   6.094   9.374   9.886 -0.8782  0.5787  0.4257
24170SOL     OW73087   8.201   0.746   3.063 -0.3278 -0.3439 -0.0858
24170SOL    HW173088   8.257   0.669   3.052 -0.2317 -0.1753 -0.8000
24170SOL    HW273089   8.242   0.814   3.009 -1.1546 -0.1845 -0.5315
24171SOL     OW73090   0.785   4.288   9.901 -0.2310 -0.2152 -0.0515
24171SOL    HW173091   0.821   4.231   9.969 -0.4650 -0.7641 -0.3815
24171SOL    HW273092   0.805   4.245   9.819  2.5808  1.8327 -0.5817
24172SOL     OW73093   6.316   2.160   1.478  0.1186  0.0580 -0.6665
24172SOL    HW173094   6.362   2.186   1.558 -0.3634 -0.6375 -0.1480
24172SOL    HW273095   6.376   2.182   1.408  0.3390  1.1684 -0.1550
24173SOL     OW73096   7.692   0.732   0.034 -0.2526  0.3340  0.6812
24173SOL    HW173097   7.643   0.681   0.099  1.1019 -0.8226  0.8552
24173SOL    HW273098   7.718   0.811   0.081  1.3644 -0.8224  1.8856
24174SOL     OW73099   8.948   7.928   9.301 -0.4077  0.4811 -0.5269
24174SOL    HW173100   8.883   7.984   9.258  2.8590  3.8832 -1.5268
24174SOL    HW273101   9.006   7.901   9.230  1.1587  0.3800  0.7411
24175SOL     OW73102   1.564   2.304   1.808 -0.1847 -0.4790  0.2861
24175SOL    HW173103   1.638   2.283   1.865  0.8495 -1.0187 -1.1878
24175SOL    HW273104   1.492   2.321   1.868  0.7795 -1.2689  1.7387
24176SOL     OW73105   8.096   3.401   2.824 -0.2640  0.2409 -0.2822
24176SOL    HW173106   8.161   3.333   2.805  2.5140  2.6367 -0.1839
24176SOL    HW273107   8.138   3.456   2.891 -2.3064  2.0794 -0.3905
24177SOL     OW73108   7.511   0.233   0.927 -0.2327  0.4486 -0.0876
24177SOL    HW173109   7.419   0.224   0.952 -0.8610  1.4589 -1.8306
24177SOL    HW273110   7.556   0.164   0.974 -1.7184  0.5571  1.5941
24178SOL     OW73111   8.968   4.457   2.528 -0.3823  0.3281  0.7308
24178SOL    HW173112   8.953   4.418   2.442 -1.5409  2.4671 -0.1035
24178SOL    HW273113   8.947   4.388   2.590 -0.6120 -0.9067 -0.6798
24179SOL     OW73114   0.153   8.494   3.041 -0.0408 -0.3663  0.6281
24179SOL    HW173115   0.236   8.453   3.017 -0.2133 -0.3926  0.0728
24179SOL    HW273116   0.178   8.560   3.106  0.6100  0.5590 -0.5221
24180SOL     OW73117   5.825   0.874   5.174  0.2363 -0.5047  0.1704
24180SOL    HW173118   5.912   0.852   5.205 -0.1676 -0.6509  1.2475
24180SOL    HW273119   5.766   0.845   5.244 -0.7270 -0.9986 -0.8051
24181SOL     OW73120   6.004   8.338   0.643 -0.0817 -0.3406  0.6745
24181SOL    HW173121   5.982   8.255   0.685 -0.5801  0.4445  2.0480
24181SOL    HW273122   6.088   8.363   0.682 -1.1382  1.0022  2.2369
24182SOL     OW73123   0.782   7.618   5.242  0.1162  0.1656  0.9073
24182SOL    HW173124   0.865   7.653   5.211  0.6469 -1.4937  0.3613
24182SOL    HW273125   0.717   7.682   5.212  1.0450  0.7456  0.0645
24183SOL     OW73126   1.287   8.726   3.306 -0.4942  0.9672 -0.4863
24183SOL    HW173127   1.260   8.660   3.369 -0.8653  1.6685  0.1039
24183SOL    HW273128   1.382   8.726   3.309 -0.5149  1.2086  0.3031
24184SOL     OW73129   8.089   1.242   0.264  0.3323 -0.0084 -0.0333
24184SOL    HW173130   8.130   1.157   0.278 -0.1788 -0.6367 -1.9982
24184SOL    HW273131   8.161   1.299   0.236  0.5224 -0.0367  0.3955
24185SOL     OW73132   0.844   2.546   2.937  0.2531  0.4347 -0.3483
24185SOL    HW173133   0.815   2.631   2.903 -3.3918 -0.4698  0.0809
24185SOL    HW273134   0.844   2.489   2.860 -0.6008  0.0854 -0.0941
24186SOL     OW73135   2.623   6.094   1.904  0.1613  0.5257  0.1309
24186SOL    HW173136   2.592   6.047   1.826 -1.2840  2.1390 -0.3474
24186SOL    HW273137   2.713   6.117   1.884  0.5445 -1.0492 -0.0815
24187SOL     OW73138   9.497   5.528   1.644 -0.0874 -0.5264 -0.1682
24187SOL    HW173139   9.447   5.554   1.722 -0.6464  1.7328 -1.1771
24187SOL    HW273140   9.430   5.508   1.579  0.3739 -2.3967 -0.1120
24188SOL     OW73141   9.103   1.830   2.507 -0.1586 -0.3485  0.3210
24188SOL    HW173142   9.061   1.795   2.428  0.1481 -0.2235  0.1007
24188SOL    HW273143   9.160   1.759   2.538  1.7770  0.5096 -1.0885
24189SOL     OW73144   9.458   3.927   3.157  0.6656  0.0331 -0.6660
24189SOL    HW173145   9.451   3.981   3.078 -1.5997  1.6749  0.5270
24189SOL    HW273146   9.527   3.969   3.209 -0.8815  1.7547  0.1234
24190SOL     OW73147   5.999   2.645   3.845  0.2099  0.3322 -0.1217
24190SOL    HW173148   5.904   2.652   3.858  0.1302  0.7536 -0.9057
24190SOL    HW273149   6.011   2.651   3.750  1.2621  3.3299  0.1053
24191SOL     OW73150   0.118   9.706   4.246  0.0561 -0.1285  0.6506
24191SOL    HW173151   0.025   9.697   4.265 -0.3222 -1.1247 -1.4199
24191SOL    HW273152   0.156   9.622   4.271  0.4942  0.3949  1.8175
24192SOL     OW73153   1.405   1.144   3.041  0.1876 -0.1115 -0.5124
24192SOL    HW173154   1.363   1.230   3.032 -1.4031 -0.7365  0.3942
24192SOL    HW273155   1.365   1.107   3.120  1.2596 -1.4643 -0.5739
24193SOL     OW73156   2.443   8.191   3.919  0.2925 -0.6282  0.0845
24193SOL    HW173157   2.397   8.254   3.863  0.8249 -0.0761  0.2510
24193SOL    HW273158   2.392   8.188   3.999  1.4365  1.3241  0.9750
24194SOL     OW73159   2.773   8.216   0.661  0.4794 -0.3487 -0.3011
24194SOL    HW173160   2.775   8.274   0.738  1.5255 -0.2140 -0.4194
24194SOL    HW273161   2.730   8.269   0.593 -0.1242 -0.3396  0.0750
24195SOL     OW73162   0.796   8.920   2.328 -0.0128 -0.4818 -0.4076
24195SOL    HW173163   0.855   8.850   2.357 -0.0313 -0.4116 -0.1928
24195SOL    HW273164   0.850   8.999   2.328 -0.0412 -0.4621 -0.4603
24196SOL     OW73165   8.545   6.246   4.532  0.2231 -0.5218 -0.6679
24196SOL    HW173166   8.539   6.255   4.437  0.9797  2.0053 -0.5576
24196SOL    HW273167   8.640   6.245   4.550  0.0938 -0.2620  0.0839
24197SOL     OW73168   3.294   9.288   4.803 -0.4108 -0.2099 -0.0551
24197SOL    HW173169   3.371   9.339   4.780 -0.3632 -0.7507 -1.1871
24197SOL    HW273170   3.235   9.351   4.844  0.4636  0.2909  0.4613
24198SOL     OW73171   9.709   9.328   1.026  0.3369  0.1094  0.4750
24198SOL    HW173172   9.773   9.291   1.087  0.8853  2.6114  1.5383
24198SOL    HW273173   9.625   9.314   1.069  0.5728  0.4452  1.0573
24199SOL     OW73174   9.517   7.702   5.055 -0.5675 -0.1057  0.0445
24199SOL    HW173175   9.512   7.674   5.147  2.0889  2.9581  1.3197
24199SOL    HW273176   9.603   7.672   5.026  0.9110  3.2882  0.4075
24200SOL     OW73177   9.884   6.868   5.555 -0.0755  0.6233  0.2809
24200SOL    HW173178   9.861   6.815   5.632 -4.3435  0.7266 -0.6280
24200SOL    HW273179   9.890   6.804   5.484 -2.6170  0.9714 -0.3389
24201SOL     OW73180   5.753   2.339   3.603 -0.5627  0.0974 -0.3028
24201SOL    HW173181   5.770   2.407   3.537  2.1778  0.8239  0.9874
24201SOL    HW273182   5.839   2.300   3.619 -1.1762 -0.2505  2.6165
24202SOL     OW73183   2.719   1.387   9.574  0.1959  0.4171  1.2262
24202SOL    HW173184   2.647   1.381   9.637 -0.3962 -0.1591  0.5291
24202SOL    HW273185   2.743   1.295   9.558  0.9748  0.6038  1.3240
24203SOL     OW73186   5.250   1.455   6.412  0.9548 -1.1014  0.0976
24203SOL    HW173187   5.276   1.365   6.432  0.2103 -0.6363  4.0806
24203SOL    HW273188   5.328   1.507   6.431  0.3509 -0.6562  1.5115
24204SOL     OW73189   1.149   1.460   9.942 -0.2814  0.2053  0.4445
24204SOL    HW173190   1.125   1.547   9.910 -0.8516 -0.2469 -0.4005
24204SOL    HW273191   1.072   1.430   9.991 -0.5774 -0.3140 -0.3177
24205SOL     OW73192   9.018   1.648   2.273  0.2607 -0.2772  0.6934
24205SOL    HW173193   9.084   1.583   2.251 -0.8220 -0.5881 -2.0240
24205SOL    HW273194   8.934   1.604   2.257 -0.6745  0.3976  3.1642
24206SOL     OW73195   9.879   7.001   0.975  0.7099  0.3524 -0.1947
24206SOL    HW173196   9.822   7.012   0.899 -0.5907 -2.0039  0.2969
24206SOL    HW273197   9.914   6.912   0.966 -1.1100 -0.8674  2.8255
24207SOL     OW73198   4.026   3.807   8.877  0.2132  0.4341 -0.3515
24207SOL    HW173199   4.070   3.723   8.861  1.8635  1.5462 -1.9610
24207SOL    HW273200   3.978   3.825   8.796  0.7285  1.5411 -0.4189
24208SOL     OW73201   1.746   0.900   5.970  0.1651 -0.0246  0.4894
24208SOL    HW173202   1.828   0.950   5.974  0.8346 -1.0029 -0.3738
24208SOL    HW273203   1.687   0.955   5.919  0.8793 -0.0661 -0.4126
24209SOL     OW73204   0.812   0.971   7.279 -0.1099 -0.2362 -0.0270
24209SOL    HW173205   0.722   0.944   7.264  0.1057 -0.6294 -0.6474
24209SOL    HW273206   0.863   0.923   7.214  0.2359  2.1486 -1.6355
24210SOL     OW73207   3.944   5.746   5.339  0.3443  0.2209 -0.1940
24210SOL    HW173208   3.885   5.676   5.367  1.4136 -0.3061  0.8690
24210SOL    HW273209   3.934   5.750   5.244 -2.7586  1.4470  0.0843
24211SOL     OW73210   9.883   0.920   9.592  0.4114 -0.2535 -0.3263
24211SOL    HW173211   9.916   0.862   9.661 -1.3745  0.4218  1.1777
24211SOL    HW273212   9.828   0.863   9.537  0.4711 -0.4362 -0.1991
24212SOL     OW73213   4.282   6.448   4.054 -0.4375  0.1769 -0.1297
24212SOL    HW173214   4.230   6.415   4.127  1.5749  0.0828  1.3347
24212SOL    HW273215   4.255   6.394   3.979 -0.9736 -1.2505  1.0357
24213SOL     OW73216   3.585   8.113   5.256 -0.4334  0.2658 -0.0458
24213SOL    HW173217   3.674   8.145   5.268 -0.0525 -0.4022 -1.0465
24213SOL    HW273218   3.534   8.159   5.324  0.8773 -0.3351  1.3985
24214SOL     OW73219   2.892   4.914   0.320  0.3749 -0.1303  0.4782
24214SOL    HW173220   2.865   4.906   0.411 -1.1596  0.1688  0.0750
24214SOL    HW273221   2.865   5.003   0.295  2.0963  0.3374  0.1260
24215SOL     OW73222   7.486   9.452   3.917  0.7924 -0.1419  0.3565
24215SOL    HW173223   7.581   9.460   3.906  0.6926 -1.5040 -2.3186
24215SOL    HW273224   7.471   9.358   3.928 -0.2409  0.1105  1.3071
24216SOL     OW73225   8.956   0.096   1.689  0.2149 -0.0817  0.4038
24216SOL    HW173226   8.921   0.072   1.603  2.0521 -1.0836 -0.1076
24216SOL    HW273227   8.991   0.184   1.676 -0.1820  0.0707  0.3454
24217SOL     OW73228   5.439   0.842   3.717  0.2871 -0.3516  0.1001
24217SOL    HW173229   5.442   0.760   3.667  0.8141 -0.0183 -0.4313
24217SOL    HW273230   5.514   0.836   3.776  0.7756  0.0776 -0.4727
24218SOL     OW73231   3.250   4.156   7.274  0.4910 -0.1096  0.3977
24218SOL    HW173232   3.258   4.248   7.247  1.3935 -0.5201 -0.8198
24218SOL    HW273233   3.252   4.159   7.370  2.6527  1.0003  0.3918
24219SOL     OW73234   4.980   1.658   3.950 -0.9661  0.5518  0.2335
24219SOL    HW173235   4.937   1.663   4.034 -0.9682 -2.3392  0.5045
24219SOL    HW273236   4.992   1.564   3.934  0.8614  1.0584 -2.0433
24220SOL     OW73237   7.443   3.577   0.956  0.0759  0.2995  0.9855
24220SOL    HW173238   7.449   3.582   0.860 -1.2318  0.7417  0.9025
24220SOL    HW273239   7.432   3.484   0.974 -0.8570  0.3181  0.5970
24221SOL     OW73240   7.786   5.252   2.230  0.0449 -0.2587  0.9410
24221SOL    HW173241   7.777   5.270   2.324 -0.6534 -0.5114  0.9310
24221SOL    HW273242   7.862   5.194   2.225 -0.8471 -1.5363  1.5428
24222SOL     OW73243   2.585   3.781   5.514  0.1132  0.1533 -0.3558
24222SOL    HW173244   2.662   3.797   5.461 -0.7155 -0.0864 -1.6828
24222SOL    HW273245   2.559   3.692   5.493 -1.0577  0.5457 -0.6493
24223SOL     OW73246   0.046   3.963   6.836  0.0944 -0.2981 -0.0251
24223SOL    HW173247  -0.011   3.973   6.760 -2.2519  0.2840  1.6987
24223SOL    HW273248   0.063   3.869   6.842 -2.4219 -0.7905  0.5185
24224SOL     OW73249   0.475   4.553   9.274 -0.1624  0.4392  0.0182
24224SOL    HW173250   0.436   4.471   9.305 -0.6206  1.3263  1.9452
24224SOL    HW273251   0.567   4.532   9.263 -0.3630 -0.4746 -0.0514
24225SOL     OW73252   9.814   8.410   3.163 -0.0504 -0.0875 -0.4087
24225SOL    HW173253   9.750   8.425   3.232 -1.3093 -0.6847 -1.4128
24225SOL    HW273254   9.897   8.439   3.201 -0.9530  1.0297  0.8010
24226SOL     OW73255   3.115   9.175   2.075  0.0800  0.4399 -0.1983
24226SOL    HW173256   3.187   9.239   2.072  1.3192 -0.6875  2.6025
24226SOL    HW273257   3.047   9.218   2.127 -0.2331  0.5192 -0.6684
24227SOL     OW73258   0.721   9.707   1.013 -0.3983  0.5408  0.8834
24227SOL    HW173259   0.733   9.681   0.922 -0.7531 -0.1604  1.0318
24227SOL    HW273260   0.626   9.714   1.024 -0.4222 -0.5766  1.5171
24228SOL     OW73261   8.309   8.497   2.147  0.1240  0.1875  0.1724
24228SOL    HW173262   8.225   8.487   2.103 -0.6922  1.2968  1.4124
24228SOL    HW273263   8.305   8.435   2.220  1.6015 -1.8907 -1.3912
24229SOL     OW73264   9.229   6.019   1.856 -0.1573  0.5583  0.1667
24229SOL    HW173265   9.238   6.081   1.929 -1.8207 -0.2706  1.1327
24229SOL    HW273266   9.316   6.019   1.815  2.1291 -1.5717  4.3031
24230SOL     OW73267   1.081   3.858   9.389  0.9088  0.5986  0.0480
24230SOL    HW173268   1.150   3.891   9.446  2.3794 -4.2739  1.5691
24230SOL    HW273269   1.019   3.815   9.449 -1.3639  1.3456 -1.6098
24231SOL     OW73270   2.150   0.179   6.085 -0.2068  0.3768  0.6586
24231SOL    HW173271   2.110   0.170   5.998 -0.3697 -1.5289  0.9009
24231SOL    HW273272   2.111   0.110   6.137  0.2018  1.2372  2.1659
24232SOL     OW73273   0.483   6.335   1.401 -0.2388  0.1979  0.0588
24232SOL    HW173274   0.523   6.422   1.411  1.3507 -0.4991  0.0216
24232SOL    HW273275   0.506   6.289   1.482 -0.3520 -0.4644 -0.2854
24233SOL     OW73276   0.789   6.982   3.858  0.2709 -0.5936 -0.1319
24233SOL    HW173277   0.809   7.045   3.928 -0.2521 -0.6406  0.0719
24233SOL    HW273278   0.851   6.910   3.872  1.5289  0.3031 -0.9677
24234SOL     OW73279   1.800   6.749   7.339 -0.1539 -0.3807 -0.0893
24234SOL    HW173280   1.780   6.657   7.359 -0.1361 -0.4092 -0.2044
24234SOL    HW273281   1.745   6.770   7.264 -1.1604  0.0956  0.7375
24235SOL     OW73282   0.850   7.956   1.593 -0.2116  0.5760 -0.3781
24235SOL    HW173283   0.772   8.002   1.626  1.1586  2.5948  0.2612
24235SOL    HW273284   0.905   7.944   1.671  0.2226 -0.6618 -0.8546
24236SOL     OW73285   5.923   7.229   5.236  0.5438 -0.0461 -0.6259
24236SOL    HW173286   5.938   7.137   5.217 -0.6400 -0.9836  2.3657
24236SOL    HW273287   6.002   7.258   5.282 -0.6683 -0.8951  2.2285
24237SOL     OW73288   1.801   1.987   5.419  0.2277  0.5851 -0.4401
24237SOL    HW173289   1.760   1.902   5.435  2.0301  0.1427  2.6070
24237SOL    HW273290   1.783   2.005   5.327 -1.1465 -2.5589 -0.9258
24238SOL     OW73291   3.734   5.351   8.552 -0.3890  0.4329  0.3226
24238SOL    HW173292   3.672   5.279   8.547 -1.1754  1.1545 -0.9830
24238SOL    HW273293   3.773   5.355   8.464 -0.3857  1.6148  0.3624
24239SOL     OW73294   1.613   7.876   8.589 -0.2626  0.1286 -0.9175
24239SOL    HW173295   1.680   7.830   8.639  0.0362  0.6128 -0.8687
24239SOL    HW273296   1.540   7.886   8.651  0.4282  1.4874 -0.2913
24240SOL     OW73297   6.641   8.839   4.764  0.2960 -0.7303 -0.0578
24240SOL    HW173298   6.715   8.778   4.772 -0.0068 -0.8850  2.2817
24240SOL    HW273299   6.635   8.880   4.850 -1.0508  0.8335 -0.8503
24241SOL     OW73300   6.905   9.898   6.813  0.0497 -0.3734 -0.1194
24241SOL    HW173301   6.975   9.923   6.752 -0.0570  1.6839  0.5061
24241SOL    HW273302   6.858   9.980   6.828 -1.6068 -1.4269  0.6035
24242SOL     OW73303   3.537   7.857   5.938  0.3632  0.0626  0.1077
24242SOL    HW173304   3.490   7.793   5.991 -0.4193  1.5000  1.1937
24242SOL    HW273305   3.587   7.909   6.001  1.5133  0.1158 -0.8159
24243SOL     OW73306   6.066   5.473   2.131  0.0289  0.2498 -0.0300
24243SOL    HW173307   6.031   5.458   2.220  0.9769  0.2006  0.3431
24243SOL    HW273308   6.155   5.504   2.145  0.1134  0.4589 -0.9729
24244SOL     OW73309   2.776   2.463   8.829  0.4261  0.5303 -0.2846
24244SOL    HW173310   2.830   2.392   8.793  1.5984  1.2700 -0.0427
24244SOL    HW273311   2.802   2.467   8.922  0.2513  1.1613 -0.2602
24245SOL     OW73312   2.518   1.587   2.530 -0.4523  0.0138  0.4958
24245SOL    HW173313   2.491   1.552   2.444 -1.6826  0.0018  0.8606
24245SOL    HW273314   2.518   1.682   2.517 -1.4926  0.0529  0.7012
24246SOL     OW73315   0.305   9.181   5.163 -0.6299  0.1159 -0.0055
24246SOL    HW173316   0.276   9.171   5.254  0.0618  0.7448  0.2995
24246SOL    HW273317   0.400   9.169   5.167 -0.2456  2.4726 -0.2281
24247SOL     OW73318   1.020   8.156   7.224 -0.2378 -0.1316 -0.6926
24247SOL    HW173319   1.003   8.186   7.135 -0.0765  0.8867 -0.4004
24247SOL    HW273320   1.111   8.181   7.240  0.9074 -3.3693 -1.4107
24248SOL     OW73321   1.234   6.815   7.314 -0.1654  0.2739 -0.3001
24248SOL    HW173322   1.234   6.847   7.404  1.1345  0.6386 -0.4092
24248SOL    HW273323   1.217   6.893   7.261  2.9028  0.8953 -0.5592
24249SOL     OW73324   7.696   0.325   6.794 -0.2922  0.2085  0.3769
24249SOL    HW173325   7.722   0.400   6.740 -0.2238 -0.6592 -0.8306
24249SOL    HW273326   7.683   0.254   6.731  1.5825 -1.3546  1.6243
24250SOL     OW73327   8.947   7.030   9.455  0.1092  0.6360 -0.8565
24250SOL    HW173328   9.016   7.085   9.418  1.3035 -0.2307  0.0186
24250SOL    HW273329   8.906   6.988   9.379  0.6944  0.9780 -1.3662
24251SOL     OW73330   3.941   4.618   7.972  0.2245 -0.4190  0.3968
24251SOL    HW173331   3.937   4.663   8.057  0.3287  0.5832 -0.1183
24251SOL    HW273332   4.031   4.587   7.966  0.0956 -0.8971  0.8510
24252SOL     OW73333   1.234   0.989   5.794  0.2170  0.5127 -0.0706
24252SOL    HW173334   1.289   0.952   5.864 -0.4204 -0.6171 -0.1619
24252SOL    HW273335   1.145   0.968   5.820 -0.0078 -0.3776 -1.4864
24253SOL     OW73336   9.921   1.220   4.020 -0.3872 -0.2068 -0.2976
24253SOL    HW173337   9.932   1.146   4.080 -0.4752  0.7258  0.9035
24253SOL    HW273338   9.847   1.195   3.964  0.7892 -1.8403 -1.2197
24254SOL     OW73339   1.125   7.967   3.512 -0.0689  0.5500 -0.4578
24254SOL    HW173340   1.032   7.986   3.499  0.0717  1.7400  0.1167
24254SOL    HW273341   1.129   7.924   3.597 -0.4198 -2.5435 -1.8857
24255SOL     OW73342   1.282   2.789   2.431 -0.1912 -0.8967  0.1234
24255SOL    HW173343   1.336   2.729   2.483  0.1327  0.6184  1.6411
24255SOL    HW273344   1.193   2.773   2.462 -0.1069 -0.6511  0.5119
24256SOL     OW73345   7.454   8.897   9.528  0.1112  0.9226 -0.1202
24256SOL    HW173346   7.521   8.964   9.519  0.5603  0.7582  1.6577
24256SOL    HW273347   7.496   8.826   9.577 -1.1963  0.6144  0.6326
24257SOL     OW73348   7.124   2.932   2.331  0.4070  0.1414 -1.1513
24257SOL    HW173349   7.065   3.005   2.313  0.0973 -0.4427 -2.6241
24257SOL    HW273350   7.067   2.854   2.329  0.9841 -0.2915 -1.0925
24258SOL     OW73351   5.297   0.115   6.736  0.0950  0.6484 -0.0331
24258SOL    HW173352   5.303   0.166   6.817  1.2782  1.4594 -0.6115
24258SOL    HW273353   5.387   0.091   6.715 -0.3491 -1.0229 -0.2225
24259SOL     OW73354   6.653   8.565   0.089  0.5743  0.1025 -0.4879
24259SOL    HW173355   6.619   8.478   0.107  3.3957 -0.8710  0.7683
24259SOL    HW273356   6.631   8.581  -0.003 -0.4909 -1.6736 -0.5861
24260SOL     OW73357   6.294   8.047   6.078  0.0038  0.0528  0.0671
24260SOL    HW173358   6.234   8.085   6.014 -1.4011 -0.7972  0.8262
24260SOL    HW273359   6.320   8.121   6.133 -0.5853  0.3921 -0.1004
24261SOL     OW73360   7.230   5.952   3.896 -0.4868  0.3925 -0.0683
24261SOL    HW173361   7.303   6.013   3.906 -1.5284  2.2960 -2.8008
24261SOL    HW273362   7.152   6.003   3.920 -1.2767 -0.1748 -1.3011
24262SOL     OW73363   4.974   2.889   8.737 -0.3019  0.5013 -0.4711
24262SOL    HW173364   5.044   2.945   8.768 -0.8874  1.3650 -0.6587
24262SOL    HW273365   4.997   2.801   8.768 -0.0298  1.0509  0.9416
24263SOL     OW73366   6.001   9.103   2.535 -0.9227  0.8913 -0.2591
24263SOL    HW173367   6.097   9.103   2.541 -0.9688  1.5393  0.5006
24263SOL    HW273368   5.979   9.191   2.504 -1.2105  0.3501 -1.6727
24264SOL     OW73369   0.694   5.897   5.983 -0.0180  0.5696 -0.5367
24264SOL    HW173370   0.629   5.951   5.937  1.1218  2.3812 -0.0980
24264SOL    HW273371   0.661   5.892   6.073  0.7999  2.1589 -0.1183
24265SOL     OW73372   5.462   3.874   6.488 -0.1193  0.1117 -0.4170
24265SOL    HW173373   5.425   3.918   6.411 -0.1008  0.4656 -0.2287
24265SOL    HW273374   5.442   3.782   6.475  0.3014  0.1078 -1.0796
24266SOL     OW73375   6.386   0.213   9.540 -0.5964 -0.4587 -0.2895
24266SOL    HW173376   6.324   0.278   9.574 -0.4613 -0.0695 -0.7848
24266SOL    HW273377   6.472   0.252   9.554 -0.5798  0.2453 -2.1604
24267SOL     OW73378   6.347   7.446   7.635  0.3206 -0.3749  0.2302
24267SOL    HW173379   6.399   7.387   7.691  0.7708  0.8115  1.0969
24267SOL    HW273380   6.412   7.488   7.578  0.0981 -0.1523  0.1416
24268SOL     OW73381   5.274   5.561   9.105 -0.1172  0.0309 -0.1426
24268SOL    HW173382   5.307   5.537   9.019  0.6488 -0.0920  0.1704
24268SOL    HW273383   5.248   5.653   9.097  3.2017  1.1719  0.3307
24269SOL     OW73384   2.562   0.998   2.360 -0.2237 -0.4350 -0.1866
24269SOL    HW173385   2.540   1.081   2.401  1.5091 -0.6022  1.2282
24269SOL    HW273386   2.591   0.942   2.433 -1.2692 -2.2719 -1.0911
24270SOL     OW73387   0.036   7.363   3.849  0.0673 -0.2655  0.3100
24270SOL    HW173388  -0.010   7.285   3.878  0.2882 -0.1252  1.0598
24270SOL    HW273389   0.031   7.361   3.753 -0.5304 -0.8256  0.3548
24271SOL     OW73390   7.609   9.569   8.178  0.1318 -0.2613  0.1207
24271SOL    HW173391   7.605   9.657   8.214  3.1227 -0.7165  1.8546
24271SOL    HW273392   7.633   9.582   8.086  1.2548  0.7241  0.5341
24272SOL     OW73393   7.529   5.306   2.909 -0.2097  0.4140  0.1088
24272SOL    HW173394   7.459   5.281   2.848 -0.5167  1.4467  0.0315
24272SOL    HW273395   7.513   5.253   2.987 -0.3522 -0.2432 -0.3517
24273SOL     OW73396   0.324   6.029   6.189 -0.3621  0.0770  0.1621
24273SOL    HW173397   0.399   6.068   6.234  0.8189 -1.8608 -0.0077
24273SOL    HW273398   0.324   5.937   6.216 -2.0452 -0.2254 -0.6805
24274SOL     OW73399   0.828   4.938   0.249 -0.6264  0.0387 -0.4257
24274SOL    HW173400   0.769   4.869   0.278 -1.6235  1.7928  1.9885
24274SOL    HW273401   0.901   4.935   0.310 -0.4346  0.7766 -0.6040
24275SOL     OW73402   1.974   5.227   6.846  0.2563  0.2964 -0.3685
24275SOL    HW173403   1.930   5.268   6.920  2.3062  0.3136  0.9271
24275SOL    HW273404   1.910   5.166   6.810 -0.7954  0.2987  1.4034
24276SOL     OW73405   9.717   9.655   6.794  0.0085 -0.2646  0.2860
24276SOL    HW173406   9.687   9.575   6.750  1.9663 -1.6434  1.3054
24276SOL    HW273407   9.655   9.668   6.865 -0.3431 -0.8688  0.0962
24277SOL     OW73408   4.503   9.407   9.766  0.9533 -0.4008  0.1041
24277SOL    HW173409   4.536   9.319   9.780  2.0838  0.0139  0.1579
24277SOL    HW273410   4.580   9.458   9.740  0.2317  0.4548 -0.4433
24278SOL     OW73411   5.125   7.116   1.773 -0.5331 -0.2819 -0.0962
24278SOL    HW173412   5.158   7.134   1.861 -2.0542 -0.3587  0.5272
24278SOL    HW273413   5.116   7.202   1.733 -0.5221 -0.1970  0.0819
24279SOL     OW73414   9.373   1.301   2.738  0.7198  0.0436  0.5729
24279SOL    HW173415   9.386   1.358   2.813 -0.6580  0.3226  0.6163
24279SOL    HW273416   9.287   1.262   2.751  0.9157 -0.7383 -0.3178
24280SOL     OW73417   0.957   5.606   3.410  0.1070 -0.2044  0.1643
24280SOL    HW173418   1.034   5.597   3.467 -0.3957 -0.3673  0.8290
24280SOL    HW273419   0.915   5.687   3.438 -0.1388 -0.2776  0.0115
24281SOL     OW73420   2.452   9.881   1.207 -0.7089  0.4487  0.5549
24281SOL    HW173421   2.419   9.791   1.205 -0.1537  0.2599 -0.6846
24281SOL    HW273422   2.470   9.902   1.116 -0.3590  1.6538  0.8875
24282SOL     OW73423   5.087   0.348   5.077 -0.2033  0.3608 -0.1706
24282SOL    HW173424   5.080   0.255   5.052 -1.9830  0.2941  0.4313
24282SOL    HW273425   4.999   0.382   5.064 -0.2160  1.3272  2.0885
24283SOL     OW73426   0.816   9.704   7.532 -0.1482 -0.0681  0.5068
24283SOL    HW173427   0.893   9.734   7.582 -0.3653  1.8308 -0.2276
24283SOL    HW273428   0.832   9.611   7.518  0.4803 -0.4197  3.0948
24284SOL     OW73429   5.505   3.115   1.457 -0.0359 -0.1605 -0.4732
24284SOL    HW173430   5.540   3.039   1.503 -0.3745  0.6577  1.2102
24284SOL    HW273431   5.502   3.184   1.523 -1.4743  0.8036 -1.4831
24285SOL     OW73432   7.302   2.581   9.773  0.0413 -0.3669 -0.1415
24285SOL    HW173433   7.209   2.600   9.760  0.4199  0.4162 -2.0379
24285SOL    HW273434   7.315   2.498   9.727 -0.0892 -1.5730  1.8709
24286SOL     OW73435   5.954   7.800   7.206  0.6196 -0.1511 -0.3603
24286SOL    HW173436   5.874   7.751   7.224 -0.3041  0.0087 -3.3376
24286SOL    HW273437   5.983   7.832   7.291 -1.1193 -2.2391  1.1319
24287SOL     OW73438   2.038   9.591   8.096 -0.0307 -0.0015  0.2426
24287SOL    HW173439   1.966   9.627   8.046  0.5649 -0.5155 -1.0159
24287SOL    HW273440   2.040   9.499   8.072  1.3499  0.1101 -0.1395
24288SOL     OW73441   5.954   1.717   4.426 -0.1982  0.0390  0.8400
24288SOL    HW173442   5.884   1.658   4.399 -1.4544  0.5598  2.7177
24288SOL    HW273443   6.006   1.665   4.488 -1.1284  0.7260  2.2624
24289SOL     OW73444   6.897   0.925   8.002 -0.2188  0.1131 -0.4385
24289SOL    HW173445   6.809   0.924   8.040 -0.3327 -1.4611 -0.6765
24289SOL    HW273446   6.943   0.993   8.052 -1.2672  0.2690  0.3701
24290SOL     OW73447   9.423   7.087   4.294  0.7959  0.4539  0.8625
24290SOL    HW173448   9.500   7.108   4.347  2.3232 -0.9412 -0.6963
24290SOL    HW273449   9.446   7.114   4.205  0.4687 -2.0772 -0.0760
24291SOL     OW73450   2.278   7.332   3.454 -0.2904  0.0369  0.3238
24291SOL    HW173451   2.360   7.382   3.460  0.4395 -1.1811  0.9327
24291SOL    HW273452   2.305   7.241   3.461 -1.7181 -0.3906  0.6374
24292SOL     OW73453   8.249   4.574   6.744  0.8228 -0.1546 -0.5502
24292SOL    HW173454   8.249   4.603   6.653  0.4288 -1.2205 -0.8999
24292SOL    HW273455   8.283   4.649   6.793  1.7104  0.1797 -1.6466
24293SOL     OW73456   6.344   5.448   3.550  0.3426 -0.1667 -0.5634
24293SOL    HW173457   6.303   5.394   3.482  1.9231 -2.2812  0.0625
24293SOL    HW273458   6.277   5.455   3.618 -0.5816  0.3792 -1.4892
24294SOL     OW73459   1.719   6.336   4.712  0.4087 -0.3167 -0.0631
24294SOL    HW173460   1.770   6.382   4.646  0.1048  0.0958 -0.0129
24294SOL    HW273461   1.628   6.360   4.694  0.3668  0.2482  0.8378
24295SOL     OW73462   0.944   8.085   8.374  0.3603 -0.1425 -0.6557
24295SOL    HW173463   0.983   8.105   8.288  0.2876  0.6515 -0.5066
24295SOL    HW273464   1.005   8.123   8.437 -0.6643  1.1880 -0.4214
24296SOL     OW73465   8.148   7.279   4.477  0.0709  0.0190 -0.4712
24296SOL    HW173466   8.094   7.217   4.527 -0.4251 -1.4826 -2.7401
24296SOL    HW273467   8.217   7.303   4.538  0.6481 -3.2728  0.4020
24297SOL     OW73468   4.974   8.090   9.617  0.0157 -0.0142 -0.0456
24297SOL    HW173469   4.941   8.060   9.532 -1.2183 -0.7674  0.6672
24297SOL    HW273470   5.018   8.014   9.654  1.3233  0.5694 -0.3640
24298SOL     OW73471   8.028   7.720   3.471 -1.0407  0.0701  0.4315
24298SOL    HW173472   8.013   7.755   3.559  2.5098 -0.8206  1.5738
24298SOL    HW273473   8.078   7.789   3.426 -0.9441 -0.3410 -0.0980
24299SOL     OW73474   3.880   9.194   3.386  0.0262  0.1611  0.1275
24299SOL    HW173475   3.800   9.237   3.417  0.5300  0.1160  1.5534
24299SOL    HW273476   3.862   9.100   3.398  0.0924  0.1238 -0.0644
24300SOL     OW73477   2.355   9.825   6.828  0.1492  0.4917 -0.0938
24300SOL    HW173478   2.332   9.914   6.855 -2.8464 -0.2496  0.1285
24300SOL    HW273479   2.356   9.775   6.910  0.0981  0.0011 -0.3917
24301SOL     OW73480   2.466   8.316   7.486  0.2117  0.1079 -0.6796
24301SOL    HW173481   2.473   8.396   7.434  1.8672  0.1516 -0.4430
24301SOL    HW273482   2.490   8.246   7.426  1.9060  0.1359 -0.1011
24302SOL     OW73483   8.777   7.219   4.897  0.1357  0.5015  1.0574
24302SOL    HW173484   8.762   7.139   4.946 -1.8642  0.4590  0.4853
24302SOL    HW273485   8.807   7.283   4.962 -0.5498 -0.0779  1.9585
24303SOL     OW73486   4.124   3.887   7.869  0.2290  0.0627  0.3357
24303SOL    HW173487   4.059   3.934   7.817  0.1059  0.7533  1.1021
24303SOL    HW273488   4.208   3.915   7.834  0.1350 -0.1613 -0.0777
24304SOL     OW73489   8.564   9.157   8.697 -0.1084  0.0096 -0.1300
24304SOL    HW173490   8.547   9.175   8.789 -1.3442 -0.9983 -0.1320
24304SOL    HW273491   8.580   9.244   8.658  0.5012  0.4377  1.0156
24305SOL     OW73492   2.906   7.649   6.717 -0.4584 -0.3451 -0.3670
24305SOL    HW173493   2.831   7.640   6.776  0.5434  1.0569  1.2015
24305SOL    HW273494   2.982   7.623   6.770  0.6170  2.0999 -0.5847
24306SOL     OW73495   7.904   4.667   5.822 -0.2143 -0.0567 -0.2466
24306SOL    HW173496   7.821   4.713   5.831  0.0422  0.0942  2.3372
24306SOL    HW273497   7.880   4.576   5.809 -0.7499  0.1908 -1.0863
24307SOL     OW73498   7.552   0.945   5.902 -0.6937 -0.6398 -0.2773
24307SOL    HW173499   7.533   1.002   5.828  0.2858 -0.9381 -0.7796
24307SOL    HW273500   7.490   0.971   5.970 -0.5772  0.6858 -0.6612
24308SOL     OW73501   9.540   5.971   0.742 -0.0041 -0.2230  0.3230
24308SOL    HW173502   9.589   5.956   0.661  0.4078 -3.2280  1.0394
24308SOL    HW273503   9.590   6.039   0.788  0.1432  1.0211 -1.5603
24309SOL     OW73504   2.587   7.480   6.505  0.5836  0.0687 -0.0481
24309SOL    HW173505   2.551   7.395   6.480  0.2333 -0.3677  1.8265
24309SOL    HW273506   2.554   7.541   6.438 -1.2261 -0.8261 -0.0257
24310SOL     OW73507   8.504   8.394   5.586 -0.3325 -0.0689  0.4162
24310SOL    HW173508   8.498   8.355   5.673  1.9018  0.8574  1.0540
24310SOL    HW273509   8.478   8.485   5.600 -0.8611 -0.1360 -0.0955
24311SOL     OW73510   8.907   6.512   7.362 -0.3866 -0.9157  0.2061
24311SOL    HW173511   8.907   6.606   7.347 -0.2913 -0.8011  0.8681
24311SOL    HW273512   8.935   6.474   7.279  0.2853 -0.3184  0.1456
24312SOL     OW73513   4.202   3.450   3.313 -0.3712  0.6253 -0.2536
24312SOL    HW173514   4.259   3.459   3.237  0.9911  2.7821  0.9186
24312SOL    HW273515   4.113   3.452   3.277  0.1680  3.6329 -1.7372
24313SOL     OW73516   2.677   6.963   5.211  0.8289 -0.0290  0.7224
24313SOL    HW173517   2.634   7.015   5.143 -0.5138 -0.8399  0.9094
24313SOL    HW273518   2.642   6.874   5.199  0.5714 -0.1975  2.4344
24314SOL     OW73519   6.953   9.394   6.987 -0.4308  0.3739  0.2842
24314SOL    HW173520   6.887   9.377   6.920  0.7896 -0.0932 -0.8522
24314SOL    HW273521   6.939   9.326   7.052  0.3718 -1.1801 -1.0967
24315SOL     OW73522   5.200   7.227   3.903 -0.2043 -0.2374  0.0624
24315SOL    HW173523   5.251   7.154   3.870  0.5620 -0.0486  0.7929
24315SOL    HW273524   5.183   7.282   3.826  1.2739  0.0421 -0.0882
24316SOL     OW73525   8.486   9.618   9.758  0.1608  0.4404 -0.2355
24316SOL    HW173526   8.452   9.581   9.840  0.5327 -0.5692 -0.5186
24316SOL    HW273527   8.578   9.593   9.758  0.6218  2.0198 -0.1060
24317SOL     OW73528   1.472   1.804   0.922 -0.3143  0.5072 -0.9224
24317SOL    HW173529   1.564   1.792   0.898 -0.9932  0.8515 -4.1153
24317SOL    HW273530   1.443   1.877   0.869 -2.5384  0.2092 -0.2025
24318SOL     OW73531   0.638   4.245   6.514 -0.1061  0.1721 -0.2400
24318SOL    HW173532   0.714   4.266   6.461 -0.4423  0.0254 -0.7856
24318SOL    HW273533   0.599   4.169   6.472 -0.1973 -0.1421  0.4032
24319SOL     OW73534   6.648   8.944   0.371 -0.5259  0.0500  0.2045
24319SOL    HW173535   6.656   8.986   0.456  2.1794 -0.9250  0.5363
24319SOL    HW273536   6.612   9.012   0.314  0.8363  1.8615  1.3795
24320SOL     OW73537   2.748   2.827   4.295  0.2603  0.1276  0.0334
24320SOL    HW173538   2.730   2.833   4.201 -1.0061  2.0149  0.3417
24320SOL    HW273539   2.664   2.847   4.337  1.0415  0.3531  1.5650
24321SOL     OW73540   8.515   7.115   9.917  0.5000  0.5848  0.4991
24321SOL    HW173541   8.580   7.119   9.987 -0.5632  0.7218  1.4994
24321SOL    HW273542   8.503   7.206   9.889  2.0321  0.3857 -0.9402
24322SOL     OW73543   1.413   3.653   6.159  0.3450  0.2235  0.3307
24322SOL    HW173544   1.389   3.709   6.085  1.0375 -0.5996 -0.5394
24322SOL    HW273545   1.493   3.609   6.131 -0.4721 -1.6223  0.7589
24323SOL     OW73546   2.516   1.083   2.776 -0.0292  0.4159 -0.4448
24323SOL    HW173547   2.494   1.156   2.719 -0.2956  1.6296  1.1330
24323SOL    HW273548   2.574   1.121   2.843 -1.0981 -0.5143  1.0726
24324SOL     OW73549   7.275   9.777   3.326 -0.2683  0.0493  0.2968
24324SOL    HW173550   7.185   9.745   3.326 -0.1378 -0.3463 -0.4050
24324SOL    HW273551   7.271   9.862   3.369 -0.7424 -0.5902  1.5909
24325SOL     OW73552   3.111   8.493   9.713  0.0157  0.4765  0.7175
24325SOL    HW173553   3.037   8.447   9.753  1.1475 -0.2377  2.0847
24325SOL    HW273554   3.156   8.534   9.787  0.3736  1.8272 -0.2173
24326SOL     OW73555   6.698   5.970   8.457  0.0683  0.2679  0.3464
24326SOL    HW173556   6.741   6.054   8.438  0.4704  0.2663  1.2252
24326SOL    HW273557   6.631   5.992   8.522  0.5961 -0.1887  1.0549
24327SOL     OW73558   1.676   0.985   3.063 -0.0381 -0.0905  0.0660
24327SOL    HW173559   1.724   0.993   2.981  0.4283 -0.4723  0.2979
24327SOL    HW273560   1.601   1.044   3.052  0.6113  0.7117 -0.1995
24328SOL     OW73561   5.655   3.620   4.366 -0.2175  0.0091  0.6407
24328SOL    HW173562   5.667   3.709   4.331  1.4683 -0.5467 -0.3099
24328SOL    HW273563   5.613   3.572   4.295 -1.2170  0.0348  1.1899
24329SOL     OW73564   8.312   5.726   7.792 -0.2427  0.1579 -0.3121
24329SOL    HW173565   8.385   5.666   7.806 -1.9719 -1.9179  0.5250
24329SOL    HW273566   8.286   5.753   7.881  0.3911  2.0939 -0.6612
24330SOL     OW73567   5.958   6.350   6.671 -0.5784  0.5432 -0.2545
24330SOL    HW173568   6.044   6.351   6.630 -0.8172  2.2999 -0.8257
24330SOL    HW273569   5.921   6.264   6.649  0.9996 -0.2277  0.0009
24331SOL     OW73570   3.333   9.877   6.423 -0.3651 -0.4950  0.7913
24331SOL    HW173571   3.308   9.860   6.514 -1.0210 -2.9797  0.2429
24331SOL    HW273572   3.252   9.865   6.374  0.2158 -0.3036 -0.2394
24332SOL     OW73573   6.907   8.205   2.898 -0.1339  0.5103  0.5637
24332SOL    HW173574   6.937   8.116   2.915  2.0967  1.2636  0.8333
24332SOL    HW273575   6.863   8.232   2.978 -1.6770 -0.6252  0.1532
24333SOL     OW73576   8.119   7.626   6.245 -0.0541  0.1894 -0.0341
24333SOL    HW173577   8.173   7.622   6.324  2.0759 -1.7976 -1.4764
24333SOL    HW273578   8.068   7.545   6.247  0.9277 -0.4840 -1.2624
24334SOL     OW73579   3.830   1.169   4.912 -0.8844  0.0422  0.0929
24334SOL    HW173580   3.877   1.206   4.988 -0.3879 -0.4265  0.0256
24334SOL    HW273581   3.778   1.241   4.879 -0.2620  0.5684  0.2248
24335SOL     OW73582   2.429   6.477   5.444 -0.3404 -0.1911 -0.1171
24335SOL    HW173583   2.471   6.441   5.522 -1.1392 -0.4427  0.2099
24335SOL    HW273584   2.486   6.549   5.417 -0.0701 -0.0769  0.7247
24336SOL     OW73585   8.382   7.137   3.281 -0.1270  0.3580  0.2586
24336SOL    HW173586   8.358   7.109   3.193  1.5124  0.7975 -0.3532
24336SOL    HW273587   8.379   7.057   3.333  1.7096 -0.4716 -0.8450
24337SOL     OW73588   7.186   6.664   4.271 -0.3785  0.2680  0.1660
24337SOL    HW173589   7.148   6.752   4.266  1.4118  1.1322  1.1394
24337SOL    HW273590   7.236   6.664   4.352 -0.6540 -1.8121  0.3825
24338SOL     OW73591   8.814   5.309   9.738 -0.5892 -0.0100 -0.4003
24338SOL    HW173592   8.854   5.288   9.822 -1.7653 -0.3975  0.0778
24338SOL    HW273593   8.778   5.397   9.749 -0.9591 -0.1590 -0.4169
24339SOL     OW73594   3.773   3.563   7.415 -0.5909  0.2144 -0.4733
24339SOL    HW173595   3.765   3.652   7.380 -3.8759  0.2334 -0.0344
24339SOL    HW273596   3.706   3.558   7.484  0.2176 -2.2795  0.2490
24340SOL     OW73597   8.009   3.072   2.547  0.0044 -0.6411 -0.2202
24340SOL    HW173598   8.032   3.164   2.536 -1.7235 -0.2774 -1.3568
24340SOL    HW273599   8.048   3.046   2.631 -0.1228  1.3435  0.4949
24341SOL     OW73600   3.828   1.877   7.149  0.3602  0.5048 -0.3060
24341SOL    HW173601   3.773   1.902   7.074 -1.2124  1.4626  1.0951
24341SOL    HW273602   3.881   1.955   7.166  0.5473  0.3687 -0.2654
24342SOL     OW73603   7.040   7.557   8.843 -0.0265 -0.1127 -0.3508
24342SOL    HW173604   7.069   7.472   8.878  1.1774  0.0602 -0.8625
24342SOL    HW273605   6.958   7.575   8.889  0.2181 -1.0724  0.5136
24343SOL     OW73606   5.753   3.574   5.189  0.4620 -0.4261 -0.4031
24343SOL    HW173607   5.713   3.487   5.180 -1.1605  0.2762 -0.2186
24343SOL    HW273608   5.812   3.565   5.263  0.5490 -1.4510 -0.5766
24344SOL     OW73609   2.215   2.428   7.197  0.4208  0.4872  0.2963
24344SOL    HW173610   2.186   2.345   7.160 -2.0178 -0.3193  3.5190
24344SOL    HW273611   2.294   2.407   7.247  0.9340  0.5602 -0.4730
24345SOL     OW73612   9.154   6.055   5.966 -0.0967  0.2286  0.2617
24345SOL    HW173613   9.171   6.092   6.052  1.5061 -2.0320  1.0030
24345SOL    HW273614   9.224   6.091   5.910  0.6933 -0.6357  0.6703
24346SOL     OW73615   9.098   0.425   5.366 -0.4134 -0.2642 -0.0825
24346SOL    HW173616   9.159   0.393   5.433  0.1245 -0.0650 -0.4723
24346SOL    HW273617   9.152   0.481   5.310 -1.5356  2.2751  1.2310
24347SOL     OW73618   3.017   2.621   9.196  0.3228 -0.4595 -0.1195
24347SOL    HW173619   2.941   2.677   9.209 -0.1689 -1.1977  0.2432
24347SOL    HW273620   3.092   2.680   9.201 -0.1925  0.1746  0.1433
24348SOL     OW73621   0.974   4.477   0.714  0.5039  0.5038  0.1304
24348SOL    HW173622   0.969   4.396   0.664 -0.4113 -0.3508  1.5246
24348SOL    HW273623   0.930   4.457   0.796 -1.3929  2.9543 -0.1729
24349SOL     OW73624   7.153   9.883   8.175  0.3206 -0.2184 -0.0375
24349SOL    HW173625   7.074   9.842   8.141  0.6598 -0.4229 -0.5887
24349SOL    HW273626   7.193   9.817   8.230  0.3064 -0.2484 -0.0628
24350SOL     OW73627   1.695   3.206   2.424  0.3081 -0.1270  0.5784
24350SOL    HW173628   1.702   3.177   2.333  0.6241  1.6087  0.0217
24350SOL    HW273629   1.758   3.152   2.471 -1.2722 -2.4773  0.1872
24351SOL     OW73630   1.154   2.282   4.267  0.0505  0.6374  0.0339
24351SOL    HW173631   1.202   2.323   4.196  1.2638 -0.4313  0.1913
24351SOL    HW273632   1.120   2.355   4.319  0.8246  1.4224 -0.5420
24352SOL     OW73633   9.846   7.241   1.127 -0.1360  0.2701  0.3142
24352SOL    HW173634   9.865   7.164   1.074  0.3762 -0.5063  1.5930
24352SOL    HW273635   9.818   7.307   1.063 -1.7116 -1.2890 -0.7128
24353SOL     OW73636   0.176   3.581   2.817 -0.2663  0.6827 -0.1667
24353SOL    HW173637   0.192   3.499   2.771  0.7577  0.8141 -0.0585
24353SOL    HW273638   0.117   3.557   2.888 -3.4891  0.7938 -2.5801
24354SOL     OW73639   3.967   3.800   2.531 -0.3434 -0.5096 -0.0297
24354SOL    HW173640   3.931   3.746   2.461 -1.3313 -0.7164  0.6187
24354SOL    HW273641   4.007   3.875   2.486  1.9281 -2.1869 -1.0416
24355SOL     OW73642   6.634   9.196   1.918  0.0313 -0.0145 -0.7571
24355SOL    HW173643   6.704   9.163   1.974 -0.3007  1.1460  0.3992
24355SOL    HW273644   6.586   9.258   1.973 -0.2433  1.2687 -2.3405
24356SOL     OW73645   8.606   8.396   1.102 -0.0482  0.2578 -0.2444
24356SOL    HW173646   8.557   8.413   1.021 -0.0517  1.4934 -0.0009
24356SOL    HW273647   8.562   8.451   1.167  0.2986 -0.3145  0.4703
24357SOL     OW73648   1.150   4.970   3.396 -0.3448  0.3875  0.2402
24357SOL    HW173649   1.130   4.961   3.489  0.3381  0.0009  0.3494
24357SOL    HW273650   1.063   4.974   3.354 -0.7000  2.3359  1.0277
24358SOL     OW73651   1.873   5.239   4.998  0.0440 -0.0856  0.5849
24358SOL    HW173652   1.805   5.202   4.942  0.0568  0.3674  0.2560
24358SOL    HW273653   1.825   5.290   5.063  0.0638  0.2102  0.3705
24359SOL     OW73654   9.050   1.483   5.515 -0.0286  0.0610  0.4437
24359SOL    HW173655   9.132   1.443   5.485 -0.9923 -1.6378 -0.0752
24359SOL    HW273656   9.078   1.557   5.569  1.8321 -0.3050  0.0716
24360SOL     OW73657   5.929   0.857   1.183  0.5861 -0.4978 -0.0922
24360SOL    HW173658   5.925   0.804   1.103 -1.6855 -1.3417  0.5047
24360SOL    HW273659   5.896   0.943   1.156  1.6333 -0.1928 -0.4485
24361SOL     OW73660   1.989   8.776   6.221 -0.0266 -0.3509  0.2659
24361SOL    HW173661   1.907   8.750   6.178 -0.8998  0.4093  1.3748
24361SOL    HW273662   1.991   8.724   6.301 -0.5803  1.1622  1.3219
24362SOL     OW73663   8.307   4.412   6.238  0.5584 -0.1836 -0.0283
24362SOL    HW173664   8.371   4.420   6.167 -0.2882 -1.1428 -0.9462
24362SOL    HW273665   8.237   4.473   6.215  1.2663  1.1304  1.1620
24363SOL     OW73666   8.417   7.650   8.443 -0.3491  0.2305 -0.6249
24363SOL    HW173667   8.499   7.636   8.490 -0.7205 -0.1280 -0.0791
24363SOL    HW273668   8.348   7.628   8.506 -0.8977  1.4619 -0.7555
24364SOL     OW73669   1.957   7.170   2.351  0.6231 -0.1368 -0.1165
24364SOL    HW173670   1.919   7.226   2.284  0.4174 -1.2547 -0.9633
24364SOL    HW273671   2.051   7.169   2.332  0.4111 -1.4505 -1.1809
24365SOL     OW73672   4.610   3.893   8.812  0.1607 -0.0259 -0.6395
24365SOL    HW173673   4.691   3.926   8.772  0.8583 -1.4208 -0.4512
24365SOL    HW273674   4.566   3.846   8.741  0.0919 -0.2528 -0.4471
24366SOL     OW73675   7.814   2.324   9.317  0.1630 -0.0680  0.5333
24366SOL    HW173676   7.786   2.401   9.365 -1.4738 -2.0864  3.0904
24366SOL    HW273677   7.733   2.279   9.294  1.0155 -2.8276  2.3870
24367SOL     OW73678   2.138   1.073   4.786  0.3358 -0.1047  1.1387
24367SOL    HW173679   2.136   1.151   4.841  0.7445  1.9379 -1.5384
24367SOL    HW273680   2.069   1.087   4.721  0.6029 -1.8437  0.4096
24368SOL     OW73681   0.898   7.498   8.185  0.0080 -0.1143 -0.1350
24368SOL    HW173682   0.921   7.591   8.179 -0.5330  0.0158 -0.3260
24368SOL    HW273683   0.918   7.463   8.098 -0.4973 -0.0027 -0.2985
24369SOL     OW73684   3.658   8.030   6.096  0.0943 -0.5333  0.1626
24369SOL    HW173685   3.702   8.080   6.027  1.7213 -0.6464  1.0690
24369SOL    HW273686   3.584   8.085   6.122  0.5696  0.3961 -0.3814
24370SOL     OW73687   7.226   5.713   6.853 -0.8372  0.2692  0.2434
24370SOL    HW173688   7.150   5.668   6.889 -0.7259  1.8448  2.6705
24370SOL    HW273689   7.231   5.794   6.903  2.1321  0.4604 -0.2196
24371SOL     OW73690   1.813   4.232   5.119  0.0447  0.1793  0.0701
24371SOL    HW173691   1.846   4.160   5.065 -1.1662 -0.1476 -0.2503
24371SOL    HW273692   1.884   4.250   5.181  1.9592  1.2746 -2.2469
24372SOL     OW73693   0.362   3.453   6.599  0.5964 -0.1562 -0.1874
24372SOL    HW173694   0.279   3.440   6.553  1.5263 -1.2886 -1.6050
24372SOL    HW273695   0.428   3.410   6.545  1.8695 -0.9437  1.8443
24373SOL     OW73696   1.732   5.580   8.228  0.1838 -0.1014  0.3418
24373SOL    HW173697   1.817   5.551   8.261  1.3562  0.1863 -2.1443
24373SOL    HW273698   1.690   5.623   8.303  2.0029 -0.7121  1.7794
24374SOL     OW73699   6.130   8.888   9.782  0.7200 -0.1981  0.0730
24374SOL    HW173700   6.191   8.829   9.826 -0.5571 -0.4929  1.5286
24374SOL    HW273701   6.106   8.953   9.848  0.5911  0.8022 -0.9216
24375SOL     OW73702   4.989   9.025   2.583  0.4696  0.0249 -0.0756
24375SOL    HW173703   4.950   8.963   2.644  0.6700 -0.2982 -0.2698
24375SOL    HW273704   5.054   8.973   2.534 -1.2063 -0.3106 -2.1067
24376SOL     OW73705   7.277   8.964   7.191  0.1604 -0.1095 -0.8105
24376SOL    HW173706   7.197   9.013   7.208 -0.4871 -1.0469 -1.0603
24376SOL    HW273707   7.292   8.974   7.097  1.7599  2.1339 -0.3761
24377SOL     OW73708   6.344   7.703   2.848  0.2646  0.2458 -0.2834
24377SOL    HW173709   6.287   7.779   2.835 -0.5863 -0.6048 -1.6873
24377SOL    HW273710   6.432   7.741   2.858 -0.4496  1.5636  1.7849
24378SOL     OW73711   2.013   3.126   9.009 -0.3462  0.2030 -0.1550
24378SOL    HW173712   2.034   3.147   9.100 -0.1071  0.1239 -0.1921
24378SOL    HW273713   1.919   3.107   9.010 -0.1877 -0.6284  0.2290
24379SOL     OW73714   9.043   0.270   2.571  0.1769 -0.2553  0.5211
24379SOL    HW173715   9.019   0.296   2.660 -1.6812  0.9478 -0.2697
24379SOL    HW273716   8.966   0.224   2.538 -0.2466  1.6210 -1.3218
24380SOL     OW73717   5.982   7.360   6.475 -0.4018 -0.0358  0.3562
24380SOL    HW173718   5.890   7.364   6.502 -0.0774 -1.0814  1.7683
24380SOL    HW273719   5.980   7.348   6.381 -1.6784  1.1082  0.2080
24381SOL     OW73720   4.699   8.935   5.640 -0.1576 -0.2094 -0.3831
24381SOL    HW173721   4.639   9.003   5.610 -0.0922 -0.0030 -0.0515
24381SOL    HW273722   4.698   8.870   5.570 -0.2033  0.1416 -0.7135
24382SOL     OW73723   8.289   5.075   9.405 -0.2003 -0.3325  0.0593
24382SOL    HW173724   8.244   5.002   9.447 -4.4716  0.8176 -2.0136
24382SOL    HW273725   8.299   5.048   9.314 -1.3651  1.3956 -0.6192
24383SOL     OW73726   2.991   8.891   7.370 -0.2371 -0.0374 -0.3620
24383SOL    HW173727   2.938   8.965   7.339  1.1320  0.7545 -0.9094
24383SOL    HW273728   3.019   8.918   7.458 -1.3356 -0.8007  0.2526
24384SOL     OW73729   8.774   2.065   5.314  0.4322  0.2394  0.3613
24384SOL    HW173730   8.746   2.142   5.264 -1.6272  1.4094  3.0949
24384SOL    HW273731   8.833   2.100   5.381  1.7246 -1.0268 -0.0672
24385SOL     OW73732   2.646   3.190   3.330  0.1271 -0.2920 -0.7764
24385SOL    HW173733   2.739   3.174   3.341  0.1193  0.3483  0.3146
24385SOL    HW273734   2.611   3.108   3.295  0.9668 -0.7765 -0.4909
24386SOL     OW73735   6.270   0.985   1.551  0.1597 -0.0332  0.3629
24386SOL    HW173736   6.222   0.954   1.474 -0.5042  2.2625 -0.2492
24386SOL    HW273737   6.231   0.938   1.625  0.0837 -1.5002 -0.5709
24387SOL     OW73738   2.856   0.662   5.088  0.2719  0.3520 -0.3655
24387SOL    HW173739   2.821   0.751   5.075  0.9188  0.5756 -0.6327
24387SOL    HW273740   2.818   0.634   5.172 -0.0253  0.8383 -0.3268
24388SOL     OW73741   7.818   4.922   4.359  0.1045 -0.0712  0.5245
24388SOL    HW173742   7.733   4.880   4.373  0.2083 -0.0500  1.3034
24388SOL    HW273743   7.882   4.850   4.365  0.0280 -0.4579 -2.2162
24389SOL     OW73744   2.868   3.705   6.888  0.3706  0.1734  0.3076
24389SOL    HW173745   2.809   3.734   6.958 -3.5249 -1.3657 -2.0439
24389SOL    HW273746   2.916   3.631   6.926  1.4737  1.8801  2.5037
24390SOL     OW73747   8.528   2.154   4.014 -0.2733  0.0297 -0.5793
24390SOL    HW173748   8.604   2.099   3.997 -1.8971 -2.1407 -1.1993
24390SOL    HW273749   8.539   2.228   3.954 -0.0994 -1.7190 -2.8098
24391SOL     OW73750   0.186   2.308   7.713 -0.0178 -0.0283  0.5166
24391SOL    HW173751   0.256   2.367   7.684  1.3499 -1.0937  1.5164
24391SOL    HW273752   0.113   2.328   7.656  1.0785  1.1850 -0.5275
24392SOL     OW73753   0.571   9.667   3.103  0.1369  0.1925  0.4023
24392SOL    HW173754   0.491   9.708   3.072 -0.2619 -2.0035 -1.7850
24392SOL    HW273755   0.559   9.658   3.198 -1.6163  1.0707  0.2982
24393SOL     OW73756   6.823   9.377   1.156  0.2509 -0.5876 -0.0080
24393SOL    HW173757   6.893   9.367   1.222  2.1464 -0.4817 -1.8920
24393SOL    HW273758   6.825   9.469   1.133  0.4162 -0.8424 -1.0431
24394SOL     OW73759   1.237   9.826   4.864 -0.2279  0.2017 -0.2212
24394SOL    HW173760   1.263   9.753   4.920 -1.7211 -0.6955 -0.6331
24394SOL    HW273761   1.167   9.870   4.912  0.6377  1.3937  0.0117
24395SOL     OW73762   8.940   5.872   6.008 -0.3496  0.3744 -0.9339
24395SOL    HW173763   9.025   5.915   6.000 -0.0520 -0.2204 -0.9897
24395SOL    HW273764   8.927   5.827   5.925 -1.1070  1.1413 -1.2496
24396SOL     OW73765   1.866   2.845   8.819 -0.5496  0.2040  0.0458
24396SOL    HW173766   1.916   2.788   8.759 -1.4530 -0.8954  0.3096
24396SOL    HW273767   1.934   2.892   8.868  0.2153 -0.2154 -0.5698
24397SOL     OW73768   3.155   6.188   5.018 -0.2905  0.1990 -0.2376
24397SOL    HW173769   3.225   6.178   4.954  0.1698  0.6160  0.1964
24397SOL    HW273770   3.099   6.112   5.004  0.1995 -0.0910 -0.6500
24398SOL     OW73771   4.185   0.602   5.761  0.4758  0.1779 -0.7670
24398SOL    HW173772   4.233   0.545   5.822  0.8004  1.8766  0.6364
24398SOL    HW273773   4.098   0.562   5.755  0.5637 -0.2537  0.5103
24399SOL     OW73774   1.914   0.065   3.222  0.1177 -0.0539 -0.4069
24399SOL    HW173775   1.867   0.059   3.306 -0.3653  0.3572 -0.6399
24399SOL    HW273776   1.948   0.155   3.221  0.3624 -0.1491 -0.5229
24400SOL     OW73777   8.779   2.983   5.208  0.1045 -0.3218 -1.0632
24400SOL    HW173778   8.767   3.036   5.129 -0.7499  1.0779 -0.0159
24400SOL    HW273779   8.805   3.045   5.276  0.3805 -1.4414 -0.1052
24401SOL     OW73780   8.192   1.204   6.272 -0.2720 -0.7277 -0.2845
24401SOL    HW173781   8.117   1.263   6.275 -0.3708 -0.9001  0.8059
24401SOL    HW273782   8.239   1.221   6.353  0.6383 -0.9305 -0.7642
24402SOL     OW73783   3.372   7.725   8.316 -0.1027  0.2367 -0.1049
24402SOL    HW173784   3.424   7.649   8.290 -2.1261 -0.8151 -1.2967
24402SOL    HW273785   3.367   7.719   8.412  1.7660  0.2866  0.0355
24403SOL     OW73786   5.742   3.508   3.802 -0.1265 -0.6115  0.1359
24403SOL    HW173787   5.807   3.579   3.808  0.0523 -0.7695  0.0669
24403SOL    HW273788   5.784   3.443   3.745 -0.2711 -0.7966  0.2447
24404SOL     OW73789   0.988   2.490   8.574  0.0589 -0.1694 -0.5652
24404SOL    HW173790   1.041   2.552   8.624 -1.0258  0.0686  0.3177
24404SOL    HW273791   0.898   2.508   8.601 -0.2719 -2.4135  0.0350
24405SOL     OW73792   6.988   8.415   9.010 -0.0745  0.1814 -0.1785
24405SOL    HW173793   6.937   8.362   8.948 -1.2848  0.4084  0.5923
24405SOL    HW273794   7.021   8.352   9.074  0.7132  0.0203 -0.7324
24406SOL     OW73795   7.038   7.956   0.742  0.4434 -0.3016  0.1353
24406SOL    HW173796   6.990   8.027   0.699  0.8585  0.7963  1.3836
24406SOL    HW273797   7.124   7.995   0.762  1.7753 -2.0872 -1.7008
24407SOL     OW73798   4.991   4.657   6.431 -0.4487 -0.0103  0.2172
24407SOL    HW173799   5.065   4.700   6.475 -1.4714  0.2842  1.7138
24407SOL    HW273800   4.924   4.725   6.425  0.4298  0.7997 -4.1906
24408SOL     OW73801   4.462   6.030   3.062 -0.4135  0.4811  0.1476
24408SOL    HW173802   4.373   6.059   3.084  0.3163  2.5616  0.5873
24408SOL    HW273803   4.482   6.074   2.980  0.4854  0.6647  0.4577
24409SOL     OW73804   3.852   2.688   7.914 -0.6800 -0.0238  0.1062
24409SOL    HW173805   3.889   2.603   7.891  1.9076  0.8674  0.6558
24409SOL    HW273806   3.901   2.716   7.991 -2.1168  1.5892  0.5041
24410SOL     OW73807   5.022   3.690   2.755 -0.0073 -0.2970 -0.7542
24410SOL    HW173808   4.994   3.608   2.796  1.4801 -0.8864 -0.8361
24410SOL    HW273809   5.086   3.663   2.689  2.5308  1.0431  0.9688
24411SOL     OW73810   1.704   7.516   7.651  0.2434  0.0530  0.2551
24411SOL    HW173811   1.618   7.527   7.612  0.4467  0.9954  0.0470
24411SOL    HW273812   1.716   7.594   7.704 -0.7323 -1.8900  3.6536
24412SOL     OW73813   6.202   2.312   2.785 -0.1627  0.0898  0.5044
24412SOL    HW173814   6.222   2.382   2.848  0.5052  1.5880 -1.2897
24412SOL    HW273815   6.274   2.315   2.722 -1.5516 -0.3302 -1.1861
24413SOL     OW73816   3.814   5.186   6.067  0.2294  0.0407 -0.3308
24413SOL    HW173817   3.725   5.159   6.088  0.8661 -0.4324  2.0588
24413SOL    HW273818   3.810   5.281   6.062 -0.4125  0.0198 -0.3103
24414SOL     OW73819   2.377   2.418   2.146  0.1812  0.2260  0.4503
24414SOL    HW173820   2.292   2.399   2.107  0.3882  0.1754  0.0227
24414SOL    HW273821   2.356   2.472   2.222 -0.2823 -0.3448  0.7361
24415SOL     OW73822   7.174   9.380   1.508  0.2714 -0.7722 -0.3134
24415SOL    HW173823   7.204   9.354   1.595 -2.5467 -0.8459  0.7610
24415SOL    HW273824   7.172   9.476   1.512 -0.6248 -0.7900  0.0529
24416SOL     OW73825   0.567   0.619   8.648 -0.0734 -0.7440 -0.4550
24416SOL    HW173826   0.568   0.524   8.651  0.0691 -0.7321  0.1572
24416SOL    HW273827   0.581   0.646   8.739 -0.8139 -0.1438 -0.5052
24417SOL     OW73828   1.806   8.510   6.584  0.3264 -0.2165 -0.2869
24417SOL    HW173829   1.879   8.468   6.629  0.4945  0.5337  0.1560
24417SOL    HW273830   1.729   8.483   6.634  0.3034 -0.8902 -0.6695
24418SOL     OW73831   7.234   4.312   6.714  0.8263  0.3371 -0.5151
24418SOL    HW173832   7.307   4.357   6.671  0.2164  1.2276 -0.6544
24418SOL    HW273833   7.201   4.376   6.778  0.1111 -0.0222 -0.5158
24419SOL     OW73834   6.033   0.263   8.112  0.1956 -0.0292  0.3786
24419SOL    HW173835   6.036   0.347   8.156 -0.7843  0.2164  0.0029
24419SOL    HW273836   5.982   0.279   8.032  2.1316 -0.4040 -1.0003
24420SOL     OW73837   5.117   3.501   1.816  0.1359 -0.0688  0.4293
24420SOL    HW173838   5.061   3.503   1.738 -1.1238 -0.3784  1.2993
24420SOL    HW273839   5.199   3.540   1.786 -0.3694 -0.0132 -1.0095
24421SOL     OW73840   9.742   3.851   1.597  0.1058 -0.4250  0.3597
24421SOL    HW173841   9.720   3.824   1.507  0.2251 -1.1026  0.5259
24421SOL    HW273842   9.664   3.896   1.629 -1.1954 -2.9546  1.0156
24422SOL     OW73843   8.131   0.939   7.325  0.3668 -0.0338  0.1679
24422SOL    HW173844   8.057   0.954   7.383  0.7939  1.7892  0.3146
24422SOL    HW273845   8.099   0.959   7.237  0.1213 -1.3585 -0.0638
24423SOL     OW73846   1.993   8.758   2.290  0.1316 -0.1725  0.0789
24423SOL    HW173847   1.915   8.811   2.268 -0.5008 -0.9939  0.3075
24423SOL    HW273848   1.961   8.694   2.353  1.4472  0.7438  1.7621
24424SOL     OW73849   8.344   7.157   4.168 -0.4637 -0.6318 -0.2279
24424SOL    HW173850   8.356   7.134   4.076  0.0119 -0.1688 -0.2876
24424SOL    HW273851   8.429   7.142   4.208 -0.1262  0.9384 -0.2703
24425SOL     OW73852   9.516   6.778   6.346 -0.7600 -0.1881 -0.3214
24425SOL    HW173853   9.530   6.833   6.423  2.4038  1.0881 -1.6662
24425SOL    HW273854   9.438   6.815   6.304 -0.1736  1.7097  0.1515
24426SOL     OW73855   3.792   9.760   4.459 -0.3911 -0.1578 -0.2401
24426SOL    HW173856   3.753   9.796   4.379  0.6518  2.3698  0.3024
24426SOL    HW273857   3.829   9.677   4.432  0.4329  0.8741 -2.5609
24427SOL     OW73858   4.712   3.487   3.422 -0.1504  0.0983  0.2441
24427SOL    HW173859   4.781   3.488   3.489 -1.2641  0.5011  1.4059
24427SOL    HW273860   4.655   3.415   3.448 -0.4480  0.0840 -0.4334
24428SOL     OW73861   2.130   9.728   8.352  0.6727  0.4279 -0.5026
24428SOL    HW173862   2.058   9.713   8.290 -0.6613  1.6155  0.6809
24428SOL    HW273863   2.150   9.641   8.387 -0.7430  0.1443 -0.3057
24429SOL     OW73864   2.318   8.547   2.501 -0.1906 -0.3844  0.2669
24429SOL    HW173865   2.315   8.628   2.449 -1.0181 -0.1127  0.7295
24429SOL    HW273866   2.389   8.497   2.461  0.2369  0.4987 -0.1297
24430SOL     OW73867   2.818   3.427   7.493  0.1651 -0.1534 -0.0584
24430SOL    HW173868   2.778   3.392   7.573 -0.0478 -2.5223 -1.1253
24430SOL    HW273869   2.785   3.516   7.486 -1.2944 -0.5350  1.5069
24431SOL     OW73870   9.040   5.276   9.922 -0.8815 -0.1611 -0.0265
24431SOL    HW173871   9.055   5.321  10.005  1.3846 -1.4733  0.3697
24431SOL    HW273872   8.997   5.194   9.947 -2.7014  0.6169 -0.4782
24432SOL     OW73873   3.757   8.938   3.462 -0.6026 -0.1321  0.1521
24432SOL    HW173874   3.722   8.897   3.542  1.2534  1.9213  2.1767
24432SOL    HW273875   3.792   8.864   3.412  1.2733 -1.3187  2.9129
24433SOL     OW73876   2.301   4.640   2.521 -0.3390 -0.0900  0.2828
24433SOL    HW173877   2.263   4.585   2.452  0.4648 -1.2240  0.7249
24433SOL    HW273878   2.226   4.662   2.577 -0.6583 -0.8280  0.1590
24434SOL     OW73879   4.062   8.454   5.939  0.3493 -0.0161 -0.1678
24434SOL    HW173880   4.024   8.538   5.913 -0.6846 -0.1307  0.9139
24434SOL    HW273881   4.129   8.437   5.872  0.3505  1.4905 -0.5924
24435SOL     OW73882   4.616   3.630   5.586  0.3430 -0.0322 -0.5279
24435SOL    HW173883   4.576   3.636   5.499  2.0120  0.1810 -1.3221
24435SOL    HW273884   4.695   3.578   5.573 -0.3679 -1.6495  1.2706
24436SOL     OW73885   2.550   3.561   9.398  0.2101 -0.0444  0.1596
24436SOL    HW173886   2.577   3.595   9.313  1.9609  1.6380  1.2924
24436SOL    HW273887   2.499   3.632   9.437 -1.3231 -1.1256  0.2447
24437SOL     OW73888   0.484   7.361   2.549 -0.5574 -0.0728 -0.2084
24437SOL    HW173889   0.563   7.311   2.529 -1.7220 -1.8117 -0.7264
24437SOL    HW273890   0.486   7.435   2.488 -0.1534 -1.0271 -1.3935
24438SOL     OW73891   9.216   1.387   3.713  0.2711 -0.7545  0.1562
24438SOL    HW173892   9.133   1.368   3.758 -0.2920 -1.2868 -1.0459
24438SOL    HW273893   9.276   1.320   3.744 -1.1429 -3.5170 -2.5344
24439SOL     OW73894   0.125   0.629   2.301  0.5653  0.2674 -0.0907
24439SOL    HW173895   0.075   0.581   2.366 -1.0906 -0.3585 -1.7371
24439SOL    HW273896   0.091   0.598   2.217  2.4884  1.1622 -1.2685
24440SOL     OW73897   7.956   8.760   8.860  0.2580  0.2626 -0.5948
24440SOL    HW173898   7.894   8.826   8.829 -0.0211 -0.4137 -1.5315
24440SOL    HW273899   7.932   8.744   8.951 -1.3434 -0.4282 -1.1122
24441SOL     OW73900   0.452   8.193   6.722  0.0946 -0.4584  0.5925
24441SOL    HW173901   0.442   8.285   6.746 -0.6398 -0.5086  0.4880
24441SOL    HW273902   0.363   8.159   6.719  0.4426 -1.6998  2.6739
24442SOL     OW73903   7.401   2.908   8.690  0.0076 -0.0932 -0.0599
24442SOL    HW173904   7.456   2.833   8.668 -1.2298 -0.9227 -0.4419
24442SOL    HW273905   7.406   2.966   8.614  0.8181  0.1291  0.1576
24443SOL     OW73906   0.598   2.893   2.943 -0.1940  0.5227 -0.5676
24443SOL    HW173907   0.527   2.877   3.005  1.6041  3.0135  2.4465
24443SOL    HW273908   0.555   2.929   2.866 -2.4781 -1.8830 -0.5379
24444SOL     OW73909   4.688   1.757   9.145  0.2083  0.0588 -0.2796
24444SOL    HW173910   4.717   1.705   9.071 -0.1350  0.3595 -0.6285
24444SOL    HW273911   4.769   1.787   9.187  0.4410 -1.5725  0.5320
24445SOL     OW73912   8.237   0.885   9.421  0.1803 -0.3387  0.0653
24445SOL    HW173913   8.273   0.957   9.368 -0.5360  0.2902  0.4089
24445SOL    HW273914   8.202   0.929   9.499  1.3601 -1.2517  1.1620
24446SOL     OW73915   6.586   9.813   7.279 -0.0113  0.0868 -0.3861
24446SOL    HW173916   6.592   9.815   7.374  0.6441 -0.1723 -0.4191
24446SOL    HW273917   6.664   9.766   7.250 -0.7944 -0.9002 -0.9887
24447SOL     OW73918   8.887   0.979   7.012 -0.8991  0.3136 -0.4779
24447SOL    HW173919   8.926   1.030   6.941  0.4482 -0.5342 -0.3948
24447SOL    HW273920   8.865   1.043   7.079 -0.5950  0.9388 -0.9682
24448SOL     OW73921   5.260   0.307   2.559 -0.4593 -0.2595  0.2178
24448SOL    HW173922   5.164   0.301   2.556 -0.3986 -2.3101  0.7221
24448SOL    HW273923   5.290   0.225   2.519  1.0946  0.2240  0.3186
24449SOL     OW73924   2.955   0.579   8.706  0.8906  0.2848  0.4063
24449SOL    HW173925   2.965   0.486   8.723 -0.5525 -1.0300 -4.2741
24449SOL    HW273926   3.042   0.609   8.680  1.2316  0.1183  1.3366
24450SOL     OW73927   0.372   8.760   0.755  0.2244 -0.0976 -0.5331
24450SOL    HW173928   0.386   8.796   0.843 -0.4151 -2.7234  0.7536
24450SOL    HW273929   0.439   8.692   0.746  0.6843  0.5425 -2.3916
24451SOL     OW73930   9.924   4.600   0.712 -0.1881 -0.1938 -0.1261
24451SOL    HW173931   9.964   4.513   0.709  1.9128  0.7036  0.4252
24451SOL    HW273932   9.945   4.633   0.800 -2.3532  0.2709  0.2698
24452SOL     OW73933   8.684   8.732   9.932  0.5653 -0.2516 -0.4820
24452SOL    HW173934   8.652   8.715  10.021 -1.0373 -2.2627 -1.3537
24452SOL    HW273935   8.771   8.770   9.945  0.4970 -0.7447  1.9406
24453SOL     OW73936   9.360   0.738   2.455  0.3488  0.3967  0.4543
24453SOL    HW173937   9.382   0.824   2.418  0.1386  0.0490 -0.5052
24453SOL    HW273938   9.400   0.739   2.542  0.4848  1.4071  0.4004
24454SOL     OW73939   7.824   8.720   9.090  0.1532 -0.0731 -0.4554
24454SOL    HW173940   7.854   8.640   9.135  1.6386  0.9689  0.5003
24454SOL    HW273941   7.751   8.751   9.144  1.9018  1.1548  1.3553
24455SOL     OW73942   2.507   2.498   0.425 -0.1419 -0.1613 -0.4892
24455SOL    HW173943   2.598   2.522   0.441 -0.5079 -0.0543  1.7166
24455SOL    HW273944   2.477   2.560   0.358  0.5382  1.9147  1.0226
24456SOL     OW73945   4.114   8.959   7.043 -0.4540  0.1212  0.2109
24456SOL    HW173946   4.102   9.051   7.067 -0.5264 -0.2047  1.5059
24456SOL    HW273947   4.176   8.925   7.107  1.4443 -0.1835 -1.6859
24457SOL     OW73948   7.927   5.475   8.672 -0.0804 -0.1373  0.0851
24457SOL    HW173949   7.947   5.510   8.759  1.7599 -0.6191 -0.1034
24457SOL    HW273950   7.984   5.399   8.663 -0.8749 -0.6099 -1.2129
24458SOL     OW73951   0.376   7.261   1.601 -0.1379  0.4652  0.0998
24458SOL    HW173952   0.457   7.212   1.610  0.6017  1.4720 -0.8213
24458SOL    HW273953   0.321   7.231   1.673  2.0135  1.6510  2.3811
24459SOL     OW73954   7.363   6.649   4.490 -0.3252 -0.4287 -0.0957
24459SOL    HW173955   7.367   6.662   4.585 -1.0335 -0.3829 -0.0663
24459SOL    HW273956   7.389   6.558   4.477  2.9693  0.4148 -0.1531
24460SOL     OW73957   6.670   0.516   7.646 -0.5532 -0.1683  0.2336
24460SOL    HW173958   6.701   0.545   7.732  1.3881 -0.7665 -0.2061
24460SOL    HW273959   6.586   0.474   7.663 -0.6688  0.5959  1.6870
24461SOL     OW73960   7.166   9.281   6.664  0.6636 -0.6070 -0.0239
24461SOL    HW173961   7.073   9.276   6.686  0.7941 -0.8921  0.4866
24461SOL    HW273962   7.187   9.194   6.629  0.1573  0.2008 -2.6134
24462SOL     OW73963   8.511   4.660   6.020  0.1056 -0.6962 -0.0111
24462SOL    HW173964   8.494   4.657   5.926 -1.4298  0.3012  0.2110
24462SOL    HW273965   8.494   4.570   6.050 -1.6544 -0.5211 -0.3551
24463SOL     OW73966   7.187   4.506   5.372  0.2014 -0.5427 -0.6384
24463SOL    HW173967   7.230   4.437   5.424 -2.9343  0.7771  4.3800
24463SOL    HW273968   7.102   4.468   5.348  0.5659 -0.1677 -2.6694
24464SOL     OW73969   6.931   0.742   2.834 -0.3365 -0.1891  0.4049
24464SOL    HW173970   6.997   0.705   2.894  0.2606  0.3236  0.0801
24464SOL    HW273971   6.860   0.679   2.835 -0.0533 -0.5107  1.1564
24465SOL     OW73972   8.173   9.502   5.818 -0.5596 -0.0000  0.2060
24465SOL    HW173973   8.169   9.484   5.912 -2.1001  0.6704  0.3050
24465SOL    HW273974   8.266   9.505   5.797 -0.1713  0.8541  1.9200
24466SOL     OW73975   3.592   6.807   0.615  0.5865  0.4105  0.1174
24466SOL    HW173976   3.519   6.808   0.677  2.1021  0.7974  1.9856
24466SOL    HW273977   3.650   6.738   0.647  1.1319  0.1990 -1.2465
24467SOL     OW73978   4.564   2.668   8.700 -0.3474 -0.7643  0.0434
24467SOL    HW173979   4.631   2.638   8.639 -0.4442  1.2007 -1.0913
24467SOL    HW273980   4.613   2.689   8.780  0.3639  0.2431 -0.6339
24468SOL     OW73981   8.230   8.332   7.593 -0.1285 -0.6361 -0.4453
24468SOL    HW173982   8.189   8.410   7.554 -0.9859 -0.7408  0.2160
24468SOL    HW273983   8.156   8.279   7.622  0.4409 -1.9198 -1.2832
24469SOL     OW73984   7.301   8.451   1.550  0.2933  0.7520 -0.1617
24469SOL    HW173985   7.296   8.492   1.637 -0.4509  2.1651 -0.8425
24469SOL    HW273986   7.343   8.517   1.495  3.5163 -1.2295 -0.2914
24470SOL     OW73987   2.508   1.909   1.143  0.0445  0.7818 -0.0783
24470SOL    HW173988   2.490   1.998   1.113  0.6681  0.2765 -2.1109
24470SOL    HW273989   2.600   1.895   1.120 -0.1852 -0.5364 -0.2434
24471SOL     OW73990   9.990   7.026   9.780 -0.4214  0.2045 -0.3537
24471SOL    HW173991   9.973   7.094   9.714 -0.0230  0.5610 -0.0937
24471SOL    HW273992   9.917   6.965   9.770 -1.1631  1.0270 -0.1295
24472SOL     OW73993   3.615   4.902   9.551  0.0802 -0.6314 -0.1653
24472SOL    HW173994   3.670   4.937   9.621  0.1756 -0.2200 -0.4437
24472SOL    HW273995   3.582   4.819   9.586  0.5974 -0.7155  0.1378
24473SOL     OW73996   6.579   4.673   5.930  0.4158  0.5760 -0.2301
24473SOL    HW173997   6.621   4.756   5.951  0.8690  0.3171 -0.0790
24473SOL    HW273998   6.528   4.690   5.851  0.3485  1.0447 -0.0862
24474SOL     OW73999   8.008   8.688   1.851 -0.3657  0.1956  0.2372
24474SOL    HW174000   8.099   8.687   1.881 -0.0136 -1.6681 -0.7324
24474SOL    HW274001   7.958   8.655   1.926 -0.2035  0.8137  0.6251
24475SOL     OW74002   0.220   6.759   3.331 -0.3540  0.9203  0.0484
24475SOL    HW174003   0.254   6.776   3.243  0.3257  1.5414  0.4135
24475SOL    HW274004   0.183   6.671   3.327 -2.1684  1.6909 -1.3992
24476SOL     OW74005   7.377   4.605   8.488 -0.4237  0.6808  0.4025
24476SOL    HW174006   7.287   4.587   8.461  0.0446 -0.4642 -0.4614
24476SOL    HW274007   7.385   4.560   8.572 -0.1576 -0.6984 -0.3387
24477SOL     OW74008   3.367   4.895   5.649 -0.0146 -0.5324 -0.1801
24477SOL    HW174009   3.393   4.987   5.649 -0.9267 -0.2402 -1.4200
24477SOL    HW274010   3.441   4.849   5.687  1.0996  0.5555 -0.9586
24478SOL     OW74011   2.087   7.279   6.072  0.3007  0.0823  0.2683
24478SOL    HW174012   2.108   7.273   5.979  0.3690  1.5599  0.1688
24478SOL    HW274013   2.054   7.368   6.084 -0.1625 -0.2360  1.5729
24479SOL     OW74014   3.916   3.629   0.173  0.5056  0.0924  0.2468
24479SOL    HW174015   3.897   3.614   0.266 -1.4705  0.5550 -0.0474
24479SOL    HW274016   3.877   3.715   0.154 -0.8576 -0.8316 -1.4526
24480SOL     OW74017   0.919   7.780   6.083  0.8025 -0.2342 -0.5251
24480SOL    HW174018   0.906   7.850   6.019  2.7188  1.9647  1.2981
24480SOL    HW274019   0.844   7.786   6.141  0.7018 -0.0343 -0.6762
24481SOL     OW74020   4.703   6.945   5.510 -0.4795  0.2744  0.1177
24481SOL    HW174021   4.683   6.904   5.594  0.3958  0.0603  0.2220
24481SOL    HW274022   4.737   6.874   5.455 -0.2766  0.5787 -0.1562
24482SOL     OW74023   7.261   5.067   1.209 -0.4316 -0.1075 -0.6766
24482SOL    HW174024   7.237   5.105   1.124 -2.0365  1.2739  0.3158
24482SOL    HW274025   7.180   5.067   1.259  0.4371 -1.0547  0.8177
24483SOL     OW74026   8.975   4.496   1.517 -0.6024  0.6492  0.0983
24483SOL    HW174027   8.960   4.561   1.448  0.9412 -1.1280 -2.0678
24483SOL    HW274028   9.062   4.461   1.497  0.1677  0.4277  3.3433
24484SOL     OW74029   0.669   8.857   6.097  0.1231  0.3798  0.2685
24484SOL    HW174030   0.610   8.890   6.164 -0.8427  1.5091 -1.0811
24484SOL    HW274031   0.693   8.769   6.127  0.9846  1.4103  2.8490
24485SOL     OW74032   8.884   0.921   3.962 -0.9285 -0.6317  0.3849
24485SOL    HW174033   8.940   0.908   4.039 -0.5630  0.0105  0.2381
24485SOL    HW274034   8.864   0.833   3.932  4.0281 -1.1813 -2.4578
24486SOL     OW74035   8.149   4.405   0.555 -0.0870  0.3411  0.2351
24486SOL    HW174036   8.226   4.436   0.602  0.4433 -0.8384  0.1791
24486SOL    HW274037   8.078   4.410   0.619  0.3117  0.1986  0.6887
24487SOL     OW74038   4.466   9.242   5.770  0.3368 -0.1881 -0.2176
24487SOL    HW174039   4.496   9.259   5.859 -1.6333  0.6391  0.3383
24487SOL    HW274040   4.487   9.321   5.721 -0.4248  0.1905  0.0487
24488SOL     OW74041   6.855   1.850   9.135  0.6190 -0.2223  0.0309
24488SOL    HW174042   6.806   1.770   9.119  1.0861 -0.6810  0.7834
24488SOL    HW274043   6.895   1.836   9.222  3.2495 -0.5067 -1.1137
24489SOL     OW74044   2.514   8.054   0.441 -0.4688 -0.3056  0.3775
24489SOL    HW174045   2.534   8.138   0.483  1.3022  0.2194 -1.3604
24489SOL    HW274046   2.453   8.078   0.371  1.8740  0.0391 -1.6815
24490SOL     OW74047   5.021   3.219   1.296  0.0893  0.4407  0.6880
24490SOL    HW174048   5.031   3.160   1.221 -0.0949  0.4456  0.6605
24490SOL    HW274049   4.928   3.216   1.316 -0.0580  1.3598  0.1721
24491SOL     OW74050   5.476   4.676   4.490  0.4502 -0.0185 -0.0749
24491SOL    HW174051   5.528   4.633   4.559 -0.7939 -0.4807  0.6181
24491SOL    HW274052   5.388   4.681   4.527  0.0234  0.8573 -1.1684
24492SOL     OW74053   8.482   1.832   3.909 -0.3277  0.1774 -0.9040
24492SOL    HW174054   8.498   1.926   3.898 -0.7864  0.3287 -0.3049
24492SOL    HW274055   8.411   1.827   3.973 -0.5871 -0.5692 -1.2434
24493SOL     OW74056   6.950   3.088   1.811 -0.2483  0.4210 -0.0151
24493SOL    HW174057   6.934   3.164   1.755  1.3092 -0.2368 -1.4470
24493SOL    HW274058   7.016   3.037   1.764 -0.1068 -1.0354  1.6496
24494SOL     OW74059   7.971   4.475   0.734  0.3364 -0.0206  0.2458
24494SOL    HW174060   7.901   4.527   0.696 -1.2856 -1.9479  0.4037
24494SOL    HW274061   7.927   4.397   0.769  2.4696 -0.9618  1.0264
24495SOL     OW74062   9.842   6.314   0.990 -0.2781  0.1865  0.2087
24495SOL    HW174063   9.822   6.276   1.076  0.6178 -1.4645 -0.2738
24495SOL    HW274064   9.892   6.393   1.011 -2.2036  1.2245  1.2350
24496SOL     OW74065   3.395   0.587   4.522 -0.4174  0.5337  0.2277
24496SOL    HW174066   3.445   0.627   4.451 -0.4638 -1.9665 -1.3172
24496SOL    HW274067   3.446   0.509   4.546 -1.7572 -0.1047  1.1328
24497SOL     OW74068   5.897   8.206   2.559 -0.4089  0.0930 -0.5855
24497SOL    HW174069   5.940   8.286   2.588  1.1289 -1.2006  1.0005
24497SOL    HW274070   5.829   8.190   2.624 -2.2179  1.2168 -2.1279
24498SOL     OW74071   4.303   6.103   9.372  0.5088  0.4302  0.1831
24498SOL    HW174072   4.218   6.070   9.400  1.7265 -0.9683  2.6004
24498SOL    HW274073   4.287   6.195   9.350 -1.7726 -0.0473 -0.4077
24499SOL     OW74074   7.456   7.047   9.450  0.1314  0.0835 -0.8937
24499SOL    HW174075   7.499   6.961   9.454 -0.2878 -0.0835  0.3369
24499SOL    HW274076   7.363   7.028   9.459  0.0350  0.6708 -0.6174
24500SOL     OW74077   1.846   3.353   9.144  0.7796 -0.1309  0.2252
24500SOL    HW174078   1.786   3.347   9.218  0.8586  1.2898  0.4280
24500SOL    HW274079   1.826   3.276   9.091  1.3242 -1.6856  2.1443
24501SOL     OW74080   4.743   8.906   9.331 -0.1188 -0.0361  0.1999
24501SOL    HW174081   4.673   8.950   9.284  1.0640 -0.7414 -2.4042
24501SOL    HW274082   4.706   8.821   9.356 -0.1304 -0.5658 -1.5015
24502SOL     OW74083   5.272   7.021   9.961  0.5249 -0.8040  0.2517
24502SOL    HW174084   5.315   7.084  10.019 -0.9841 -0.9297  1.5691
24502SOL    HW274085   5.342   6.986   9.907  1.8374 -0.0270  1.4044
24503SOL     OW74086   0.243   6.702   3.035 -0.1212  0.2911 -0.1258
24503SOL    HW174087   0.178   6.643   3.072  0.7483 -0.9435 -0.4899
24503SOL    HW274088   0.264   6.664   2.950 -0.1254  1.5933 -0.7275
24504SOL     OW74089   4.515   8.578   8.740 -0.6872  0.1583  0.2631
24504SOL    HW174090   4.584   8.626   8.785  0.4533 -0.5917 -0.6336
24504SOL    HW274091   4.495   8.631   8.663 -0.0514 -0.3388 -0.2566
24505SOL     OW74092   3.023   5.188   8.730 -0.1568 -0.4408 -0.1125
24505SOL    HW174093   2.993   5.112   8.779 -0.4958  0.5769  1.3230
24505SOL    HW274094   3.035   5.257   8.796  0.1986  0.7416 -1.3454
24506SOL     OW74095   3.101   1.961   6.444 -0.0570 -0.5094  0.5189
24506SOL    HW174096   3.184   1.948   6.490  0.7051  0.9134 -0.3537
24506SOL    HW274097   3.127   1.979   6.353 -1.3002  0.1245  0.2678
24507SOL     OW74098   1.540   5.285   1.854  0.0832  0.0392  0.3815
24507SOL    HW174099   1.601   5.258   1.921  0.1378 -0.2192  0.2286
24507SOL    HW274100   1.534   5.380   1.864 -0.2129 -0.0409  1.0060
24508SOL     OW74101   4.017   9.249   2.628  0.2198  0.4215  0.0694
24508SOL    HW174102   3.972   9.188   2.686  0.5917  0.9055  0.8781
24508SOL    HW274103   3.957   9.322   2.618 -0.5261 -0.3484 -1.4618
24509SOL     OW74104   7.177   5.651   5.304  0.6923  0.6593  0.1647
24509SOL    HW174105   7.127   5.571   5.283  0.1183  0.9898  0.2599
24509SOL    HW274106   7.194   5.691   5.218  0.5140  0.7107  0.1524
24510SOL     OW74107   3.215   7.847   8.676  0.0689  0.2608 -0.4366
24510SOL    HW174108   3.261   7.920   8.717  1.3174  0.1147 -1.5223
24510SOL    HW274109   3.285   7.788   8.647 -0.8496 -0.4531 -1.2497
24511SOL     OW74110   4.588   8.583   1.036  0.1657  0.0289 -0.5793
24511SOL    HW174111   4.553   8.643   0.969 -0.6192  1.8918  1.3818
24511SOL    HW274112   4.516   8.524   1.055 -1.4173  2.5452  1.9537
24512SOL     OW74113   9.953   7.677   2.301  0.5324 -0.1007  0.4173
24512SOL    HW174114   9.881   7.620   2.329  1.1738  0.1446  2.7485
24512SOL    HW274115   9.947   7.754   2.358  1.3515  0.9168 -0.8152
24513SOL     OW74116   3.184   1.242   0.578  0.8015 -0.1387  0.0342
24513SOL    HW174117   3.278   1.251   0.564  0.2940  3.7962 -2.5104
24513SOL    HW274118   3.155   1.184   0.507  1.1395 -0.0427 -0.1873
24514SOL     OW74119   3.875   6.513   8.182 -0.3958  0.7137 -0.4206
24514SOL    HW174120   3.803   6.451   8.177 -0.0658  0.2601  0.2950
24514SOL    HW274121   3.917   6.495   8.266  1.5124 -0.0839 -1.4833
24515SOL     OW74122   0.126   3.726   1.733  0.0124  0.1322 -0.3879
24515SOL    HW174123   0.216   3.752   1.716  0.0614  0.9242  0.9098
24515SOL    HW274124   0.075   3.806   1.725 -1.1755 -0.8135 -4.3210
24516SOL     OW74125   6.209   6.711   9.203  0.3426 -0.3841 -0.0436
24516SOL    HW174126   6.223   6.721   9.109  0.8685  2.4912  0.2556
24516SOL    HW274127   6.115   6.726   9.214  0.3664 -0.2399 -0.0432
24517SOL     OW74128   5.087   5.929   5.470 -0.4532 -0.3391  0.4787
24517SOL    HW174129   5.089   5.842   5.430 -0.3762  0.0573 -0.4063
24517SOL    HW274130   5.157   5.928   5.534  1.1596 -0.1616 -1.2028
24518SOL     OW74131   0.617   0.783   2.039 -0.1257  0.4899 -0.4144
24518SOL    HW174132   0.712   0.792   2.044 -0.2091  1.2335 -0.0781
24518SOL    HW274133   0.603   0.702   1.990  0.6856  0.1018 -0.0248
24519SOL     OW74134   0.405   6.237   4.649 -0.1501  0.0428  0.1191
24519SOL    HW174135   0.360   6.320   4.665 -0.5834 -0.4736  1.7706
24519SOL    HW274136   0.393   6.187   4.730  2.1325 -0.7097  0.0584
24520SOL     OW74137   1.865   1.559   5.267  0.0350  0.1928 -0.3109
24520SOL    HW174138   1.874   1.637   5.212  1.6536  0.0578 -0.2762
24520SOL    HW274139   1.824   1.591   5.347 -0.4727  0.7742 -0.7931
24521SOL     OW74140   8.577   0.922   7.777 -0.2586 -0.2652  0.0746
24521SOL    HW174141   8.551   0.830   7.766 -0.5719 -0.0992 -0.5386
24521SOL    HW274142   8.520   0.955   7.846 -0.7328 -0.2897 -0.3056
24522SOL     OW74143   8.369   7.947   9.541 -0.3049  0.0202  0.1305
24522SOL    HW174144   8.377   8.041   9.555 -0.2216 -0.0846  0.8692
24522SOL    HW274145   8.412   7.930   9.458 -1.9373  0.8858 -0.9431
24523SOL     OW74146   2.304   4.561   6.900 -0.1549  0.0507  0.6158
24523SOL    HW174147   2.313   4.471   6.868 -2.0415 -0.3925  1.2380
24523SOL    HW274148   2.260   4.607   6.828 -1.5814 -0.2004  1.2842
24524SOL     OW74149   7.485   3.829   0.054 -0.5875  1.0900  0.5946
24524SOL    HW174150   7.578   3.834   0.033 -0.5908 -0.4403  0.0750
24524SOL    HW274151   7.483   3.789   0.141 -0.7735 -0.6394 -0.1686
24525SOL     OW74152   7.257   7.140   2.142 -0.7256  0.2618 -0.2563
24525SOL    HW174153   7.163   7.146   2.158 -0.9156 -0.2523 -1.1064
24525SOL    HW274154   7.265   7.079   2.069  0.2012  1.1382 -0.9146
24526SOL     OW74155   0.293   1.252   3.854 -0.6931  0.1025 -0.1611
24526SOL    HW174156   0.378   1.225   3.889 -2.1678 -1.2570  2.7327
24526SOL    HW274157   0.243   1.170   3.847 -1.6798  0.8249 -2.1726
24527SOL     OW74158   5.817   5.826   8.298  0.3616  0.3159  0.4063
24527SOL    HW174159   5.878   5.762   8.264  0.7767 -0.2686  2.1628
24527SOL    HW274160   5.744   5.774   8.333  0.4537  0.8033  1.3621
24528SOL     OW74161   7.136   4.318   3.721  0.3168 -0.0031  0.3198
24528SOL    HW174162   7.052   4.322   3.765  0.6802  1.0451  0.9491
24528SOL    HW274163   7.147   4.404   3.680  0.8333 -0.3170 -0.2327
24529SOL     OW74164   9.413   6.395   8.745  0.5220  0.0962  0.2586
24529SOL    HW174165   9.351   6.393   8.672 -0.4097  2.5013  0.9022
24529SOL    HW274166   9.496   6.419   8.703 -0.0080  1.4796 -0.0696
24530SOL     OW74167   6.626   8.025   3.722  0.1835 -0.4223 -0.5722
24530SOL    HW174168   6.625   7.932   3.742  0.3685 -0.6981 -1.7870
24530SOL    HW274169   6.719   8.048   3.717  0.1479 -0.0064  0.3853
24531SOL     OW74170   1.117   1.848   9.084 -0.0637 -0.0664 -0.1529
24531SOL    HW174171   1.061   1.872   9.157  1.0414 -0.0452  0.7273
24531SOL    HW274172   1.114   1.752   9.082 -0.1323 -0.0657 -0.0937
24532SOL     OW74173   9.452   1.708   6.516  0.3409 -0.3143  0.0434
24532SOL    HW174174   9.537   1.712   6.473  0.0366  0.1118 -0.5340
24532SOL    HW274175   9.466   1.652   6.592  0.7308 -1.6447 -0.9645
24533SOL     OW74176   5.271   5.071   0.482  0.2480  0.0368  0.5967
24533SOL    HW174177   5.339   5.134   0.458  0.2540  0.1520  0.9228
24533SOL    HW274178   5.319   4.994   0.512  0.2920 -0.7871 -1.3893
24534SOL     OW74179   0.308   2.152   3.460  0.5392 -0.3477 -0.2537
24534SOL    HW174180   0.282   2.088   3.527  0.8144 -0.9300 -0.6918
24534SOL    HW274181   0.400   2.170   3.479  0.3665  0.1933  0.0837
24535SOL     OW74182   9.508   8.002   2.137 -0.5341  0.3374 -0.1674
24535SOL    HW174183   9.578   7.937   2.124  2.2444  2.7757  1.2718
24535SOL    HW274184   9.465   7.975   2.218  1.8613  1.1936  1.4919
24536SOL     OW74185   6.620   4.881   0.484 -0.6109 -0.5393  0.1834
24536SOL    HW174186   6.680   4.892   0.411  0.7193 -2.1150  0.9571
24536SOL    HW274187   6.665   4.820   0.542 -1.8521  0.2455  2.0661
24537SOL     OW74188   5.352   4.766   8.802 -0.2553  0.2081  0.2904
24537SOL    HW174189   5.284   4.784   8.867 -1.5617 -1.1054 -0.6351
24537SOL    HW274190   5.334   4.827   8.731  3.0566  3.8754  2.2509
24538SOL     OW74191   5.480   3.655   0.433 -0.1876 -0.0076 -0.4412
24538SOL    HW174192   5.548   3.600   0.395  0.0625  0.2197 -0.3225
24538SOL    HW274193   5.525   3.735   0.459 -0.2800 -0.2919  0.6426
24539SOL     OW74194   8.618   2.110   8.971 -0.2462  0.0544  0.1389
24539SOL    HW174195   8.667   2.035   8.937 -0.0867  0.5210 -0.6899
24539SOL    HW274196   8.612   2.170   8.897  0.6312  1.3799  1.1064
24540SOL     OW74197   5.668   1.077   2.273  0.1028  0.0768  0.4908
24540SOL    HW174198   5.599   1.058   2.209  1.3686  1.4460 -1.3769
24540SOL    HW274199   5.629   1.142   2.332 -0.4579  0.2459 -0.0546
24541SOL     OW74200   7.502   6.574   6.222  0.4187  0.5373 -0.0543
24541SOL    HW174201   7.508   6.481   6.202 -0.9940  0.6654 -1.2197
24541SOL    HW274202   7.428   6.582   6.281  0.0657  0.9926 -0.5476
24542SOL     OW74203   7.761   0.755   3.355  0.6016 -0.2779  0.3053
24542SOL    HW174204   7.795   0.832   3.309  1.2707 -0.8974 -0.2556
24542SOL    HW274205   7.797   0.763   3.443  0.9495 -0.1254  0.1510
24543SOL     OW74206   8.221   8.926   1.700 -0.5959 -0.1305 -0.4066
24543SOL    HW174207   8.243   8.844   1.746  1.0765  0.8000  0.5286
24543SOL    HW274208   8.147   8.961   1.750 -0.2417 -0.2427  0.2041
24544SOL     OW74209   5.828   6.822   5.747 -0.1183  0.1244 -0.2209
24544SOL    HW174210   5.770   6.814   5.823 -0.5895 -1.1262 -0.6770
24544SOL    HW274211   5.863   6.911   5.752 -0.6894  0.2982  1.0611
24545SOL     OW74212   7.889   3.495   5.376  0.1060 -0.4451  0.0770
24545SOL    HW174213   7.869   3.577   5.421  0.8996 -0.1124 -0.1611
24545SOL    HW274214   7.841   3.501   5.293  0.5140 -0.0254 -0.1314
24546SOL     OW74215   2.557   3.057   0.538  0.2121  0.4712  0.4474
24546SOL    HW174216   2.526   2.981   0.488 -1.1327  0.4499  1.2619
24546SOL    HW274217   2.479   3.112   0.547  0.8796  1.3430  0.9615
24547SOL     OW74218   1.177   6.651   8.094  0.0483  0.6515  0.3809
24547SOL    HW174219   1.127   6.717   8.045 -1.4092 -1.7873 -1.6329
24547SOL    HW274220   1.113   6.611   8.153  0.6689  0.3129  0.8351
24548SOL     OW74221   0.754   3.322   7.499  0.2386  0.3115  0.7011
24548SOL    HW174222   0.809   3.394   7.469  0.5993  0.0558  0.7370
24548SOL    HW274223   0.803   3.243   7.474 -1.3173 -0.0160 -1.7147
24549SOL     OW74224   8.762   4.117   1.013  0.4047 -0.0133 -0.2877
24549SOL    HW174225   8.674   4.101   1.048  0.6931  0.3448  0.6226
24549SOL    HW274226   8.806   4.167   1.081  0.8525  1.0821 -1.3582
24550SOL     OW74227   5.486   1.580   6.086 -0.1592  0.1909 -0.0741
24550SOL    HW174228   5.497   1.615   5.998 -2.0804 -1.0557 -0.9015
24550SOL    HW274229   5.489   1.485   6.074  0.2399  0.0137  1.3157
24551SOL     OW74230   8.755   5.669   1.820 -0.6435  0.2387  0.0978
24551SOL    HW174231   8.662   5.646   1.818 -0.3972 -0.7139 -1.4581
24551SOL    HW274232   8.758   5.760   1.791 -1.2507  1.0102  2.2820
24552SOL     OW74233   6.336   2.057   6.524  0.7401 -0.4238 -0.5557
24552SOL    HW174234   6.310   2.090   6.610 -1.0759  1.7810 -1.8291
24552SOL    HW274235   6.430   2.074   6.519  0.3024  2.6438 -0.2169
24553SOL     OW74236   7.295   1.172   3.560  0.0014 -0.2158  0.0165
24553SOL    HW174237   7.293   1.150   3.467 -0.4306  0.5964 -0.1770
24553SOL    HW274238   7.350   1.250   3.565 -0.3115 -0.0118  0.3849
24554SOL     OW74239   2.578   7.497   5.994  0.1517 -0.4659 -0.2683
24554SOL    HW174240   2.578   7.403   6.013 -0.2294 -0.1802  1.3244
24554SOL    HW274241   2.606   7.504   5.903  1.2714 -2.0572 -0.0751
24555SOL     OW74242   3.604   4.541   3.855 -0.0314  0.3043  0.0936
24555SOL    HW174243   3.521   4.581   3.829  0.7943  1.2743 -1.2037
24555SOL    HW274244   3.659   4.614   3.882  0.0328 -0.4440  2.1551
24556SOL     OW74245   5.315   7.696   6.694  0.1705 -0.2947  0.0907
24556SOL    HW174246   5.411   7.696   6.694  0.1939 -0.3118 -1.5774
24556SOL    HW274247   5.291   7.620   6.641 -0.7257  0.9396 -1.3424
24557SOL     OW74248   3.980   7.535   0.430  0.1219 -0.0231 -0.0315
24557SOL    HW174249   3.885   7.552   0.432  0.3318  1.5536 -1.3084
24557SOL    HW274250   4.001   7.508   0.519 -1.0837  2.3660  1.0814
24558SOL     OW74251   6.327   6.093   4.407 -0.4033 -0.4156  0.2784
24558SOL    HW174252   6.358   6.122   4.493 -5.4608 -1.6661  2.9467
24558SOL    HW274253   6.301   6.173   4.362 -0.6460  0.1143  1.3272
24559SOL     OW74254  -0.010   1.513   8.052 -0.5479 -0.7345 -0.2485
24559SOL    HW174255  -0.048   1.426   8.037 -0.7859 -0.7788  0.5334
24559SOL    HW274256   0.082   1.496   8.073 -0.1804 -0.6603 -1.7235
24560SOL     OW74257   7.808   4.766   7.660  0.2654 -0.6898  0.3293
24560SOL    HW174258   7.844   4.742   7.574 -0.6810  0.3814 -0.4076
24560SOL    HW274259   7.716   4.787   7.641  0.2650  0.3747  1.4718
24561SOL     OW74260   5.264   2.135   2.473 -0.7119  0.1393 -0.0964
24561SOL    HW174261   5.173   2.165   2.474 -0.5440  0.6529  0.2391
24561SOL    HW274262   5.303   2.180   2.399 -0.3455  1.1369  0.6704
24562SOL     OW74263   9.371   7.896   6.782  0.3636  0.8605  0.3657
24562SOL    HW174264   9.406   7.954   6.850  0.7472  0.1891  0.7478
24562SOL    HW274265   9.280   7.882   6.808  0.8402 -0.3988  1.4581
24563SOL     OW74266   2.121   1.583   0.949 -0.7530  0.1046  0.0447
24563SOL    HW174267   2.029   1.556   0.944 -0.9530  0.9331 -1.2949
24563SOL    HW274268   2.121   1.655   1.011 -0.7853 -0.7078  1.0083
24564SOL     OW74269   5.379   8.244   2.552  0.3449  0.7923 -0.1969
24564SOL    HW174270   5.324   8.172   2.583 -1.0303  1.5430 -0.7994
24564SOL    HW274271   5.449   8.201   2.504 -0.8012 -0.1519 -1.0903
24565SOL     OW74272   3.972   5.431   9.393 -0.6224 -0.0367 -0.0064
24565SOL    HW174273   3.902   5.366   9.393 -0.9714  0.3177 -0.8584
24565SOL    HW274274   3.983   5.456   9.485 -0.7041 -1.0507  0.2859
24566SOL     OW74275   9.304   4.204   6.399  0.6353 -0.1863 -0.3111
24566SOL    HW174276   9.394   4.177   6.382  0.7732  0.1688 -0.1490
24566SOL    HW274277   9.302   4.298   6.381  0.8051  0.2264  1.6073
24567SOL     OW74278   6.518   5.425   8.198 -0.6745 -0.0627 -0.0191
24567SOL    HW174279   6.459   5.411   8.272 -1.5994  0.1111 -0.7025
24567SOL    HW274280   6.484   5.503   8.154  0.2944  0.2684 -0.2240
24568SOL     OW74281   2.553   0.107   4.185 -0.2746 -0.1578  0.0233
24568SOL    HW174282   2.497   0.168   4.234 -1.2407 -0.5332 -0.5873
24568SOL    HW274283   2.624   0.161   4.151 -2.6503  1.3282 -3.0452
24569SOL     OW74284   7.059   8.764   2.101 -0.2097  0.3453  0.3317
24569SOL    HW174285   7.034   8.803   2.017  0.1902  0.4255  0.2512
24569SOL    HW274286   7.036   8.672   2.092 -1.7814  0.6542  0.7571
24570SOL     OW74287   5.006   5.984   0.227 -0.2227 -0.0821 -0.4111
24570SOL    HW174288   5.080   6.045   0.225 -0.0568 -0.1732  1.5478
24570SOL    HW274289   5.047   5.897   0.223 -0.2605 -0.1250  0.1829
24571SOL     OW74290   0.030   3.986   2.878  0.1208 -0.7522  0.3158
24571SOL    HW174291   0.000   4.009   2.790 -0.7568  0.7778  0.9878
24571SOL    HW274292   0.089   3.911   2.864 -0.7552 -1.1653 -1.4584
24572SOL     OW74293   4.620   7.546   8.227 -0.3429  0.3109  0.0900
24572SOL    HW174294   4.574   7.603   8.288 -1.4658 -1.6783  1.2148
24572SOL    HW274295   4.555   7.480   8.203  1.0011 -0.7131 -0.8753
24573SOL     OW74296   4.930   0.642  -0.027  0.3713  0.1571 -0.2182
24573SOL    HW174297   4.875   0.676   0.044 -0.1322 -0.0556 -0.5058
24573SOL    HW274298   5.014   0.688  -0.016  0.0004  0.8014 -0.0382
24574SOL     OW74299   9.860   5.177   8.797  0.1829  0.1305  0.1754
24574SOL    HW174300   9.852   5.186   8.702  2.0617 -0.3361 -0.0717
24574SOL    HW274301   9.932   5.235   8.820  0.1488 -0.2302  1.2321
24575SOL     OW74302   6.985   3.203   0.352 -0.5266 -0.3946 -0.3382
24575SOL    HW174303   7.036   3.122   0.349 -1.4373 -1.0146  0.4716
24575SOL    HW274304   6.897   3.177   0.323 -0.8071  0.3209 -0.1380
24576SOL     OW74305   6.127   1.569   9.535  0.1351 -0.0480  0.2060
24576SOL    HW174306   6.117   1.553   9.441 -0.8786  0.1852  0.2640
24576SOL    HW274307   6.168   1.490   9.568  1.5740  0.3201 -0.6081
24577SOL     OW74308   4.644   4.606   2.716  0.0183  0.4945 -0.2363
24577SOL    HW174309   4.549   4.613   2.711 -0.1254 -0.3360  1.0212
24577SOL    HW274310   4.676   4.684   2.670 -1.2706  1.2351  0.0866
24578SOL     OW74311   0.544   8.888   7.407  0.4103 -0.0856  0.4546
24578SOL    HW174312   0.554   8.951   7.335  0.9795 -0.8487 -0.1480
24578SOL    HW274313   0.621   8.904   7.462  0.3309  0.0343  0.5318
24579SOL     OW74314   4.461   2.146   7.724  0.6119  0.1177 -0.0037
24579SOL    HW174315   4.374   2.123   7.691  0.2605  1.1640  0.1360
24579SOL    HW274316   4.480   2.081   7.791  0.3524 -0.6812 -0.6912
24580SOL     OW74317   9.146   1.165   9.273  0.1617  0.4892  0.1593
24580SOL    HW174318   9.232   1.186   9.310  0.1321  0.8019  0.0590
24580SOL    HW274319   9.129   1.236   9.211 -1.4348  2.0032  2.2092
24581SOL     OW74320   3.302   2.210   4.488 -0.9305  0.1636 -0.7531
24581SOL    HW174321   3.273   2.133   4.439 -0.4594 -1.8768  1.9310
24581SOL    HW274322   3.242   2.215   4.562  1.2885  0.0120  1.1766
24582SOL     OW74323   8.346   4.053   2.066  0.0545 -0.3250 -0.2834
24582SOL    HW174324   8.313   4.127   2.014  1.3413 -0.1827 -0.9247
24582SOL    HW274325   8.310   4.069   2.154 -0.2246  0.7128 -0.5648
24583SOL     OW74326   9.603   2.227   3.334 -0.2509  0.4673 -0.0130
24583SOL    HW174327   9.679   2.244   3.389 -0.1738 -0.7601  0.2894
24583SOL    HW274328   9.528   2.234   3.394 -0.2898  0.6651 -0.0860
24584SOL     OW74329   0.046   1.146   0.893  0.2299 -0.1600 -1.1456
24584SOL    HW174330  -0.006   1.226   0.890  0.0308 -0.3130 -1.8854
24584SOL    HW274331   0.035   1.113   0.983  1.3498  1.3094 -0.4368
24585SOL     OW74332   8.830   4.705   2.017  0.2444 -0.5317 -0.6900
24585SOL    HW174333   8.904   4.765   2.032  0.3261 -0.7493 -0.2173
24585SOL    HW274334   8.871   4.624   1.988  0.1113 -0.2556 -1.6784
24586SOL     OW74335   7.383   5.671   5.508 -0.3045  0.2345 -0.2697
24586SOL    HW174336   7.315   5.645   5.446  1.0940  0.4125 -1.9914
24586SOL    HW274337   7.437   5.593   5.518  0.5362  0.7225 -0.7905
24587SOL     OW74338   4.614   0.944   4.559 -0.2701 -0.3843  0.2759
24587SOL    HW174339   4.660   0.862   4.539 -2.1013 -1.8464  1.6496
24587SOL    HW274340   4.684   1.005   4.582  1.1041 -1.9473  0.4923
24588SOL     OW74341   2.451   2.831   9.113 -0.0496  0.0860 -0.4597
24588SOL    HW174342   2.513   2.781   9.167  0.7631  0.6110 -0.8967
24588SOL    HW274343   2.484   2.920   9.115  0.6890 -0.0825 -2.8061
24589SOL     OW74344   9.184   2.968   6.955 -0.4309  0.0523 -0.2269
24589SOL    HW174345   9.162   3.003   7.041 -0.0004  0.6591 -0.3542
24589SOL    HW274346   9.276   2.992   6.942 -0.1548 -1.0270 -0.3801
24590SOL     OW74347   6.007   9.878   7.241 -0.0360  1.0769  0.1748
24590SOL    HW174348   6.007   9.957   7.187 -0.2627  1.7432  1.1238
24590SOL    HW274349   6.097   9.873   7.274 -0.6379  2.4997  2.2738
24591SOL     OW74350   2.303   5.274   9.616 -0.1626  0.0805  0.1878
24591SOL    HW174351   2.394   5.261   9.589  0.5526  2.6891  1.0173
24591SOL    HW274352   2.298   5.234   9.703  0.5437  0.8216  0.5913
24592SOL     OW74353   6.965   5.641   6.713 -0.5866  0.0797  0.3018
24592SOL    HW174354   6.978   5.736   6.715 -1.0280  0.1406  0.4215
24592SOL    HW274355   7.050   5.605   6.685 -0.7193  0.5720 -0.7881
24593SOL     OW74356   2.620   8.118   4.393  0.1860  0.1774 -0.0925
24593SOL    HW174357   2.647   8.129   4.485  0.2755 -0.3657 -0.0467
24593SOL    HW274358   2.525   8.124   4.395  0.2267  0.9011 -0.0755
24594SOL     OW74359   9.772   8.008   0.136 -0.0847 -0.2929  0.2563
24594SOL    HW174360   9.757   7.966   0.221 -1.2803  0.2774  0.3526
24594SOL    HW274361   9.773   8.102   0.156 -2.0456 -0.0483 -0.5394
24595SOL     OW74362   6.159   2.951   9.260  0.1634 -0.1399  0.1829
24595SOL    HW174363   6.116   2.868   9.278 -0.2198 -0.2348 -1.0632
24595SOL    HW274364   6.201   2.938   9.175  0.1038  0.9316 -0.0258
24596SOL     OW74365   9.424   0.991   4.077  0.3482  0.0959 -0.0776
24596SOL    HW174366   9.383   1.008   4.162  0.6231 -2.0405  0.5369
24596SOL    HW274367   9.350   0.974   4.019  0.2171 -1.2790  0.4457
24597SOL     OW74368   8.334   6.770   9.589  0.4056 -0.2245 -0.1315
24597SOL    HW174369   8.314   6.792   9.498  1.2492 -0.6394 -0.4260
24597SOL    HW274370   8.429   6.771   9.594  0.3597  0.8862  1.0280
24598SOL     OW74371   3.552   5.419   0.305 -0.5360  0.3961 -0.0669
24598SOL    HW174372   3.489   5.348   0.296  1.0247 -1.0277 -0.3145
24598SOL    HW274373   3.546   5.467   0.222  0.0215 -0.8721 -0.8701
24599SOL     OW74374   9.672   6.016   0.481  0.2056  0.3018 -0.3483
24599SOL    HW174375   9.750   5.978   0.443 -0.0592 -0.3713 -0.2242
24599SOL    HW274376   9.687   6.111   0.477  0.9537  0.1798 -0.4588
24600SOL     OW74377   3.879   1.816   5.376  0.7583 -0.6810  0.8527
24600SOL    HW174378   3.958   1.868   5.363  0.3694  0.7425  3.4693
24600SOL    HW274379   3.809   1.872   5.342  0.7250 -1.4858 -0.4732
24601SOL     OW74380   4.673   1.448   6.003 -0.6921  0.6250 -0.3650
24601SOL    HW174381   4.662   1.356   5.978 -1.9173  0.5739  0.3084
24601SOL    HW274382   4.745   1.447   6.066 -1.6415 -0.0833  0.7297
24602SOL     OW74383   7.060   8.381   9.415  0.4317  0.0802  0.1018
24602SOL    HW174384   7.087   8.471   9.397 -0.9948  1.0024  2.1915
24602SOL    HW274385   7.114   8.354   9.489  1.0785 -0.9369 -0.7153
24603SOL     OW74386   4.799   6.495   2.864  0.1992  0.0738  0.0847
24603SOL    HW174387   4.828   6.537   2.783  1.2283  0.1382  0.4754
24603SOL    HW274388   4.844   6.411   2.866  3.1746  1.5059  2.3032
24604SOL     OW74389   4.795   7.161   0.609  0.4268  0.3740 -0.0115
24604SOL    HW174390   4.759   7.185   0.694  0.7048  0.6823  0.0191
24604SOL    HW274391   4.886   7.138   0.626  0.1202 -0.9180 -0.0094
24605SOL     OW74392   8.926   9.391   6.484 -0.3719  0.5835 -0.7896
24605SOL    HW174393   8.990   9.399   6.413  0.4467 -1.4010 -0.3395
24605SOL    HW274394   8.935   9.300   6.514 -1.6451  0.9915  0.9568
24606SOL     OW74395   6.450   2.561   6.580 -0.1714  0.4692 -0.0646
24606SOL    HW174396   6.503   2.487   6.549 -0.4326  0.7766 -1.3103
24606SOL    HW274397   6.416   2.601   6.500 -2.2532  0.3222  0.6937
24607SOL     OW74398   2.267   7.193   2.380  0.4431  0.2320  0.9559
24607SOL    HW174399   2.361   7.178   2.369  0.2178 -1.3562  0.9441
24607SOL    HW274400   2.257   7.222   2.470  0.5453 -3.9903  2.4966
24608SOL     OW74401   7.520   2.259   7.822 -0.0788  0.1755 -0.2820
24608SOL    HW174402   7.513   2.238   7.729  0.8158  0.4818 -0.4382
24608SOL    HW274403   7.538   2.353   7.823 -1.3671  0.4368  0.2728
24609SOL     OW74404   4.175   0.497   4.184 -0.4688 -0.4645  0.1978
24609SOL    HW174405   4.153   0.589   4.171 -0.5905 -0.6141 -0.6773
24609SOL    HW274406   4.207   0.493   4.275 -0.4440  0.4382  0.2382
24610SOL     OW74407   6.553   2.039   0.237  0.3713 -0.3693  0.0962
24610SOL    HW174408   6.528   2.073   0.151  0.3482  0.6377  0.4855
24610SOL    HW274409   6.536   2.111   0.297  3.2302  0.0639  0.5374
24611SOL     OW74410   2.041   5.899   6.561 -0.3225 -0.2043  0.5316
24611SOL    HW174411   1.995   5.822   6.527 -2.5842  0.7275  1.2960
24611SOL    HW274412   1.987   5.930   6.633  1.0909  1.5019  0.9479
24612SOL     OW74413   4.908   1.906   2.470  0.2308  0.4779  0.4278
24612SOL    HW174414   4.866   1.968   2.410  0.5449 -0.1583 -0.4629
24612SOL    HW274415   4.988   1.878   2.425 -0.3609 -1.2821  0.3761
24613SOL     OW74416   8.446   7.860   4.658 -0.0271 -0.1417 -0.0022
24613SOL    HW174417   8.408   7.907   4.733 -0.6415  0.9241 -0.9357
24613SOL    HW274418   8.532   7.899   4.647 -0.6220  0.9814 -0.9129
24614SOL     OW74419   5.286   0.615   2.180  0.8484  0.0999  0.5396
24614SOL    HW174420   5.201   0.606   2.221  0.3893 -2.7916 -0.7683
24614SOL    HW274421   5.313   0.705   2.199 -2.7655  1.3702  0.4338
24615SOL     OW74422   5.108   8.297  -0.022 -0.8759 -0.3232 -0.3272
24615SOL    HW174423   5.179   8.236  -0.002 -0.4926  0.5056  0.9293
24615SOL    HW274424   5.043   8.280   0.046 -0.8185  0.5762 -0.0390
24616SOL     OW74425   5.072   1.001   0.715  0.3963 -0.0008 -0.5048
24616SOL    HW174426   5.126   1.067   0.671  2.0383 -1.8113 -1.3470
24616SOL    HW274427   5.103   1.001   0.805  0.0677  0.6757 -0.3854
24617SOL     OW74428   7.051   2.175   9.287  0.3106 -0.2368 -0.1760
24617SOL    HW174429   6.974   2.230   9.302 -0.8311 -1.2163 -2.0645
24617SOL    HW274430   7.064   2.129   9.370 -0.4996  0.7226  0.5001
24618SOL     OW74431   9.185   3.738   4.070  0.2511 -0.4470  0.6824
24618SOL    HW174432   9.145   3.824   4.064  1.1984 -0.0883 -2.8170
24618SOL    HW274433   9.144   3.686   4.001  1.0157 -2.2375  1.4759
24619SOL     OW74434   7.992   8.563   2.955  0.2506 -0.4984  0.1536
24619SOL    HW174435   7.899   8.585   2.951  0.8906  2.2617 -1.7471
24619SOL    HW274436   8.032   8.634   3.005  1.2923 -2.1673  1.8503
24620SOL     OW74437   3.624   7.723   7.430 -0.1442 -0.4320  0.6440
24620SOL    HW174438   3.706   7.744   7.386 -0.0625 -0.4964  0.7665
24620SOL    HW274439   3.591   7.808   7.461 -0.0345 -0.4294  0.7525
24621SOL     OW74440   0.036   5.101   9.604  0.6114  0.3814  0.5704
24621SOL    HW174441   0.100   5.039   9.641 -0.4047 -0.3382  1.1840
24621SOL    HW274442  -0.036   5.045   9.573  0.0849  1.2022  0.2761
24622SOL     OW74443   1.483   5.975   4.736 -0.1213 -0.3135 -0.4220
24622SOL    HW174444   1.564   5.984   4.685 -0.1699 -0.3073 -0.4983
24622SOL    HW274445   1.429   6.049   4.707  1.1715  1.7951  2.0944
24623SOL     OW74446   5.994   3.117   4.915  0.4689  0.6681 -0.7260
24623SOL    HW174447   6.069   3.065   4.943  1.0149  1.3244 -0.9589
24623SOL    HW274448   5.992   3.108   4.820  0.0876  0.4424 -0.7020
24624SOL     OW74449   8.981   1.935   3.120 -0.6148  0.2911  0.5895
24624SOL    HW174450   8.931   1.857   3.094 -0.3718  0.5175 -0.6322
24624SOL    HW274451   8.942   2.006   3.068  1.2112  0.4028 -0.7113
24625SOL     OW74452   0.603   6.576   1.447 -0.1647 -0.4888  0.2340
24625SOL    HW174453   0.553   6.631   1.508 -0.2284  0.3449 -0.5569
24625SOL    HW274454   0.694   6.590   1.471 -0.2556 -1.5940  1.3262
24626SOL     OW74455   9.697   1.533   3.429 -0.8393 -0.1678  0.1458
24626SOL    HW174456   9.769   1.470   3.422 -0.6722  0.0774 -0.3367
24626SOL    HW274457   9.648   1.504   3.506 -1.0449 -1.1773 -0.3475
24627SOL     OW74458   0.685   0.200   6.388  0.1849 -0.7259 -0.0638
24627SOL    HW174459   0.674   0.145   6.311  1.5143 -1.9046  0.5455
24627SOL    HW274460   0.689   0.139   6.462  0.2936  0.2808  0.7918
24628SOL     OW74461   8.903   8.746   6.102 -0.1830  0.3023  1.0262
24628SOL    HW174462   8.823   8.773   6.148 -0.0448 -0.7478  1.9279
24628SOL    HW274463   8.882   8.753   6.009 -1.2487  0.2654  1.2591
24629SOL     OW74464   3.566   5.254   3.879 -0.2035  0.1525 -0.3717
24629SOL    HW174465   3.629   5.183   3.890 -0.9143 -0.2983  1.1345
24629SOL    HW274466   3.487   5.222   3.922 -0.5335  1.8819  0.3806
24630SOL     OW74467   4.589   1.714   5.256  0.2112 -0.2428  0.2457
24630SOL    HW174468   4.656   1.679   5.316  0.7180 -0.2766 -0.3253
24630SOL    HW274469   4.603   1.665   5.175  0.5256  0.8425 -0.3698
24631SOL     OW74470   3.207   0.240   8.302  0.0078 -0.1893  0.4627
24631SOL    HW174471   3.254   0.256   8.384 -0.7585  1.5472  0.6042
24631SOL    HW274472   3.245   0.302   8.240 -0.8867  0.0166  0.1058
24632SOL     OW74473   5.212   8.026   0.811  0.0009  0.4592  0.6347
24632SOL    HW174474   5.162   8.007   0.731 -1.9972 -0.2235  1.9575
24632SOL    HW274475   5.289   7.970   0.805  0.3512  1.0763 -1.2039
24633SOL     OW74476   7.905   4.841   8.182  0.1020 -0.0021  0.2458
24633SOL    HW174477   8.000   4.857   8.186  0.6816 -2.5907 -1.1024
24633SOL    HW274478   7.873   4.903   8.116  0.8010  1.0195  0.8394
24634SOL     OW74479   3.357   4.977   6.024 -0.2909  0.2822 -0.1646
24634SOL    HW174480   3.422   4.915   5.990 -1.9433 -1.3870 -0.4157
24634SOL    HW274481   3.273   4.937   6.003 -1.4247  2.4896 -0.0203
24635SOL     OW74482   9.072   8.046   1.706  0.3449  0.0122  0.1036
24635SOL    HW174483   8.994   7.992   1.694  1.1033 -0.9518 -0.5941
24635SOL    HW274484   9.143   7.984   1.717  0.7202  0.8494  3.2245
24636SOL     OW74485   0.952   6.439   2.712 -0.7937 -0.2600  0.2917
24636SOL    HW174486   0.927   6.494   2.786 -1.0433 -0.3176  0.2509
24636SOL    HW274487   0.869   6.404   2.679 -0.8219  0.6891 -0.7389
24637SOL     OW74488   0.689   2.160   1.912  0.1452 -0.1066 -0.5044
24637SOL    HW174489   0.712   2.244   1.953 -1.5516  0.5319 -0.7774
24637SOL    HW274490   0.721   2.094   1.973 -0.3398  0.7825  0.7578
24638SOL     OW74491   3.141   4.846   2.723 -0.3349 -0.2329 -0.3022
24638SOL    HW174492   3.105   4.887   2.801 -1.9599 -1.6763 -0.2423
24638SOL    HW274493   3.220   4.897   2.704 -0.0878  0.3828  2.0400
24639SOL     OW74494   6.339   3.770   8.512 -0.1866  1.0784  1.1356
24639SOL    HW174495   6.423   3.725   8.505  0.1459  1.6712  1.1778
24639SOL    HW274496   6.328   3.813   8.427 -0.5034  0.9051  1.0898
24640SOL     OW74497   7.938   1.866   8.004 -0.5893 -0.1563 -0.2718
24640SOL    HW174498   7.939   1.909   8.089  0.1410  0.4040 -0.5575
24640SOL    HW274499   7.942   1.937   7.940 -1.2852 -0.5621 -0.7871
24641SOL     OW74500   5.388   9.617   8.062  0.0732 -0.4280  0.2597
24641SOL    HW174501   5.368   9.525   8.045  1.3606 -1.2142  2.5730
24641SOL    HW274502   5.303   9.657   8.081 -0.5177 -1.0800 -0.9200
24642SOL     OW74503   1.739   7.505   0.494  0.1913  0.4742  0.1837
24642SOL    HW174504   1.752   7.473   0.405 -2.6771 -0.2784 -0.0801
24642SOL    HW274505   1.756   7.599   0.489  4.5888 -0.1363 -0.0049
24643SOL     OW74506   3.161   2.897   4.222  0.5237 -0.4759  0.8265
24643SOL    HW174507   3.247   2.932   4.245 -0.8478  1.7340  3.0745
24643SOL    HW274508   3.128   2.859   4.303 -0.9544 -0.5456  0.2188
24644SOL     OW74509   2.579   8.703   8.842 -0.0433  0.0421 -0.1124
24644SOL    HW174510   2.531   8.660   8.912  0.8560  0.6791  0.9180
24644SOL    HW274511   2.512   8.729   8.779 -0.8123 -0.9138  0.2971
24645SOL     OW74512   2.669   1.962   6.289  0.2253 -0.2967 -0.2107
24645SOL    HW174513   2.735   1.953   6.359  0.8764 -0.9231 -0.8756
24645SOL    HW274514   2.670   2.055   6.266  0.6250 -0.2383  0.0314
24646SOL     OW74515   8.538   1.406   7.729  0.7838 -0.0234 -0.0625
24646SOL    HW174516   8.455   1.419   7.773  0.8040 -2.1566  0.7314
24646SOL    HW274517   8.580   1.334   7.777  1.0496 -2.1211 -3.1703
24647SOL     OW74518   2.614   4.917   9.345 -0.4320 -0.4455  0.4499
24647SOL    HW174519   2.560   4.996   9.355 -1.3754 -0.8962 -0.8171
24647SOL    HW274520   2.560   4.858   9.291  0.7405 -1.4921  0.3860
24648SOL     OW74521   8.666   6.969   5.018  0.3016  0.7147 -0.3150
24648SOL    HW174522   8.617   6.941   4.940 -1.4712  0.0399  0.9877
24648SOL    HW274523   8.665   6.892   5.075  1.3422  1.2970  0.5130
24649SOL     OW74524   4.835   6.731   3.599  0.2037 -0.4449 -0.2699
24649SOL    HW174525   4.821   6.675   3.676 -0.1017 -1.1630 -0.8380
24649SOL    HW274526   4.889   6.677   3.541 -0.6002 -0.3765 -1.0834
24650SOL     OW74527   5.064   7.052   9.154 -0.6906  0.3651  0.1921
24650SOL    HW174528   5.026   6.976   9.198  1.3480 -0.1374  1.2095
24650SOL    HW274529   5.132   7.015   9.097 -0.5802  1.3271 -0.3137
24651SOL     OW74530   1.049   6.557   6.217 -0.1552  0.4302 -0.7635
24651SOL    HW174531   1.055   6.494   6.146  3.4438  1.0005 -1.1073
24651SOL    HW274532   1.105   6.521   6.286  1.8115  2.9997 -0.8727
24652SOL     OW74533   8.998   0.785   8.953 -0.9872  0.4151  0.0652
24652SOL    HW174534   9.048   0.721   9.005 -0.7226  1.6697  1.4341
24652SOL    HW274535   8.959   0.843   9.019 -0.8052  1.9602 -1.1509
24653SOL     OW74536   2.349   0.912   9.845  0.1228 -0.3775  0.5895
24653SOL    HW174537   2.354   0.850   9.773  1.9422 -0.1008  0.4274
24653SOL    HW274538   2.290   0.981   9.814 -1.1755 -1.5272  0.4173
24654SOL     OW74539   6.520   7.469   4.623 -0.9498  0.0441 -0.2483
24654SOL    HW174540   6.601   7.469   4.571 -0.8819  1.6880 -0.1850
24654SOL    HW274541   6.527   7.391   4.677  1.3839  0.9717  0.9104
24655SOL     OW74542   5.768   2.581   4.399  0.1095  0.3021 -0.3287
24655SOL    HW174543   5.694   2.593   4.459 -0.7332  1.7823 -1.5913
24655SOL    HW274544   5.844   2.609   4.450 -0.3994  0.2677  0.4793
24656SOL     OW74545   2.586   8.952   9.764 -0.1779 -0.2841 -0.3773
24656SOL    HW174546   2.638   9.013   9.817  1.1924 -0.8351 -1.0456
24656SOL    HW274547   2.578   8.874   9.818  0.0535 -0.3567 -0.4498
24657SOL     OW74548   3.513   9.809   5.815  0.4729 -0.3685  0.2400
24657SOL    HW174549   3.477   9.776   5.732  1.5811 -1.8022  0.2992
24657SOL    HW274550   3.518   9.904   5.802 -0.0499 -0.4919 -1.0670
24658SOL     OW74551   7.024   3.821   7.275  0.2740 -0.3872 -0.1370
24658SOL    HW174552   6.945   3.875   7.276 -2.1175 -3.4474  3.7544
24658SOL    HW274553   7.006   3.753   7.210 -0.0492 -0.7316  0.3088
24659SOL     OW74554   3.462   7.504   1.803  0.3610 -0.6394  0.3949
24659SOL    HW174555   3.441   7.588   1.762  0.6730 -0.6831  0.1401
24659SOL    HW274556   3.536   7.524   1.861 -1.8554  0.0516  3.2021
24660SOL     OW74557   9.475   5.070   9.617 -0.4017  0.4684  0.0454
24660SOL    HW174558   9.466   5.000   9.681 -2.3876 -0.2723 -0.9687
24660SOL    HW274559   9.404   5.131   9.637 -0.8950  0.3594 -1.2589
24661SOL     OW74560   9.771   4.625   4.376 -0.1592  0.2417  0.7850
24661SOL    HW174561   9.850   4.678   4.371 -0.4800  0.6948  0.4196
24661SOL    HW274562   9.782   4.572   4.455  0.2279  0.7492  1.0770
24662SOL     OW74563   8.336   8.271   9.295 -0.4753  0.0670 -0.1415
24662SOL    HW174564   8.330   8.363   9.272  1.4199  0.5366  1.0494
24662SOL    HW274565   8.430   8.251   9.291 -0.5322 -1.0200  2.3728
24663SOL     OW74566   9.730   0.678   9.502  0.0465 -0.2223  0.1512
24663SOL    HW174567   9.691   0.671   9.589  0.7439 -3.1235  0.3261
24663SOL    HW274568   9.812   0.629   9.508  0.8688  0.8003 -1.7472
24664SOL     OW74569   8.087   9.418   7.425 -0.0506 -0.3027  0.1745
24664SOL    HW174570   8.156   9.480   7.447 -1.4367  1.3935 -0.0645
24664SOL    HW274571   8.133   9.339   7.397  1.7690 -0.3746  3.0715
24665SOL     OW74572   8.605   9.592   2.249  0.5059 -0.3907 -0.1520
24665SOL    HW174573   8.544   9.518   2.241  0.9923 -0.9566  1.0618
24665SOL    HW274574   8.548   9.669   2.251 -0.1000 -0.8267 -0.2310
24666SOL     OW74575   5.616   9.895   5.639 -0.3325 -0.0405 -0.1565
24666SOL    HW174576   5.596   9.858   5.553  0.3683 -0.1672 -0.2690
24666SOL    HW274577   5.689   9.956   5.623 -0.6013  0.3970  0.2453
24667SOL     OW74578   9.526   0.577   5.261  0.1829 -0.0974 -0.1621
24667SOL    HW174579   9.495   0.488   5.244 -0.0903  0.0054 -0.2086
24667SOL    HW274580   9.488   0.599   5.347 -2.2595  1.0731 -1.4330
24668SOL     OW74581   6.880   4.199   8.163 -0.1970  0.5539  0.0743
24668SOL    HW174582   6.795   4.166   8.192 -0.7433  1.9069  0.1183
24668SOL    HW274583   6.905   4.140   8.092 -1.6638  0.7003 -0.6113
24669SOL     OW74584   7.963   6.902   4.256 -0.0085  0.0788 -0.1207
24669SOL    HW174585   8.015   6.977   4.229 -0.5187  0.0823 -1.1366
24669SOL    HW274586   7.901   6.936   4.320  2.3526 -0.2464  2.5460
24670SOL     OW74587   4.608   0.438   1.855 -0.0420 -0.2610 -0.4232
24670SOL    HW174588   4.699   0.427   1.883 -0.2844 -0.4053  0.3359
24670SOL    HW274589   4.597   0.376   1.783  0.9774  1.0443 -1.7903
24671SOL     OW74590   5.517   2.780   6.056  0.1297 -0.2197 -0.4166
24671SOL    HW174591   5.544   2.870   6.037  1.8628 -0.9067 -1.4588
24671SOL    HW274592   5.490   2.744   5.972 -1.1255 -0.5261  0.0933
24672SOL     OW74593   8.916   0.082   0.793 -0.0805  0.4315 -0.5548
24672SOL    HW174594   8.866   0.013   0.748  0.3085 -0.6007  0.5253
24672SOL    HW274595   8.854   0.154   0.802 -0.3567  0.4073 -2.1327
24673SOL     OW74596   8.297   2.077   0.566  0.2266 -0.1113 -0.3518
24673SOL    HW174597   8.209   2.042   0.573  0.3557 -0.3944 -0.1303
24673SOL    HW274598   8.288   2.170   0.584 -0.0071 -0.1655 -0.1907
24674SOL     OW74599   9.129   9.006   7.454 -0.4346 -0.0447 -0.1740
24674SOL    HW174600   9.194   8.961   7.400 -0.0668 -1.1973  1.1747
24674SOL    HW274601   9.046   8.965   7.431 -0.1023 -1.4637  1.0442
24675SOL     OW74602   2.678   4.088   9.042  0.6147 -0.0322 -0.3762
24675SOL    HW174603   2.588   4.097   9.013  0.5943 -1.2334 -0.7141
24675SOL    HW274604   2.688   4.155   9.110 -0.7479 -0.3754  0.1940
24676SOL     OW74605   9.118   9.362   5.983 -0.0239 -0.0004  0.0585
24676SOL    HW174606   9.039   9.395   5.942  0.4383  1.4291  0.2818
24676SOL    HW274607   9.153   9.298   5.921 -0.8958 -0.0341 -0.4070
24677SOL     OW74608   5.955   7.035   4.067 -0.0198 -0.1561  0.5126
24677SOL    HW174609   5.957   6.940   4.056  1.7720  0.0753 -2.2089
24677SOL    HW274610   5.881   7.064   4.014 -2.3631 -0.0905  3.5427
24678SOL     OW74611   4.870   8.130   5.188  0.6046 -0.6689 -0.1292
24678SOL    HW174612   4.933   8.198   5.166  1.4738 -1.4286 -0.0339
24678SOL    HW274613   4.785   8.175   5.189  1.2446  0.5525  0.6526
24679SOL     OW74614   4.270   7.298   4.293  0.0323  0.1207  0.0657
24679SOL    HW174615   4.255   7.226   4.232  1.0250 -0.8118  0.8886
24679SOL    HW274616   4.320   7.362   4.242 -1.6413  0.7127 -0.9575
24680SOL     OW74617   4.198   6.783   8.259 -0.8682  0.4795 -0.2026
24680SOL    HW174618   4.280   6.833   8.256  0.3409 -1.1564  2.1796
24680SOL    HW274619   4.224   6.693   8.240 -2.4132  0.1820 -1.0194
24681SOL     OW74620   7.555   2.076   2.527 -0.1696  0.0233  0.4477
24681SOL    HW174621   7.566   1.990   2.567  0.2302  1.3084  3.3778
24681SOL    HW274622   7.632   2.085   2.470 -0.5215 -1.7297 -0.3800
24682SOL     OW74623   9.436   2.092   8.603  0.0557  0.1461  0.2421
24682SOL    HW174624   9.473   2.012   8.566 -0.4681 -0.4881  1.0579
24682SOL    HW274625   9.462   2.161   8.541  0.3825 -0.6655 -0.5530
24683SOL     OW74626   6.450   4.915   4.479  0.1973  0.0972  0.2014
24683SOL    HW174627   6.402   4.964   4.412 -0.1347  0.6232  0.8136
24683SOL    HW274628   6.490   4.982   4.534  0.6032 -0.3294  0.4360
24684SOL     OW74629   2.237   9.339   6.055 -0.2203  0.0031 -0.8470
24684SOL    HW174630   2.237   9.311   6.146  0.2452  1.4062 -0.3899
24684SOL    HW274631   2.163   9.293   6.015 -0.9395  0.0056  0.4447
24685SOL     OW74632   0.186   4.865   2.033  0.2328 -0.0291  0.1296
24685SOL    HW174633   0.127   4.899   1.966 -0.8534 -0.5308  0.8163
24685SOL    HW274634   0.215   4.781   1.999 -1.1398 -0.7710  0.7308
24686SOL     OW74635   7.375   4.650   7.808 -0.0147  0.1362  0.2574
24686SOL    HW174636   7.454   4.631   7.859  0.1410  0.4613  0.1406
24686SOL    HW274637   7.308   4.670   7.874  0.3749  1.2960  0.3387
24687SOL     OW74638   5.350   1.366   1.307  0.4558  0.1665 -0.4189
24687SOL    HW174639   5.433   1.340   1.346  0.5658 -1.7878 -1.8312
24687SOL    HW274640   5.284   1.340   1.371  0.8557  1.3461  0.5227
24688SOL     OW74641   3.368   1.627   1.663  0.1855 -0.4638 -0.0167
24688SOL    HW174642   3.432   1.563   1.693 -0.2840  0.1459  2.5210
24688SOL    HW274643   3.416   1.683   1.602  0.7892 -2.7002 -1.7491
24689SOL     OW74644   3.274   0.199   4.178  0.3927  0.0194  0.0200
24689SOL    HW174645   3.294   0.285   4.140 -0.4148 -0.1687 -0.8709
24689SOL    HW274646   3.311   0.136   4.117  0.3784 -0.2764  0.3144
24690SOL     OW74647   2.871   8.418   9.027  0.3634  0.5075 -0.3971
24690SOL    HW174648   2.923   8.338   9.012  0.1866  0.4680 -0.8276
24690SOL    HW274649   2.780   8.389   9.017  0.1965  0.3733  1.2903
24691SOL     OW74650   2.277   2.159   1.904  0.3538  0.1094 -0.0872
24691SOL    HW174651   2.352   2.124   1.855  0.8675 -0.8118  1.2984
24691SOL    HW274652   2.291   2.128   1.993 -2.3446 -1.1521 -0.0184
24692SOL     OW74653   6.476   7.161   8.374  0.5518 -0.0878 -0.0345
24692SOL    HW174654   6.389   7.122   8.376  0.1575  0.7142 -0.7149
24692SOL    HW274655   6.519   7.130   8.455  0.7437 -2.8892 -1.1013
24693SOL     OW74656   9.820   2.652   3.622 -0.2914 -0.0969 -0.2054
24693SOL    HW174657   9.860   2.583   3.569 -0.1066 -1.0931  1.1749
24693SOL    HW274658   9.816   2.728   3.563  1.1415 -0.7496 -1.2193
24694SOL     OW74659   9.832   5.662   6.125 -0.3516  0.2955  0.1047
24694SOL    HW174660   9.895   5.605   6.079  0.3256  0.5064  0.7497
24694SOL    HW274661   9.769   5.688   6.058  1.2979  1.5821 -1.0109
24695SOL     OW74662   7.295   1.507   1.034 -0.2272 -0.5768  0.6399
24695SOL    HW174663   7.286   1.452   1.112  2.1558 -0.0670  1.3703
24695SOL    HW274664   7.386   1.535   1.036 -0.8786  1.8897 -0.7251
24696SOL     OW74665   4.527   4.719   1.943 -0.1812  0.7615  0.0131
24696SOL    HW174666   4.596   4.786   1.946  0.6469 -0.1052  0.9664
24696SOL    HW274667   4.499   4.718   1.851  2.5997 -0.3454 -0.9288
24697SOL     OW74668   3.948   2.138   3.457  0.0613 -0.7520 -0.6856
24697SOL    HW174669   3.882   2.143   3.527  0.9013 -0.3665  0.0955
24697SOL    HW274670   4.026   2.104   3.501  0.3650 -1.2963 -1.6243
24698SOL     OW74671   1.183   5.658   1.242 -0.2974  0.0004  0.3506
24698SOL    HW174672   1.270   5.619   1.243 -0.8893 -1.3995 -0.1347
24698SOL    HW274673   1.123   5.583   1.240 -1.5074  0.9357  0.3142
24699SOL     OW74674   0.047   2.277   5.223  0.1669  1.0646 -0.0253
24699SOL    HW174675   0.012   2.196   5.260  1.0870  0.7030  0.0825
24699SOL    HW274676   0.122   2.249   5.170 -0.1707  1.7344 -0.9005
24700SOL     OW74677   6.627   5.940   1.373  0.2580 -0.0713 -0.4019
24700SOL    HW174678   6.649   5.848   1.391 -1.2979 -0.2505  0.8777
24700SOL    HW274679   6.692   5.968   1.309  1.8736 -1.5401  0.4903
24701SOL     OW74680   0.644   5.330   9.852 -0.2601 -0.2758  0.3331
24701SOL    HW174681   0.652   5.235   9.863  1.9106 -0.2555 -0.6328
24701SOL    HW274682   0.683   5.366   9.932 -0.2043 -0.1890  0.2654
24702SOL     OW74683   5.780   9.175   8.401  0.1790  0.4550  0.5593
24702SOL    HW174684   5.781   9.191   8.496  1.9023 -0.8465  0.8167
24702SOL    HW274685   5.843   9.104   8.389 -0.9918 -0.3074 -1.4289
24703SOL     OW74686   7.703   4.208   8.563  0.3386 -0.6581 -0.1130
24703SOL    HW174687   7.708   4.259   8.643  0.1923  0.6227 -0.8946
24703SOL    HW274688   7.790   4.170   8.553  0.8844  0.5839 -0.2451
24704SOL     OW74689   0.516   7.998   3.682  0.3053 -0.1431 -0.0616
24704SOL    HW174690   0.604   7.959   3.684  0.3380 -0.0495  0.7133
24704SOL    HW274691   0.483   7.987   3.771 -0.6421 -0.5486 -0.4541
24705SOL     OW74692   4.836   0.773   4.624 -0.0946 -0.6724 -0.2872
24705SOL    HW174693   4.888   0.794   4.701  0.6333 -0.9410 -0.6986
24705SOL    HW274694   4.850   0.848   4.565 -0.4519 -0.5858 -0.2696
24706SOL     OW74695   4.473   4.598   2.191  0.1349 -0.2244 -0.2305
24706SOL    HW174696   4.446   4.679   2.236  1.9581  0.1457  0.2747
24706SOL    HW274697   4.504   4.628   2.106 -0.9400 -0.6323 -0.7743
24707SOL     OW74698   9.947   4.969   3.965 -0.2034 -0.0571  0.2623
24707SOL    HW174699  10.003   5.046   3.974  1.6888 -1.2161 -0.7633
24707SOL    HW274700   9.885   4.992   3.897 -0.2222  0.8666  0.5839
24708SOL     OW74701   8.033   5.387   7.199  0.3623 -0.3947  0.1775
24708SOL    HW174702   8.105   5.324   7.198  0.4831 -0.2838 -1.6925
24708SOL    HW274703   8.003   5.390   7.108 -0.5970  1.1757  0.5153
24709SOL     OW74704   6.004   3.011   0.081 -0.4074  0.4570 -0.2080
24709SOL    HW174705   6.022   3.101   0.109 -0.5611  0.2707  0.5028
24709SOL    HW274706   5.931   3.019   0.020 -0.1224  0.8621 -0.5009
24710SOL     OW74707   1.401   0.634   7.811 -0.2890  0.4415  0.5665
24710SOL    HW174708   1.485   0.604   7.778 -0.6328 -1.5127  1.3515
24710SOL    HW274709   1.359   0.675   7.735 -0.4128 -2.5200 -1.1042
24711SOL     OW74710   5.955   7.604   7.000  0.0219  0.0893 -0.0964
24711SOL    HW174711   5.927   7.681   6.951 -2.8330 -1.9221 -1.9114
24711SOL    HW274712   5.936   7.627   7.092  2.0817  2.5640 -0.1710
24712SOL     OW74713   7.475   9.706   8.810  0.4725 -0.3901  0.0015
24712SOL    HW174714   7.417   9.767   8.856  1.0014 -1.1014  1.6889
24712SOL    HW274715   7.547   9.761   8.779 -0.6903  0.3795 -1.5039
24713SOL     OW74716   0.029   2.070   1.592 -0.2906 -0.1056  0.1283
24713SOL    HW174717  -0.062   2.096   1.577 -0.7397 -1.0384  1.0746
24713SOL    HW274718   0.080   2.149   1.577 -1.3521  0.6414  0.3784
24714SOL     OW74719   9.705   8.949   3.969 -0.3219  0.3219 -0.1431
24714SOL    HW174720   9.757   9.029   3.976  1.0261 -0.6316  1.6728
24714SOL    HW274721   9.626   8.967   4.019 -0.8598  1.0784 -1.2147
24715SOL     OW74722   1.910   0.571   4.416  0.2966 -0.5179 -0.2195
24715SOL    HW174723   1.834   0.528   4.456 -0.1392 -0.4050 -0.9106
24715SOL    HW274724   1.887   0.664   4.414 -0.2796 -0.6648 -1.9520
24716SOL     OW74725   3.044   4.086   3.437  0.7041  0.6107 -0.1913
24716SOL    HW174726   3.094   4.145   3.381  1.5705 -1.0931 -1.3074
24716SOL    HW274727   3.028   4.009   3.382 -2.4824  0.7178  0.3802
24717SOL     OW74728   0.744   2.042   3.202  0.0308  0.2682 -0.0845
24717SOL    HW174729   0.709   2.001   3.122  2.3947  0.1226 -1.1268
24717SOL    HW274730   0.669   2.045   3.262 -2.0788  1.1841 -2.5676
24718SOL     OW74731   6.292   4.482   3.398  0.6003 -0.3753 -0.6836
24718SOL    HW174732   6.251   4.413   3.449  1.0220  0.4736  0.8632
24718SOL    HW274733   6.290   4.450   3.308  0.3483 -2.1677 -0.0754
24719SOL     OW74734   1.762   5.915   3.315 -0.1338  0.3122 -0.0597
24719SOL    HW174735   1.845   5.922   3.362 -0.2528 -1.8264  0.5610
24719SOL    HW274736   1.755   5.997   3.267  1.5124  1.2497  1.1970
24720SOL     OW74737   2.751   0.568   3.107  0.4171  0.1832 -1.0703
24720SOL    HW174738   2.657   0.558   3.123  0.4544  1.8912  0.5299
24720SOL    HW274739   2.767   0.515   3.029 -1.5811 -1.3348 -0.5597
24721SOL     OW74740   4.766   8.440   1.526  0.1295  0.4080 -0.5038
24721SOL    HW174741   4.723   8.494   1.458  1.6467  1.9911 -0.2750
24721SOL    HW274742   4.806   8.368   1.477  0.0777  0.7972 -1.1403
24722SOL     OW74743   1.881   8.431   8.563  0.2736 -0.7518 -0.1620
24722SOL    HW174744   1.954   8.386   8.605 -0.0014 -0.8461  0.2212
24722SOL    HW274745   1.807   8.417   8.622  0.2282  0.3904  0.0731
24723SOL     OW74746   1.425   3.295   1.063 -0.4077 -0.2470  0.1059
24723SOL    HW174747   1.376   3.216   1.087 -1.0634  0.1229  0.0011
24723SOL    HW274748   1.389   3.363   1.119 -1.2574  0.4174 -1.2061
24724SOL     OW74749   7.793   2.432   7.111  0.5521 -0.1105 -0.2290
24724SOL    HW174750   7.853   2.494   7.070  0.8337 -0.7169 -0.7600
24724SOL    HW274751   7.804   2.447   7.205 -0.5755  1.7286 -0.3574
24725SOL     OW74752   8.816   0.513   2.407  0.1523  0.1733 -0.0831
24725SOL    HW174753   8.740   0.465   2.377  0.0608 -1.7368  2.7927
24725SOL    HW274754   8.891   0.469   2.366 -0.1381  0.6368 -1.1453
24726SOL     OW74755   6.326   3.589   6.260 -0.3672 -0.0966  0.2594
24726SOL    HW174756   6.374   3.670   6.242 -0.2214 -0.4468 -1.0619
24726SOL    HW274757   6.268   3.611   6.333  1.1216  0.6045  1.3034
24727SOL     OW74758   5.230   0.284   3.986 -0.2080  0.3624  0.1593
24727SOL    HW174759   5.231   0.297   4.081  0.4846  0.7888  0.0975
24727SOL    HW274760   5.144   0.245   3.969 -0.1017 -0.3015  1.0360
24728SOL     OW74761   6.248   0.380   0.780 -0.5014 -0.2919 -0.1097
24728SOL    HW174762   6.168   0.338   0.747  0.2128 -1.6702 -0.1586
24728SOL    HW274763   6.308   0.307   0.797  0.7887  0.7158 -0.1673
24729SOL     OW74764   7.843   7.682   2.670  0.2321 -0.1627 -0.6830
24729SOL    HW174765   7.904   7.666   2.742  2.0003 -0.8914 -2.2331
24729SOL    HW274766   7.766   7.629   2.691 -0.0442  0.9975  1.4679
24730SOL     OW74767   0.460   1.077   8.508  0.5143 -0.0937  0.0955
24730SOL    HW174768   0.395   1.015   8.540 -0.6955  0.1036 -1.8190
24730SOL    HW274769   0.521   1.024   8.456  0.6458  0.0302  0.1227
24731SOL     OW74770   2.670   5.985   9.647 -0.1357 -0.2024  0.0515
24731SOL    HW174771   2.642   6.037   9.572 -0.4160  0.4315  0.5906
24731SOL    HW274772   2.610   5.910   9.648 -0.7588  0.2923  0.2179
24732SOL     OW74773   2.682   9.663   3.241  0.3385  0.5065  0.5056
24732SOL    HW174774   2.755   9.616   3.280 -1.0469 -0.9421  1.4831
24732SOL    HW274775   2.656   9.610   3.166 -0.0769  0.6832  0.5216
24733SOL     OW74776   2.442   2.551   8.996 -0.3648  0.1494  0.5227
24733SOL    HW174777   2.487   2.603   9.062  0.2505  0.1346  0.1276
24733SOL    HW274778   2.450   2.603   8.916  1.9752 -1.3682 -0.3534
24734SOL     OW74779   9.666   3.247   3.604  0.4672 -0.4950  0.6554
24734SOL    HW174780   9.676   3.339   3.579 -0.8686 -1.3117 -3.8583
24734SOL    HW274781   9.659   3.248   3.699  0.9022  4.0027  0.8408
24735SOL     OW74782   6.528   7.378   8.232  0.0210  0.2064 -0.3884
24735SOL    HW174783   6.473   7.438   8.282 -1.8756 -1.8294  0.1304
24735SOL    HW274784   6.523   7.296   8.281  3.3780 -0.1793 -0.4809
24736SOL     OW74785   9.228   6.511   5.452  0.3731 -0.4457 -0.1333
24736SOL    HW174786   9.137   6.489   5.470 -0.4565  0.5802 -2.6839
24736SOL    HW274787   9.233   6.519   5.357  3.2025 -0.6879 -0.0987
24737SOL     OW74788   8.242   7.191   1.819  0.1314  0.1177 -0.3658
24737SOL    HW174789   8.209   7.270   1.863  0.1490  0.1425 -0.3973
24737SOL    HW274790   8.240   7.213   1.726 -1.0952 -0.3852 -0.4758
24738SOL     OW74791   7.705   0.239   4.116  0.4795  0.3615  0.1025
24738SOL    HW174792   7.625   0.204   4.155  1.2163 -1.9051 -0.2269
24738SOL    HW274793   7.693   0.334   4.117 -2.0327  0.1205  0.3991
24739SOL     OW74794   9.391   8.851   8.375  0.3175 -0.4677 -0.0526
24739SOL    HW174795   9.450   8.913   8.417  0.4106 -0.4013 -0.2793
24739SOL    HW274796   9.400   8.770   8.426  0.4355 -0.3923  0.0479
24740SOL     OW74797   7.220   2.583   8.569  0.0330  0.3644 -0.3208
24740SOL    HW174798   7.226   2.489   8.549  0.2643  0.1934  0.4988
24740SOL    HW274799   7.286   2.624   8.512 -0.2660  0.0680 -0.8885
24741SOL     OW74800   9.500   7.102   5.119 -0.5413  0.4505  0.0899
24741SOL    HW174801   9.521   7.061   5.203  0.0115 -0.6086 -0.5349
24741SOL    HW274802   9.579   7.088   5.066 -1.3697 -0.1188 -1.0370
24742SOL     OW74803   2.555   1.641   5.610  0.2509 -0.3870  0.2293
24742SOL    HW174804   2.499   1.705   5.654  0.6453 -0.2491  0.5406
24742SOL    HW274805   2.539   1.655   5.517  0.8864  0.6893  0.2639
24743SOL     OW74806   1.529   3.063   8.236  0.5780  0.1683 -0.2925
24743SOL    HW174807   1.441   3.026   8.234  0.5846  0.1900 -1.3205
24743SOL    HW274808   1.587   2.987   8.245  0.4673  0.1548  0.3817
24744SOL     OW74809   3.903   6.072   6.971  0.2512  0.3306 -0.4300
24744SOL    HW174810   3.831   6.119   6.928 -1.0671 -0.0153  1.3217
24744SOL    HW274811   3.923   6.125   7.048  2.0584  0.5317 -1.0043
24745SOL     OW74812   5.436   6.732   3.755  0.1949  0.5718  0.1141
24745SOL    HW174813   5.369   6.772   3.700 -0.1001 -1.6385 -1.2569
24745SOL    HW274814   5.389   6.703   3.833  0.1467  1.5715  0.4701
24746SOL     OW74815   8.273   1.331   0.802 -0.1047  0.1532  0.0951
24746SOL    HW174816   8.339   1.281   0.754  1.4945  1.3578  0.9272
24746SOL    HW274817   8.315   1.352   0.885 -1.6778  0.7083  0.7788
24747SOL     OW74818   8.189   3.480   3.083 -0.4152 -0.4738  0.2195
24747SOL    HW174819   8.171   3.393   3.118  0.7063 -0.0962  1.8483
24747SOL    HW274820   8.277   3.501   3.116  0.4411  0.2173 -2.2911
24748SOL     OW74821   0.651   5.515   3.080 -0.0792 -0.1518  0.1846
24748SOL    HW174822   0.645   5.513   3.175  1.0033 -0.2785  0.2674
24748SOL    HW274823   0.656   5.607   3.058 -1.1758 -0.0777  0.1668
24749SOL     OW74824   8.270   1.109   8.288 -0.3973 -0.1648 -0.4207
24749SOL    HW174825   8.219   1.156   8.354 -0.2237  2.1904 -1.8540
24749SOL    HW274826   8.204   1.070   8.231 -0.5477 -1.2532  0.4767
24750SOL     OW74827   0.756   6.064   4.172 -0.2479  0.4950 -0.0868
24750SOL    HW174828   0.817   6.130   4.140 -0.3381  0.5103 -0.2262
24750SOL    HW274829   0.673   6.086   4.131  0.1245 -0.8322 -1.6717
24751SOL     OW74830   3.254   6.713   5.718 -0.0437  0.0934  0.1737
24751SOL    HW174831   3.341   6.741   5.748 -0.6117 -0.1740  2.2837
24751SOL    HW274832   3.193   6.774   5.761 -1.0799 -2.0396  1.8949
24752SOL     OW74833   0.053   7.611   5.071  0.2098 -0.0809 -0.6032
24752SOL    HW174834   0.083   7.570   4.990 -0.6430 -2.4072  0.1635
24752SOL    HW274835   0.122   7.591   5.134  0.6696  1.3582 -0.6070
24753SOL     OW74836   7.160   1.300   6.124 -0.7762 -0.2998  0.2158
24753SOL    HW174837   7.161   1.216   6.171  3.0208 -2.2632 -2.7029
24753SOL    HW274838   7.112   1.281   6.043 -0.1391  0.3723 -0.3345
24754SOL     OW74839   2.390   8.075   5.714  0.7795 -0.5445  0.2995
24754SOL    HW174840   2.338   8.154   5.728 -0.1793 -0.9853 -0.6257
24754SOL    HW274841   2.411   8.076   5.621  3.7624  0.3847  0.8736
24755SOL     OW74842   9.139   4.769   0.429  0.4206  0.0050 -0.4587
24755SOL    HW174843   9.128   4.851   0.478 -0.1696  1.1422 -2.4042
24755SOL    HW274844   9.153   4.703   0.497 -2.0603  1.2061  1.3754
24756SOL     OW74845   6.919   5.590   4.531  0.5081  0.1496  0.4400
24756SOL    HW174846   6.875   5.556   4.453  0.5025  0.4690  0.3028
24756SOL    HW274847   7.012   5.573   4.516  0.7717  2.1741 -0.6613
24757SOL     OW74848   8.345   0.032   5.141  0.4374  0.4142 -0.3836
24757SOL    HW174849   8.361  -0.007   5.055  0.1954  0.0060 -0.2443
24757SOL    HW274850   8.310   0.119   5.121 -1.1746 -0.2825 -0.7388
24758SOL     OW74851   4.626   4.945   2.344 -0.0165  0.0204  0.1538
24758SOL    HW174852   4.576   4.975   2.268  1.4907 -1.7460 -1.6481
24758SOL    HW274853   4.574   4.972   2.419 -2.5575  0.2017 -1.5400
24759SOL     OW74854   2.888   4.769   4.194  0.1521 -0.1635  0.1163
24759SOL    HW174855   2.893   4.689   4.141  1.7036 -0.1762  0.2430
24759SOL    HW274856   2.810   4.814   4.161 -0.2774 -1.3270 -0.5258
24760SOL     OW74857   2.359   8.859   4.604 -0.0397 -0.6182 -0.5691
24760SOL    HW174858   2.295   8.820   4.546  0.6650 -1.2619 -0.9238
24760SOL    HW274859   2.411   8.917   4.548  0.8294 -1.4637 -0.6566
24761SOL     OW74860   2.926   3.197   7.350  0.2323 -0.1048 -0.4233
24761SOL    HW174861   2.895   3.276   7.395  1.4287  0.4631 -0.5683
24761SOL    HW274862   2.850   3.139   7.348 -0.3377  0.5787  0.7358
24762SOL     OW74863   7.685   0.508   4.124 -0.3637 -0.0384 -0.2603
24762SOL    HW174864   7.590   0.515   4.134 -0.7847 -0.4337 -3.1394
24762SOL    HW274865   7.706   0.571   4.056  1.9937  2.2496  2.3192
24763SOL     OW74866   5.594   6.205   3.997 -0.3027 -0.3336 -0.0490
24763SOL    HW174867   5.556   6.276   3.947  0.6341 -0.1547 -0.5183
24763SOL    HW274868   5.681   6.236   4.021 -1.6666  0.8558  4.2629
24764SOL     OW74869   1.670   4.422   9.326  0.4109  0.4672 -0.3435
24764SOL    HW174870   1.750   4.404   9.276  0.2224 -2.6311  0.2532
24764SOL    HW274871   1.700   4.427   9.417  0.2374  2.0509 -0.3559
24765SOL     OW74872   3.463   0.059   5.092 -0.5191 -0.7274 -0.0045
24765SOL    HW174873   3.434   0.046   5.183  0.4992  0.9699  0.6255
24765SOL    HW274874   3.408   0.001   5.040 -1.8229 -0.9920  1.5988
24766SOL     OW74875   7.209   0.506   8.737 -0.3494 -0.0816  0.5567
24766SOL    HW174876   7.275   0.441   8.713  0.9324  0.9627  1.1227
24766SOL    HW274877   7.144   0.500   8.667 -0.8764 -2.7290  1.1733
24767SOL     OW74878   7.167   8.638   4.184 -0.3296 -0.0081  0.0624
24767SOL    HW174879   7.125   8.723   4.181 -0.9235 -0.3238 -0.7563
24767SOL    HW274880   7.098   8.578   4.213  0.2232 -0.1409  1.1847
24768SOL     OW74881   1.554   9.687   5.264  0.5706  0.7293 -0.5506
24768SOL    HW174882   1.488   9.674   5.333  0.6326  0.5294 -0.5296
24768SOL    HW274883   1.635   9.705   5.312  0.4438  1.4200 -0.5787
24769SOL     OW74884   7.251   8.263   3.507 -0.0793  0.4900  0.2463
24769SOL    HW174885   7.346   8.274   3.501 -0.0499 -0.1986 -0.7769
24769SOL    HW274886   7.220   8.344   3.549  0.9792  0.5979  0.8311
24770SOL     OW74887   3.831   7.954   2.906  0.6601 -0.1984  0.6125
24770SOL    HW174888   3.798   7.971   2.995  1.8625 -1.8352  1.4119
24770SOL    HW274889   3.919   7.991   2.906  0.4195  0.4105 -0.1556
24771SOL     OW74890   0.917   1.880   9.272  0.0293 -0.0863  0.7809
24771SOL    HW174891   0.893   1.790   9.295 -1.8314  0.2840  0.4108
24771SOL    HW274892   0.835   1.928   9.273  0.8470  1.4049 -0.0566
24772SOL     OW74893   6.758   1.337   6.609  0.2697  0.6346 -0.7117
24772SOL    HW174894   6.734   1.246   6.592 -0.1992  0.5889  0.1495
24772SOL    HW274895   6.769   1.375   6.521 -1.5108  0.2515 -1.1604
24773SOL     OW74896   9.070   7.373   8.770 -0.4706  0.3360  0.3863
24773SOL    HW174897   9.036   7.329   8.848  0.0224  0.5759  0.7384
24773SOL    HW274898   8.999   7.366   8.706 -0.3433 -1.1546  0.3581
24774SOL     OW74899   8.739   0.288   7.452  0.6388  0.1288  0.1836
24774SOL    HW174900   8.686   0.246   7.520  0.9966  1.0902  1.0827
24774SOL    HW274901   8.795   0.218   7.419  0.1746 -0.4428  0.5823
24775SOL     OW74902   5.556   4.281   4.225  0.1318 -0.3488 -0.6364
24775SOL    HW174903   5.584   4.271   4.134  1.9480 -0.9481 -0.0547
24775SOL    HW274904   5.637   4.280   4.276 -0.8588 -0.3748  1.0345
24776SOL     OW74905   0.952   5.139   6.967  0.1109 -0.1542 -0.0793
24776SOL    HW174906   0.869   5.104   7.001  0.5627 -0.5182  0.6536
24776SOL    HW274907   0.941   5.234   6.970 -0.1786 -0.1970  0.2649
24777SOL     OW74908   4.633   6.686   8.155  0.0372 -0.4160 -0.0034
24777SOL    HW174909   4.608   6.761   8.208  0.2274  0.7493 -1.5069
24777SOL    HW274910   4.729   6.688   8.154  0.0386 -0.5465 -0.2257
24778SOL     OW74911   9.119   0.558   3.993  0.0026  0.1378  0.0547
24778SOL    HW174912   9.172   0.602   3.927  2.4452 -1.3095  0.8947
24778SOL    HW274913   9.109   0.623   4.063  1.6542  0.1470  0.3260
24779SOL     OW74914   1.963   8.007   6.762 -0.2297  0.0848 -0.6311
24779SOL    HW174915   1.888   7.960   6.724  0.1348 -0.6010 -0.5089
24779SOL    HW274916   2.034   7.993   6.699 -0.6283  2.1891 -1.6538
24780SOL     OW74917   3.210   9.180   5.591 -0.1596 -0.2717 -0.1205
24780SOL    HW174918   3.261   9.105   5.620  0.9491  0.4386 -0.1796
24780SOL    HW274919   3.128   9.143   5.559  1.3563 -1.7646 -2.6080
24781SOL     OW74920   3.266   2.070   9.247  0.5866 -0.0331  0.3045
24781SOL    HW174921   3.181   2.086   9.206  1.6990 -0.6475 -2.4671
24781SOL    HW274922   3.265   1.977   9.268  0.9709 -0.3128 -0.8391
24782SOL     OW74923   7.257   3.092   1.003 -0.2977  0.0513 -0.4233
24782SOL    HW174924   7.203   3.137   1.069 -2.0307  2.6348 -3.3360
24782SOL    HW274925   7.225   3.125   0.919  2.4835 -2.2406 -2.5972
24783SOL     OW74926   9.949   3.226   4.030 -0.3623  0.1433  0.2490
24783SOL    HW174927  10.044   3.231   4.041 -0.6421  1.6548  2.7242
24783SOL    HW274928   9.921   3.317   4.020 -1.7767  0.0280  2.4365
24784SOL     OW74929   8.794   9.458   1.349 -0.1486 -0.0790 -0.0980
24784SOL    HW174930   8.704   9.429   1.331 -0.0953 -1.1010  1.1316
24784SOL    HW274931   8.798   9.465   1.444  0.3627  2.4162 -0.2523
24785SOL     OW74932   3.130   7.748   3.333  0.4629 -0.0469 -0.1855
24785SOL    HW174933   3.134   7.844   3.336  1.3741 -0.0337 -1.4148
24785SOL    HW274934   3.058   7.729   3.273 -0.5422 -0.1689  1.0080
24786SOL     OW74935   4.465   7.061   4.632  0.7134  0.0051  0.2069
24786SOL    HW174936   4.407   7.133   4.654  0.4155 -0.2422  0.2282
24786SOL    HW274937   4.434   6.987   4.685  1.6619  0.1424  0.9801
24787SOL     OW74938   7.928   7.825   1.049 -0.2855 -0.1529 -0.0241
24787SOL    HW174939   7.956   7.877   1.124 -0.2467 -0.3513  0.0986
24787SOL    HW274940   8.008   7.812   0.998 -0.4197  0.4929 -0.4162
24788SOL     OW74941   7.236   4.915   1.796 -0.5470 -0.3437 -0.2996
24788SOL    HW174942   7.283   4.832   1.803  0.2595  0.0367 -1.0385
24788SOL    HW274943   7.182   4.905   1.717  0.7258  0.3683 -1.3139
24789SOL     OW74944   4.199   5.910   2.878  0.4548 -0.0174 -0.3512
24789SOL    HW174945   4.105   5.893   2.871  0.7389 -1.3093 -2.0553
24789SOL    HW274946   4.225   5.871   2.961 -0.1800 -1.7382 -0.9143
24790SOL     OW74947   1.626   4.410   3.352  0.7964  0.1130 -0.1138
24790SOL    HW174948   1.553   4.471   3.347  1.8903  1.5409  0.7054
24790SOL    HW274949   1.591   4.334   3.399 -0.6926 -0.1273 -1.5047
24791SOL     OW74950   7.052   6.109   5.431 -0.1906  0.5579 -0.1316
24791SOL    HW174951   7.056   6.198   5.395 -1.3232  0.4080 -0.6708
24791SOL    HW274952   7.100   6.055   5.368  0.6244  0.7935  0.2704
24792SOL     OW74953   3.976   7.188   5.954 -0.3691 -0.0306 -0.2439
24792SOL    HW174954   4.063   7.182   5.915 -0.6045 -1.1622 -0.6143
24792SOL    HW274955   3.931   7.256   5.904  0.2753  0.5292 -0.0789
24793SOL     OW74956   5.517   5.122   0.182  0.1191  0.1989  0.0310
24793SOL    HW174957   5.608   5.139   0.206 -0.3368  1.4406  0.9567
24793SOL    HW274958   5.466   5.158   0.254 -1.2301  1.9902 -1.7298
24794SOL     OW74959   7.620   9.847   5.356 -0.5260 -0.2580  0.1928
24794SOL    HW174960   7.612   9.786   5.429 -0.5107 -0.1559  0.2815
24794SOL    HW274961   7.696   9.817   5.307  0.9704  1.0782  1.5875
24795SOL     OW74962   1.827   1.582   6.478 -0.0322 -0.3126  0.3991
24795SOL    HW174963   1.780   1.582   6.395 -0.1104  2.1120  0.3657
24795SOL    HW274964   1.785   1.515   6.530 -1.0982 -0.7127 -0.9311
24796SOL     OW74965   1.075   9.667   4.416  0.5489 -0.4685 -0.5017
24796SOL    HW174966   1.091   9.584   4.461  2.1508  0.2080  0.2628
24796SOL    HW274967   1.154   9.718   4.431  0.4796  0.4213 -2.7573
24797SOL     OW74968   2.834   2.838   7.173  0.5151 -0.5164 -0.1553
24797SOL    HW174969   2.772   2.896   7.217 -0.6554 -1.9202  0.1257
24797SOL    HW274970   2.918   2.856   7.215  0.7223  2.5533 -1.6141
24798SOL     OW74971   9.351   9.199   1.922  0.0832  0.0308  0.3887
24798SOL    HW174972   9.348   9.257   1.998 -0.7445  0.7312 -0.1568
24798SOL    HW274973   9.259   9.182   1.901  0.2827 -2.3543  1.1649
24799SOL     OW74974   4.567   7.535   0.256 -0.3855 -0.3106  0.0213
24799SOL    HW174975   4.533   7.592   0.325 -0.4245  0.0603 -0.3006
24799SOL    HW274976   4.625   7.473   0.301  0.0379  0.2894  0.3070
24800SOL     OW74977   0.959   6.138   5.908  0.2405  0.2434  0.1229
24800SOL    HW174978   0.938   6.130   6.001 -0.2815 -1.8140 -0.1347
24800SOL    HW274979   0.887   6.189   5.871  0.0279  0.3654  0.7060
24801SOL     OW74980   7.796   4.375   7.561 -0.4978  0.0796  0.1970
24801SOL    HW174981   7.833   4.399   7.477  0.1409  0.5786  0.6091
24801SOL    HW274982   7.721   4.434   7.573 -0.0801  0.5793  0.3551
24802SOL     OW74983   3.138   9.679   7.193 -0.8742  0.0680 -0.7283
24802SOL    HW174984   3.111   9.665   7.102  1.3358 -0.6111 -1.3528
24802SOL    HW274985   3.229   9.648   7.196 -0.4978  1.1712  1.4329
24803SOL     OW74986   8.391   5.221   2.093  0.2285 -0.6189 -0.3861
24803SOL    HW174987   8.349   5.241   2.177 -0.4129 -0.8789 -0.6382
24803SOL    HW274988   8.354   5.285   2.032 -0.5349 -1.4494 -0.8190
24804SOL     OW74989   9.851   2.354   6.450 -0.3495 -0.4391 -0.5980
24804SOL    HW174990   9.775   2.395   6.492 -0.7369 -0.9585 -0.7791
24804SOL    HW274991   9.899   2.312   6.521 -0.3318 -0.2599 -0.5057
24805SOL     OW74992   7.514   6.744   7.129  0.2501  0.6348  0.2950
24805SOL    HW174993   7.451   6.726   7.198  0.1453 -0.7703 -0.1294
24805SOL    HW274994   7.598   6.756   7.174 -0.2550  2.4368  0.8545
24806SOL     OW74995   8.874   4.981   0.296  0.1840 -0.4744  0.1862
24806SOL    HW174996   8.807   4.984   0.364 -1.7418  1.6605 -1.6212
24806SOL    HW274997   8.938   5.046   0.323  1.0424 -1.7958  1.4164
24807SOL     OW74998   3.462   0.677   4.058  0.0589  0.7474  0.6823
24807SOL    HW174999   3.500   0.748   4.109  0.7373  1.3885 -0.6606
24807SOL    HW275000   3.367   0.692   4.061  0.0993  0.8471  1.6096
24808SOL     OW75001   5.986   7.605   8.385 -0.1858  0.8206  0.1082
24808SOL    HW175002   6.022   7.684   8.426  0.6009 -0.3312  1.7016
24808SOL    HW275003   5.908   7.585   8.436 -0.5337  0.6972 -0.4626
24809SOL     OW75004   7.202   0.827   4.280  0.5861  0.0022  0.0595
24809SOL    HW175005   7.274   0.840   4.341  0.9257  1.7862 -0.6611
24809SOL    HW275006   7.244   0.804   4.197  0.1788 -1.4400  0.2299
24810SOL     OW75007   0.401   4.526   5.878 -0.4406 -0.1953 -0.0519
24810SOL    HW175008   0.445   4.486   5.803  1.2952  1.7394 -0.1633
24810SOL    HW275009   0.384   4.616   5.850  0.1200  0.5263  1.7929
24811SOL     OW75010   6.364   6.016   8.402  1.0277 -0.1520  0.0921
24811SOL    HW175011   6.416   5.938   8.383  0.9458 -0.1469 -0.1550
24811SOL    HW275012   6.401   6.049   8.484  0.2618 -1.1477  0.8757
24812SOL     OW75013   0.667   6.644   0.104 -0.5287  0.3505 -0.2202
24812SOL    HW175014   0.710   6.690   0.176 -0.5466 -1.3246  0.9137
24812SOL    HW275015   0.730   6.647   0.032  0.7396 -0.4657  0.8172
24813SOL     OW75016   6.849   3.912   3.998  0.2919 -0.9013 -0.2167
24813SOL    HW175017   6.755   3.925   3.987  0.5691  0.0725 -1.7484
24813SOL    HW275018   6.872   3.845   3.934  0.3845 -2.4796  1.3907
24814SOL     OW75019   7.891   6.198   2.219  0.0146  0.1655  0.1195
24814SOL    HW175020   7.923   6.256   2.288 -1.2771  1.7310 -0.5328
24814SOL    HW275021   7.849   6.256   2.156  0.3999 -1.3068 -1.5774
24815SOL     OW75022   1.219   5.386   4.075 -0.1540  0.0651  0.1320
24815SOL    HW175023   1.284   5.443   4.116  0.3664  0.7958 -1.6156
24815SOL    HW275024   1.220   5.411   3.983 -0.6709 -2.0795 -0.5105
24816SOL     OW75025   9.703   8.444   0.664 -0.1237  0.2061 -0.6069
24816SOL    HW175026   9.791   8.477   0.647 -0.4422  1.2802 -0.1966
24816SOL    HW275027   9.646   8.503   0.615 -0.5464 -1.3993 -2.1586
24817SOL     OW75028   7.285   7.590   0.332 -0.1277 -0.4067  0.2285
24817SOL    HW175029   7.283   7.499   0.302  0.2806 -1.9347  4.2316
24817SOL    HW275030   7.370   7.599   0.376  0.2483  2.2764 -0.8515
24818SOL     OW75031   9.968   8.298   0.424 -0.2660  0.1466  0.4547
24818SOL    HW175032   9.880   8.281   0.389  0.4609  0.4114 -1.6638
24818SOL    HW275033   9.978   8.235   0.495 -1.2341 -1.6963 -0.9375
24819SOL     OW75034   6.027   8.417   1.010 -0.0800 -0.5367 -0.7710
24819SOL    HW175035   6.085   8.363   1.063  0.0663 -0.5654 -0.9611
24819SOL    HW275036   6.083   8.457   0.944  0.2940  1.8495  0.8691
24820SOL     OW75037   9.645   7.323   6.116  0.0674  0.6642  0.2295
24820SOL    HW175038   9.589   7.388   6.159 -1.1807 -1.1914  1.5636
24820SOL    HW275039   9.618   7.326   6.024 -0.1570  1.8167  0.3121
24821SOL     OW75040   2.945   1.258   8.044  0.0230 -0.0917 -0.5181
24821SOL    HW175041   2.881   1.228   8.109 -1.2942  2.3840 -0.5607
24821SOL    HW275042   3.027   1.264   8.092  0.8039 -4.7525 -0.7899
24822SOL     OW75043   7.842   1.575   8.533 -0.2100  0.2353 -0.1941
24822SOL    HW175044   7.935   1.555   8.535 -0.5290 -1.3672  0.4538
24822SOL    HW275045   7.831   1.632   8.457  1.1864 -0.1507 -0.7152
24823SOL     OW75046   6.369   3.079   0.625  0.1328  0.0295 -0.0052
24823SOL    HW175047   6.418   3.075   0.543 -0.3970  0.0955 -0.3298
24823SOL    HW275048   6.295   3.019   0.612 -1.3760  1.8918 -0.5476
24824SOL     OW75049   9.909   4.933   4.713 -0.3802 -0.4509  0.0112
24824SOL    HW175050   9.861   4.884   4.780 -0.8555  1.9994  1.6197
24824SOL    HW275051   9.849   4.938   4.639 -1.7409  0.5687  1.1218
24825SOL     OW75052   7.727   6.914   1.217  0.4872 -0.4417 -0.1092
24825SOL    HW175053   7.679   6.848   1.167 -1.8061 -0.1152  1.5329
24825SOL    HW275054   7.789   6.863   1.269 -0.6030 -1.2418  0.4346
24826SOL     OW75055   0.379   0.867   7.712  0.0929 -0.3624 -0.5825
24826SOL    HW175056   0.348   0.920   7.785  2.0017  1.1952 -0.8322
24826SOL    HW275057   0.303   0.857   7.655 -0.7248  0.6887  0.2903
24827SOL     OW75058   4.226   6.485   8.781  0.1339  0.2322  0.4414
24827SOL    HW175059   4.161   6.441   8.727 -0.4625  1.0014  0.5099
24827SOL    HW275060   4.237   6.429   8.858 -0.5180  0.1388  0.4681
24828SOL     OW75061   1.090   4.992   9.407  0.1767  0.5709  0.5818
24828SOL    HW175062   1.148   5.032   9.471  0.2382 -0.3051  1.0970
24828SOL    HW275063   1.011   4.969   9.456  0.2037 -0.0593  0.3467
24829SOL     OW75064   2.255   8.336   7.650 -0.2386  0.1837 -0.5348
24829SOL    HW175065   2.290   8.409   7.702  1.5592 -1.3182  0.4998
24829SOL    HW275066   2.324   8.317   7.586 -0.9685 -0.1962 -1.2245
24830SOL     OW75067   7.508   4.066   2.800  0.3971 -0.4376  0.0354
24830SOL    HW175068   7.597   4.069   2.767  0.2588 -0.5530 -0.3539
24830SOL    HW275069   7.511   4.113   2.883  0.3822  1.4694 -1.0051
24831SOL     OW75070   0.044   2.698   6.392  0.1190  0.4985 -0.2422
24831SOL    HW175071   0.074   2.775   6.343 -0.6776 -0.0475 -1.6464
24831SOL    HW275072   0.097   2.626   6.357  1.6330  0.5363  1.8324
24832SOL     OW75073   3.000   6.413   1.368  0.9243  0.4165 -0.4099
24832SOL    HW175074   2.919   6.420   1.419  1.0795  2.3351 -0.3557
24832SOL    HW275075   2.977   6.450   1.282  1.4793  0.0832 -0.7042
24833SOL     OW75076   2.458   1.790   3.111  0.3972 -0.3150 -0.2917
24833SOL    HW175077   2.497   1.726   3.170 -1.4400 -0.8713  0.3879
24833SOL    HW275078   2.424   1.858   3.169  0.0969  0.0010 -0.8315
24834SOL     OW75079   5.463   6.927   1.738  0.0417 -0.2319 -0.2369
24834SOL    HW175080   5.549   6.887   1.731 -0.2625 -0.8436 -0.5108
24834SOL    HW275081   5.476   7.002   1.796  0.8806  0.0497 -0.7793
24835SOL     OW75082   3.279   3.109   3.217 -0.6782  0.5525 -0.0198
24835SOL    HW175083   3.225   3.170   3.167  0.5344  1.6979  0.0149
24835SOL    HW275084   3.358   3.097   3.163  0.7656  1.9925  1.6631
24836SOL     OW75085   4.491   1.596   4.956 -0.0678 -0.1830  0.3277
24836SOL    HW175086   4.461   1.660   4.891  0.9617  0.4898  0.4977
24836SOL    HW275087   4.440   1.517   4.938 -0.8469  0.4666 -0.3422
24837SOL     OW75088   1.969   1.394   2.959 -0.7467  0.4144 -0.1024
24837SOL    HW175089   1.944   1.365   3.047  0.5023 -0.7081 -0.0885
24837SOL    HW275090   2.050   1.348   2.941 -0.3636  1.5359 -1.3938
24838SOL     OW75091   9.084   1.828   5.245  0.2092  0.0370  1.1872
24838SOL    HW175092   9.175   1.859   5.242 -0.3203  1.6741 -1.5620
24838SOL    HW275093   9.081   1.759   5.179 -0.8117  0.9876  0.1956
24839SOL     OW75094   2.337   7.393   3.745 -0.5732  0.3720 -0.6740
24839SOL    HW175095   2.411   7.399   3.684  0.2245  0.6503  0.2830
24839SOL    HW275096   2.365   7.330   3.811 -0.5851  1.5110  0.4713
24840SOL     OW75097   8.556   6.148   8.648 -0.2120 -0.0778 -0.1716
24840SOL    HW175098   8.634   6.093   8.658 -0.7990 -1.1092 -1.0471
24840SOL    HW275099   8.591   6.235   8.629  0.7436  0.0416  1.8989
24841SOL     OW75100   1.337   4.390   5.021  0.4070  0.3670 -0.2083
24841SOL    HW175101   1.365   4.380   4.930  1.0374  0.4724 -0.0328
24841SOL    HW275102   1.280   4.466   5.021  0.8868  0.7309 -0.4142
24842SOL     OW75103   1.493   6.328   1.551 -0.6315 -0.5905  0.2631
24842SOL    HW175104   1.494   6.233   1.565 -0.5640 -0.6935 -0.4399
24842SOL    HW275105   1.543   6.341   1.471 -1.4101 -0.0507 -0.1502
24843SOL     OW75106   1.276   2.357   2.978 -0.2416 -0.5147  0.4937
24843SOL    HW175107   1.300   2.279   2.928  0.1999  0.2003 -0.4532
24843SOL    HW275108   1.357   2.384   3.021 -0.0155  0.2415 -0.3666
24844SOL     OW75109   1.702   2.665   5.308 -0.2895  0.3295 -0.5871
24844SOL    HW175110   1.686   2.579   5.270  1.1975  0.6183 -2.0044
24844SOL    HW275111   1.615   2.698   5.331 -0.9704 -1.1280 -0.9641
24845SOL     OW75112   8.809   1.713   0.057  0.3471 -0.1233 -0.6100
24845SOL    HW175113   8.865   1.716  -0.020  1.9577 -1.9503  0.3914
24845SOL    HW275114   8.723   1.687   0.024  1.0898 -1.2194 -1.7788
24846SOL     OW75115   3.708   2.992   7.255 -0.0171 -0.4657  0.0151
24846SOL    HW175116   3.796   2.961   7.274 -0.2492  0.1039  2.2976
24846SOL    HW275117   3.708   3.084   7.280 -0.5331  0.3537 -2.6303
24847SOL     OW75118   0.776   2.181   6.653  0.6815 -0.3829 -0.3652
24847SOL    HW175119   0.772   2.275   6.636  1.2162 -0.4512 -0.9226
24847SOL    HW275120   0.694   2.147   6.616  0.6036 -0.1708 -0.3938
24848SOL     OW75121   7.994   9.666   4.308  0.4027 -0.5718  0.3078
24848SOL    HW175122   8.083   9.702   4.304 -1.3082  4.4773  0.0613
24848SOL    HW275123   7.974   9.662   4.402  0.1891  0.6584  0.3372
24849SOL     OW75124   7.684   7.902   4.288  0.4654  0.0826  0.8250
24849SOL    HW175125   7.676   7.892   4.383  1.4597 -0.3429  0.8813
24849SOL    HW275126   7.699   7.995   4.274 -2.2158  0.6053  0.8491
24850SOL     OW75127   4.150   6.966   3.247  0.4081  0.0499 -0.0142
24850SOL    HW175128   4.123   7.054   3.274 -0.3317  0.0269 -0.6374
24850SOL    HW275129   4.232   6.951   3.294  1.0114  1.4259 -0.5689
24851SOL     OW75130   3.045   6.134   0.446  0.2406  0.2263  0.4672
24851SOL    HW175131   3.118   6.089   0.404 -0.2059  0.6855 -0.8338
24851SOL    HW275132   3.042   6.221   0.405 -0.2696  0.6629  1.3817
24852SOL     OW75133   7.252   0.854   6.008 -0.1366  0.5397 -0.0956
24852SOL    HW175134   7.265   0.949   6.012 -0.9471  0.6372  0.3782
24852SOL    HW275135   7.318   0.824   5.945  0.3816  1.3637  0.0373
24853SOL     OW75136   7.878   7.674   2.299  0.0620 -0.4829  0.1686
24853SOL    HW175137   7.918   7.615   2.364  0.0236  0.7509  1.3603
24853SOL    HW275138   7.784   7.657   2.307  0.0331 -0.1144  0.6806
24854SOL     OW75139   5.755   5.681   5.076  0.3749  0.3194  0.0287
24854SOL    HW175140   5.714   5.607   5.121 -0.8294  1.8077  1.5229
24854SOL    HW275141   5.838   5.693   5.122  0.9702 -0.5683 -0.7630
24855SOL     OW75142   6.885   7.958   4.385 -0.1751  0.4469 -0.4493
24855SOL    HW175143   6.860   8.050   4.372 -0.7835  0.4880  0.9119
24855SOL    HW275144   6.981   7.959   4.384 -0.1705  0.9445 -1.3010
24856SOL     OW75145   7.244   9.007   6.547 -0.7039 -0.1377 -0.6404
24856SOL    HW175146   7.320   8.973   6.594 -0.5226 -0.8518 -1.4246
24856SOL    HW275147   7.281   9.049   6.469 -1.1442 -1.2832 -1.4973
24857SOL     OW75148   0.830   4.212   8.378 -0.5660  0.2687 -0.0363
24857SOL    HW175149   0.781   4.132   8.360 -0.7819  0.5442 -0.6721
24857SOL    HW275150   0.764   4.280   8.389 -0.4405  0.1921  1.4940
24858SOL     OW75151   2.323   0.966   8.066  0.2347  0.1257 -0.2054
24858SOL    HW175152   2.415   0.968   8.093  0.0643  0.0097  0.4142
24858SOL    HW275153   2.274   0.963   8.149 -0.3554  1.3110 -0.4925
24859SOL     OW75154   7.562   6.316   6.171  0.0675  0.2780  0.0318
24859SOL    HW175155   7.621   6.313   6.096 -0.5334 -0.9643 -0.4205
24859SOL    HW275156   7.476   6.295   6.135 -0.4553  0.9229  0.8649
24860SOL     OW75157   4.567   0.700   8.144  0.0553 -0.6083  0.7501
24860SOL    HW175158   4.641   0.684   8.202  0.7355 -0.7360 -0.1174
24860SOL    HW275159   4.504   0.631   8.164  0.9451 -1.5788  0.2893
24861SOL     OW75160   1.342   2.516   8.766  0.0862  0.0719  0.2572
24861SOL    HW175161   1.305   2.440   8.722 -0.2812  1.3470 -1.7601
24861SOL    HW275162   1.360   2.578   8.696  1.5357  1.3902  1.7054
24862SOL     OW75163   1.830   6.900   3.180 -0.3900  0.3952 -0.0680
24862SOL    HW175164   1.901   6.848   3.142 -1.4437 -0.0799 -1.5399
24862SOL    HW275165   1.831   6.879   3.273  0.3905 -0.8454 -0.3344
24863SOL     OW75166   2.802   2.475   9.097  0.4335  0.0407 -0.1141
24863SOL    HW175167   2.778   2.392   9.138 -1.0631  1.0363  1.1220
24863SOL    HW275168   2.870   2.512   9.154 -1.3672  1.2377  1.3943
24864SOL     OW75169   8.317   6.637   4.182 -0.1462  0.5051 -0.2976
24864SOL    HW175170   8.378   6.644   4.108 -0.3428 -0.3545 -0.5501
24864SOL    HW275171   8.371   6.651   4.260  0.1620  0.8543 -0.5689
24865SOL     OW75172   5.902   6.532   8.970 -0.0080 -0.6624  0.2169
24865SOL    HW175173   5.841   6.589   8.923  0.1233 -0.3302  0.4488
24865SOL    HW275174   5.907   6.569   9.058  0.7398 -0.5319  0.1222
24866SOL     OW75175   3.493   5.346   1.686 -0.1057 -0.1413  0.2058
24866SOL    HW175176   3.543   5.427   1.684  0.1571 -0.3127 -0.1567
24866SOL    HW275177   3.407   5.369   1.650  0.0885 -0.1055 -0.2379
24867SOL     OW75178   3.586   9.701   3.556 -0.2020  0.9227  0.3643
24867SOL    HW175179   3.642   9.644   3.609 -1.0356  0.6655  0.9700
24867SOL    HW275180   3.636   9.713   3.475  0.1810 -0.3152  0.3903
24868SOL     OW75181   7.081   5.331   9.002  0.2918 -0.2327 -0.5920
24868SOL    HW175182   7.107   5.296   8.917 -0.0597  1.5421 -1.4548
24868SOL    HW275183   7.012   5.394   8.983 -1.2164 -1.2077  1.2028
24869SOL     OW75184   1.874   9.307   8.258 -0.3052  0.3738 -0.0296
24869SOL    HW175185   1.868   9.260   8.175 -0.2255  0.6001 -0.1638
24869SOL    HW275186   1.806   9.374   8.252 -0.5903  0.1102  0.2667
24870SOL     OW75187   9.094   7.298   4.816  0.3341 -0.0685  0.5357
24870SOL    HW175188   9.136   7.343   4.743 -2.0255 -0.5031 -1.2481
24870SOL    HW275189   9.036   7.235   4.774 -2.2298  0.6456  2.7109
24871SOL     OW75190   7.466   0.764   0.812 -0.2052 -0.2722 -0.1155
24871SOL    HW175191   7.467   0.738   0.905 -0.7436  0.0277 -0.0168
24871SOL    HW275192   7.412   0.843   0.811 -1.2302 -0.9486 -0.8446
24872SOL     OW75193   7.756   4.147   1.075  0.1832 -0.7180 -0.3123
24872SOL    HW175194   7.744   4.161   0.981  0.2332 -0.2925 -0.2564
24872SOL    HW275195   7.848   4.170   1.091 -0.0431 -0.0068 -0.0184
24873SOL     OW75196   5.275  -0.001   9.719 -0.4506 -0.0958 -1.0872
24873SOL    HW175197   5.244   0.012   9.630 -0.2475  1.2026 -0.9864
24873SOL    HW275198   5.370  -0.010   9.710 -0.5025 -0.7382 -1.0643
24874SOL     OW75199   6.881   8.963   5.110  0.4837  0.5038 -0.0360
24874SOL    HW175200   6.900   9.054   5.135  2.1667  0.4364 -0.8868
24874SOL    HW275201   6.897   8.913   5.189  2.7761  0.6344 -0.3326
24875SOL     OW75202   7.972   8.221   7.624  0.0542 -0.0681 -0.1144
24875SOL    HW175203   7.915   8.297   7.615 -1.2567 -1.1997 -2.0487
24875SOL    HW275204   7.915   8.150   7.653  0.5758 -1.0460 -1.3539
24876SOL     OW75205   5.428   7.506   9.509  0.5869  0.2662 -0.0530
24876SOL    HW175206   5.432   7.427   9.562 -0.3217  1.0945  1.2970
24876SOL    HW275207   5.480   7.570   9.557  0.2220  0.8741 -0.4560
24877SOL     OW75208   8.152   5.714   7.143 -0.0948  0.5227 -0.2095
24877SOL    HW175209   8.095   5.668   7.205  0.8355  0.2580  0.4697
24877SOL    HW275210   8.099   5.722   7.063 -0.7631 -0.5018  0.1096
24878SOL     OW75211   4.073   7.443   2.499 -0.0080  0.4084  0.1036
24878SOL    HW175212   4.095   7.469   2.588  0.1908  1.5686 -0.2624
24878SOL    HW275213   4.043   7.352   2.506  4.4720 -1.2725  0.7340
24879SOL     OW75214   3.506   5.229   0.074  0.0147 -0.1166 -0.0712
24879SOL    HW175215   3.492   5.187  -0.012 -1.3160 -0.3149  0.2278
24879SOL    HW275216   3.501   5.323   0.056  0.7242 -0.1253 -0.3612
24880SOL     OW75217   5.952   4.977   9.464  0.8467  0.3194  0.2670
24880SOL    HW175218   5.958   4.884   9.483  0.7610  0.5104  1.3435
24880SOL    HW275219   5.953   4.983   9.369  0.9997 -0.7652  0.1877
24881SOL     OW75220   0.269   0.449   3.687 -0.2676 -0.1198  0.1495
24881SOL    HW175221   0.203   0.452   3.618  0.7813 -2.6114 -1.0537
24881SOL    HW275222   0.242   0.376   3.743  1.2774 -1.0197 -0.2208
24882SOL     OW75223   4.262   8.210   2.033 -0.1742 -0.4220 -0.4293
24882SOL    HW175224   4.171   8.203   2.062 -0.6360 -1.0586 -1.9663
24882SOL    HW275225   4.257   8.226   1.939  1.3114 -0.9305 -0.6243
24883SOL     OW75226   5.655   9.657   7.264 -0.1364  0.2338 -0.2979
24883SOL    HW175227   5.587   9.594   7.242 -1.3636  0.8646  1.4458
24883SOL    HW275228   5.637   9.681   7.355  0.2004  3.1915 -0.9182
24884SOL     OW75229   9.522   0.781   8.672 -0.3619  0.2544 -0.3864
24884SOL    HW175230   9.494   0.834   8.747  1.7029  1.4675 -0.3814
24884SOL    HW275231   9.532   0.693   8.707  0.0087  0.6852  0.6393
24885SOL     OW75232   8.910   3.507   3.067 -0.4005  0.3448 -0.2385
24885SOL    HW175233   8.912   3.471   3.156  0.6816 -0.6233 -0.6285
24885SOL    HW275234   9.003   3.522   3.046 -0.7542  2.6759 -0.3889
24886SOL     OW75235   2.116   7.184   2.775  0.5083  0.4397  0.6347
24886SOL    HW175236   2.156   7.240   2.708 -0.7195 -1.5950 -1.9897
24886SOL    HW275237   2.165   7.102   2.771 -2.3768 -1.3739 -1.2256
24887SOL     OW75238   9.020   4.751   8.062 -0.0890  0.3644  0.2875
24887SOL    HW175239   8.937   4.799   8.063  0.7974  2.2159 -2.8102
24887SOL    HW275240   8.995   4.662   8.035 -1.3058  0.0145  2.2939
24888SOL     OW75241   1.706   8.578   0.154 -0.7576  0.0361  0.3651
24888SOL    HW175242   1.625   8.627   0.168  0.7785  1.9844  3.4415
24888SOL    HW275243   1.720   8.582   0.059 -1.7659  3.9848  0.2142
24889SOL     OW75244   5.007   4.491   1.852 -0.0707  0.7052  0.4830
24889SOL    HW175245   4.959   4.409   1.853 -0.1524  0.6892 -1.5416
24889SOL    HW275246   4.943   4.557   1.827  0.5405  0.9575 -0.4905
24890SOL     OW75247   2.619   8.807   8.357  0.8959  0.0765 -0.2120
24890SOL    HW175248   2.578   8.876   8.306 -0.2130  0.4294  1.0991
24890SOL    HW275249   2.692   8.850   8.401  1.0336  0.0833 -0.4442
24891SOL     OW75250   5.568   9.462   5.726  0.2858  0.3703  0.4083
24891SOL    HW175251   5.510   9.535   5.748 -2.1812 -0.6656 -2.0314
24891SOL    HW275252   5.647   9.504   5.692 -0.0335  1.8585  1.3763
24892SOL     OW75253   1.684   4.609   3.614  0.3339  0.7241 -0.4429
24892SOL    HW175254   1.683   4.539   3.550  1.1385  2.4765 -2.5079
24892SOL    HW275255   1.650   4.685   3.566  0.8525  2.0880  1.2555
24893SOL     OW75256   4.141   7.839   9.605  0.1465 -0.2707  0.1475
24893SOL    HW175257   4.165   7.781   9.678 -1.5483 -1.7833 -0.4285
24893SOL    HW275258   4.091   7.909   9.646  0.5880 -0.2253  0.6263
24894SOL     OW75259   7.707   6.704   0.504  0.2277 -0.4293 -0.0668
24894SOL    HW175260   7.762   6.638   0.547  1.6005 -0.2852 -1.4881
24894SOL    HW275261   7.721   6.784   0.555  0.1539 -0.7597  0.4730
24895SOL     OW75262   5.973   3.177   5.604  0.1756 -0.6221 -0.1091
24895SOL    HW175263   6.052   3.199   5.554 -0.1984  2.0366  0.3203
24895SOL    HW275264   6.000   3.185   5.696 -0.9036  2.0828  0.0700
24896SOL     OW75265   5.919   3.223   6.581 -0.0818  0.3211 -0.2623
24896SOL    HW175266   5.918   3.136   6.541  0.1250  0.5303 -0.7284
24896SOL    HW275267   5.980   3.215   6.654 -0.9202 -0.2291  0.4019
24897SOL     OW75268   7.856   8.983   5.253  0.4311  0.2761 -0.0456
24897SOL    HW175269   7.761   8.985   5.255  0.4345  2.0869  0.0718
24897SOL    HW275270   7.879   9.001   5.161  0.6715 -0.9373 -0.2369
24898SOL     OW75271   1.637   5.280   0.821 -0.5519  0.1266  0.2501
24898SOL    HW175272   1.668   5.212   0.762 -0.8171  0.0811  0.1615
24898SOL    HW275273   1.543   5.288   0.801 -0.5646  0.3685  0.4055
24899SOL     OW75274   1.965   1.617   3.751  0.2622 -0.4419  0.5872
24899SOL    HW175275   1.921   1.701   3.739  1.9943  0.3835 -0.4875
24899SOL    HW275276   2.015   1.627   3.832 -0.6371 -0.9926  1.2327
24900SOL     OW75277   0.484   5.786   4.644 -0.3793  0.2848 -0.1649
24900SOL    HW175278   0.389   5.783   4.637 -0.3910  0.0673  0.0908
24900SOL    HW275279   0.513   5.697   4.626 -0.1959  0.4375 -0.6358
24901SOL     OW75280   7.243   7.688   1.241 -0.3747 -0.0385  0.1524
24901SOL    HW175281   7.257   7.599   1.209 -0.2092 -0.3254  1.0101
24901SOL    HW275282   7.161   7.716   1.199 -0.6415 -0.7380  0.1930
24902SOL     OW75283   4.395   3.932   3.619  0.5134  0.1071  0.1816
24902SOL    HW175284   4.336   3.857   3.616  1.1856 -0.4311  0.1783
24902SOL    HW275285   4.344   4.002   3.658 -0.0027 -0.4654  0.5336
24903SOL     OW75286   4.355   2.614   8.480  0.0849 -0.4892  0.1906
24903SOL    HW175287   4.407   2.588   8.557 -0.5425 -0.4090  0.6469
24903SOL    HW275288   4.411   2.678   8.435  0.7163 -0.9954  0.2399
24904SOL     OW75289   8.243   9.870   6.557 -0.1136 -0.2071 -0.2069
24904SOL    HW175290   8.330   9.855   6.594 -0.1597  1.0465  0.4784
24904SOL    HW275291   8.256   9.941   6.494 -0.3852 -1.0418 -1.2298
24905SOL     OW75292   9.285   0.592   7.010  0.0451 -0.4906 -0.3033
24905SOL    HW175293   9.209   0.638   6.975 -0.2859 -0.9593 -0.2114
24905SOL    HW275294   9.311   0.642   7.087  0.2087  0.0199 -0.6889
24906SOL     OW75295   7.148   7.134   0.640 -0.2245 -0.5099  0.0480
24906SOL    HW175296   7.165   7.153   0.548 -0.0690 -1.5363 -0.1419
24906SOL    HW275297   7.060   7.097   0.642 -0.1353 -0.7178  0.2785
24907SOL     OW75298   3.351   0.253   9.111 -0.3962  0.2874  0.3418
24907SOL    HW175299   3.379   0.199   9.185  1.3579  0.4814 -0.1431
24907SOL    HW275300   3.278   0.204   9.072 -0.5132 -0.4380  1.4213
24908SOL     OW75301   6.765   1.302   5.603 -0.3297  0.0027  0.0270
24908SOL    HW175302   6.826   1.341   5.666  0.4446  1.4698 -1.5344
24908SOL    HW275303   6.703   1.372   5.584 -0.9559 -0.6458 -0.3289
24909SOL     OW75304   4.383   0.222   7.845  0.3823  0.3428  0.8002
24909SOL    HW175305   4.335   0.259   7.770  1.2176  0.5904  0.3699
24909SOL    HW275306   4.470   0.260   7.837  0.9094 -0.7912  1.0519
24910SOL     OW75307   4.481   9.546   6.821  0.2578 -0.2686 -0.0073
24910SOL    HW175308   4.470   9.512   6.910 -0.2965 -1.3635 -0.4756
24910SOL    HW275309   4.419   9.496   6.768  1.9170 -0.9866 -1.3632
24911SOL     OW75310   2.484   3.632   7.081  0.0274  0.0495 -0.2429
24911SOL    HW175311   2.573   3.595   7.085 -0.4232 -1.2958 -1.6362
24911SOL    HW275312   2.495   3.714   7.034  0.5594 -0.0560 -0.3146
24912SOL     OW75313   8.105   5.109   1.513  0.1210  0.0292 -0.7955
24912SOL    HW175314   8.071   5.053   1.443 -1.2982  0.0177 -0.1154
24912SOL    HW275315   8.093   5.058   1.593  2.0982 -0.1237 -0.5472
24913SOL     OW75316   8.265   2.270   6.610 -0.2827  0.3145  0.3327
24913SOL    HW175317   8.328   2.236   6.674  0.5804 -0.0180 -0.6513
24913SOL    HW275318   8.179   2.255   6.650  0.1880 -0.7643  0.9962
24914SOL     OW75319   7.716   9.539   0.023  0.4450  0.1196 -0.2040
24914SOL    HW175320   7.731   9.627  -0.012 -0.2988  1.0141  1.6366
24914SOL    HW275321   7.742   9.544   0.115 -0.8852 -1.2172  0.2891
24915SOL     OW75322   5.826   5.293   4.229  0.1317  0.1299 -0.1138
24915SOL    HW175323   5.850   5.370   4.281  0.9618  0.5384 -1.0788
24915SOL    HW275324   5.780   5.329   4.154 -2.8792 -0.5775  1.2413
24916SOL     OW75325   7.985   3.898   4.182 -0.1770 -0.2971 -0.1429
24916SOL    HW175326   7.995   3.821   4.239  0.2308 -0.2850 -0.1938
24916SOL    HW275327   7.961   3.861   4.097 -1.4859 -0.2793  0.1855
24917SOL     OW75328   1.696   7.221   3.407 -0.0435  0.2927  0.0414
24917SOL    HW175329   1.633   7.178   3.351 -1.3600  1.3846  0.6234
24917SOL    HW275330   1.685   7.314   3.389  0.0945  0.6159  1.4859
24918SOL     OW75331   7.322   0.751   8.915  0.3150  0.2947 -0.1892
24918SOL    HW175332   7.235   0.726   8.948  0.1571 -0.6160 -1.2196
24918SOL    HW275333   7.373   0.670   8.920  0.6946  0.4870 -0.8310
24919SOL     OW75334   6.551   2.282   1.972  0.7600  0.1035  0.4585
24919SOL    HW175335   6.611   2.346   1.934  0.6129  1.3688  2.2229
24919SOL    HW275336   6.523   2.228   1.898  1.4873  1.5911 -0.9577
24920SOL     OW75337   5.419   3.933   5.972 -0.1632 -0.0344 -0.4091
24920SOL    HW175338   5.338   3.911   5.925  0.0341 -1.5815 -0.0811
24920SOL    HW275339   5.466   3.850   5.978  0.5651  0.4539  1.0995
24921SOL     OW75340   7.184   2.821   8.152  0.4293  0.0289  0.3545
24921SOL    HW175341   7.225   2.767   8.085 -0.4596 -2.1940  1.4951
24921SOL    HW275342   7.162   2.760   8.222 -2.0102  1.5975  1.1008
24922SOL     OW75343   1.778   4.439   7.501  0.2685  0.3187  0.5080
24922SOL    HW175344   1.853   4.380   7.496 -0.5519 -1.1534  3.3006
24922SOL    HW275345   1.703   4.383   7.477 -0.3615  0.5719  1.7939
24923SOL     OW75346   6.215   2.918   2.845 -0.2675  0.1737 -0.6920
24923SOL    HW175347   6.181   2.909   2.934 -0.2667  0.4912 -0.6579
24923SOL    HW275348   6.147   2.881   2.789 -1.0433  1.5294 -0.6873
24924SOL     OW75349   7.042   6.813   4.747 -0.4823  0.6568 -0.0374
24924SOL    HW175350   7.039   6.879   4.816  3.2195  1.4147 -0.3832
24924SOL    HW275351   7.109   6.845   4.686  0.4709 -2.7011 -0.9738
24925SOL     OW75352   5.210   5.126   3.779  0.0187  0.0413  0.0543
24925SOL    HW175353   5.253   5.210   3.794 -1.5076  0.8868 -0.0842
24925SOL    HW275354   5.185   5.096   3.866  0.1355 -0.0192  0.0659
24926SOL     OW75355   1.748   6.152   0.332  0.3241 -0.6468  0.2199
24926SOL    HW175356   1.665   6.115   0.301  0.0894  0.3947 -0.4289
24926SOL    HW275357   1.809   6.078   0.330 -0.7473 -1.6046  1.4046
24927SOL     OW75358   9.989   0.439   0.806  0.1596  0.6916  0.7464
24927SOL    HW175359   9.895   0.458   0.804  0.1926  0.7977  0.1269
24927SOL    HW275360  10.031   0.525   0.803  0.3521  0.6820 -4.1006
24928SOL     OW75361   4.145   0.406   5.117  0.5218  0.6187 -0.0697
24928SOL    HW175362   4.200   0.472   5.075 -0.3903 -0.3275 -3.0727
24928SOL    HW275363   4.085   0.377   5.047 -0.6042 -1.7655  1.7173
24929SOL     OW75364   4.811   9.168   9.794 -0.1248  0.0339  0.1743
24929SOL    HW175365   4.825   9.152   9.700 -2.3496  0.4277 -0.2656
24929SOL    HW275366   4.868   9.104   9.837  0.9677 -0.1343 -1.4205
24930SOL     OW75367   0.669   1.348   2.164  0.1390  0.6671  0.2529
24930SOL    HW175368   0.698   1.410   2.231  1.7880 -0.1499  0.3454
24930SOL    HW275369   0.664   1.264   2.210 -2.1707  0.6968  0.1556
24931SOL     OW75370   5.381   7.052   3.803 -0.3154 -0.0865  1.1297
24931SOL    HW175371   5.458   6.997   3.817 -0.4108 -0.3844  0.5242
24931SOL    HW275372   5.358   7.038   3.711 -0.8917  0.2611  1.2156
24932SOL     OW75373   2.885   1.034   8.417  0.2011  0.0828  0.4298
24932SOL    HW175374   2.927   0.948   8.422 -4.6077 -2.5429  1.4244
24932SOL    HW275375   2.872   1.060   8.508 -0.4128  0.7383  0.1621
24933SOL     OW75376   0.788   8.193   2.810 -0.1384 -0.3110 -0.0400
24933SOL    HW175377   0.852   8.243   2.760 -0.2787 -0.5984 -0.5099
24933SOL    HW275378   0.712   8.187   2.753 -0.7704  0.4496  0.7057
24934SOL     OW75379   4.472   1.826   5.961 -0.1892 -0.1903  0.3038
24934SOL    HW175380   4.379   1.817   5.943 -0.1884 -0.2949  0.3499
24934SOL    HW275381   4.514   1.767   5.898 -0.1342  0.0941  0.0698
24935SOL     OW75382   9.107   5.559   6.566 -0.0011 -0.1476 -0.2317
24935SOL    HW175383   9.179   5.606   6.523 -0.6351 -0.7407 -2.0273
24935SOL    HW275384   9.062   5.514   6.494 -1.4277 -0.7797  1.0203
24936SOL     OW75385   6.740   2.824   8.753 -0.2106 -0.3043 -0.1183
24936SOL    HW175386   6.802   2.840   8.682 -0.0323 -1.3054 -0.1987
24936SOL    HW275387   6.739   2.729   8.764 -1.3676 -0.2679  0.2186
24937SOL     OW75388   9.238   7.324   0.397  0.2860 -0.1562  0.3172
24937SOL    HW175389   9.256   7.344   0.305 -1.5335 -0.2581 -0.0993
24937SOL    HW275390   9.296   7.252   0.418  0.3300 -0.5044 -0.9372
24938SOL     OW75391   0.957   7.466   1.234 -0.2201 -0.1862  0.2792
24938SOL    HW175392   0.891   7.431   1.174 -0.8973  1.7643 -0.2060
24938SOL    HW275393   1.006   7.530   1.181 -0.6571  1.3821  1.6925
24939SOL     OW75394   5.361   2.129   3.812  0.3754  0.0515 -0.1533
24939SOL    HW175395   5.320   2.133   3.898 -0.7338  0.9142 -0.7040
24939SOL    HW275396   5.296   2.166   3.752  1.0096 -0.7972 -1.4136
24940SOL     OW75397   0.959   0.966   5.845 -0.1373  0.2029  0.6644
24940SOL    HW175398   0.910   0.912   5.908  1.3694 -0.7570  1.0872
24940SOL    HW275399   0.918   0.947   5.761 -0.5555 -0.5101  1.0109
24941SOL     OW75400   3.522   0.333   2.139 -0.5350  0.2708 -0.1873
24941SOL    HW175401   3.468   0.375   2.073  0.8900 -0.4088 -1.8663
24941SOL    HW275402   3.612   0.346   2.108  0.1223 -0.8936  1.1223
24942SOL     OW75403   2.086   9.992   8.376 -0.4731  0.1619 -0.2516
24942SOL    HW175404   2.000   9.989   8.334 -0.3324  2.0015 -0.7949
24942SOL    HW275405   2.119   9.903   8.370 -0.5302  0.2136 -4.0598
24943SOL     OW75406   7.037   2.370   3.001  0.2975 -0.2757  0.2557
24943SOL    HW175407   7.038   2.335   2.913 -0.2902 -0.5506  0.3597
24943SOL    HW275408   7.118   2.421   3.007 -1.3711  2.9332 -1.7344
24944SOL     OW75409   2.656   3.720   1.846  0.1006  0.3205 -0.1103
24944SOL    HW175410   2.668   3.648   1.784 -0.4752 -0.9612  1.1971
24944SOL    HW275411   2.695   3.688   1.928 -0.5286  1.3330  0.6110
24945SOL     OW75412   5.186   9.352   7.067 -0.1550  0.0101 -0.4259
24945SOL    HW175413   5.159   9.345   7.159 -1.2192  1.3477 -0.6085
24945SOL    HW275414   5.153   9.272   7.026 -0.3287 -0.2440  0.1997
24946SOL     OW75415   6.544   9.496   4.692 -0.1792  0.3501  0.3020
24946SOL    HW175416   6.626   9.546   4.686 -0.6673  0.9823 -3.0180
24946SOL    HW275417   6.522   9.475   4.602 -3.3157 -0.4707  1.1409
24947SOL     OW75418   5.749   4.897   5.968 -0.3362 -0.2564  0.5392
24947SOL    HW175419   5.734   4.836   5.895  0.0723  1.7916 -1.3521
24947SOL    HW275420   5.843   4.916   5.963 -0.3042 -0.1029  1.6298
24948SOL     OW75421   4.641   6.348   0.821 -0.0228 -0.2166  0.1609
24948SOL    HW175422   4.692   6.390   0.751 -1.0456  1.0899  0.1644
24948SOL    HW275423   4.557   6.394   0.820 -0.6700 -1.3450  1.1210
24949SOL     OW75424   6.864   7.907   9.061 -0.5779  0.1996 -0.0983
24949SOL    HW175425   6.873   7.893   8.967 -0.0698  0.7467 -0.1369
24949SOL    HW275426   6.950   7.884   9.097 -0.2899  1.4249  0.0437
24950SOL     OW75427   4.757   9.521   1.898  0.0637  0.2213 -0.3718
24950SOL    HW175428   4.811   9.472   1.835 -0.1672 -0.7795  0.1800
24950SOL    HW275429   4.818   9.582   1.939  0.1270  1.2049 -1.8520
24951SOL     OW75430   6.256   5.023   4.267 -1.0793 -0.2892 -0.1849
24951SOL    HW175431   6.319   5.019   4.195 -0.9883  1.7374 -0.2609
24951SOL    HW275432   6.205   4.943   4.257  0.7108 -1.4138 -0.8088
24952SOL     OW75433   7.737   5.424   1.362  0.9356 -0.1879  0.1831
24952SOL    HW175434   7.689   5.343   1.344  0.0814  0.5369 -0.8756
24952SOL    HW275435   7.699   5.489   1.303  2.9064  0.5331 -0.3692
24953SOL     OW75436   9.537   8.253   9.299  0.1475  0.0117 -0.1510
24953SOL    HW175437   9.520   8.169   9.257  0.1402  1.1566 -2.5862
24953SOL    HW275438   9.459   8.305   9.282  1.2852  1.4439 -1.2353
24954SOL     OW75439   6.046   9.028   4.324  0.3791  0.0711  0.0652
24954SOL    HW175440   5.986   9.063   4.258  1.5841 -1.6917 -2.1091
24954SOL    HW275441   5.989   9.001   4.396 -1.0146  1.8777 -0.2908
24955SOL     OW75442   7.675   7.526   0.132  0.5841 -0.5797  0.1620
24955SOL    HW175443   7.759   7.535   0.087  0.5851 -0.1224  0.2522
24955SOL    HW275444   7.695   7.540   0.224  0.0434  2.0746 -0.0384
24956SOL     OW75445   6.964   3.219   7.850  0.5540 -0.2214  0.4511
24956SOL    HW175446   6.948   3.166   7.928 -1.9872 -0.9927 -0.4817
24956SOL    HW275447   6.909   3.296   7.862  1.7426  0.6614  0.3331
24957SOL     OW75448   9.684   6.558   8.885 -0.5587  0.5809  0.0746
24957SOL    HW175449   9.694   6.473   8.927  0.1598  0.2398 -0.7471
24957SOL    HW275450   9.608   6.597   8.928 -0.4842 -0.1838  0.9388
24958SOL     OW75451   9.323   3.822   6.838 -0.4581  0.3135  0.2092
24958SOL    HW175452   9.389   3.851   6.775 -1.2376  0.7598 -0.4225
24958SOL    HW275453   9.351   3.734   6.864 -0.0001  0.2132 -0.5953
24959SOL     OW75454   7.766   2.775   2.606 -0.0784  0.5894  0.1099
24959SOL    HW175455   7.693   2.737   2.558  1.7311 -0.2676 -2.1442
24959SOL    HW275456   7.801   2.842   2.548  2.5906 -0.9302 -0.2014
24960SOL     OW75457   0.834   0.590   8.954 -0.7028  0.1745 -0.1780
24960SOL    HW175458   0.929   0.592   8.964 -0.7022 -0.2545 -0.0820
24960SOL    HW275459   0.818   0.529   8.882 -0.8489  1.1842 -1.0318
24961SOL     OW75460   6.990   0.104   2.451  0.5172 -0.0891 -0.4331
24961SOL    HW175461   7.061   0.044   2.472 -0.1810 -0.8709 -0.2244
24961SOL    HW275462   7.011   0.136   2.363  0.7682 -0.8604 -0.6645
24962SOL     OW75463   9.316   0.269   4.555 -0.1015  0.0992  0.6439
24962SOL    HW175464   9.350   0.347   4.599  1.3567 -0.8331  1.2524
24962SOL    HW275465   9.307   0.204   4.625  0.2273 -0.7702 -0.0964
24963SOL     OW75466   5.742   9.304   3.383  0.7914 -0.1553  0.3542
24963SOL    HW175467   5.735   9.209   3.390  3.8468 -0.6234 -1.3585
24963SOL    HW275468   5.776   9.331   3.468  0.2038 -0.5840  0.7420
24964SOL     OW75469   3.962   5.567   6.270 -0.1400 -0.5020  0.1438
24964SOL    HW175470   3.998   5.491   6.315 -1.2387 -1.2383 -0.1719
24964SOL    HW275471   4.036   5.604   6.222  0.1205 -2.3082 -0.9522
24965SOL     OW75472   3.616   7.539   8.264  0.2409 -0.8206  0.2046
24965SOL    HW175473   3.570   7.481   8.203  0.7270 -0.4368 -0.5455
24965SOL    HW275474   3.667   7.597   8.207  0.7585 -0.5006  0.9883
24966SOL     OW75475   2.464   6.026   5.048 -0.3792 -0.1347 -0.1443
24966SOL    HW175476   2.405   6.049   4.976  0.9855  2.5349 -0.5156
24966SOL    HW275477   2.425   6.066   5.125  0.1986  0.4453 -0.1435
24967SOL     OW75478   6.501   4.654   2.373 -0.2026  0.2884 -0.0733
24967SOL    HW175479   6.447   4.626   2.447 -1.9013 -0.8702 -1.6704
24967SOL    HW275480   6.480   4.746   2.360  0.7354  0.7365  1.3495
24968SOL     OW75481   4.046   1.530   7.774  0.0200  0.4366 -0.1879
24968SOL    HW175482   4.054   1.607   7.719 -0.9794  0.1016 -0.8288
24968SOL    HW275483   4.112   1.542   7.842 -0.5847  2.1883  0.1317
24969SOL     OW75484   0.387   7.645   2.669  0.1638 -0.6849  0.1108
24969SOL    HW175485   0.372   7.689   2.585 -0.6445  1.2570  1.2025
24969SOL    HW275486   0.481   7.652   2.684  0.1740 -0.1598 -0.1797
24970SOL     OW75487   6.415   7.839   6.317  0.7177  0.2930 -0.1754
24970SOL    HW175488   6.457   7.877   6.240  1.7510 -3.0539 -1.4213
24970SOL    HW275489   6.341   7.788   6.281 -1.3464  1.9064  1.5149
24971SOL     OW75490   0.772   5.007   1.283  0.1789 -0.0129  0.3401
24971SOL    HW175491   0.733   5.086   1.319 -0.3277 -0.1401  0.0933
24971SOL    HW275492   0.731   4.936   1.333 -1.0385 -0.2270 -0.9054
24972SOL     OW75493   9.919   6.442   6.696  0.0321  0.0999 -0.4588
24972SOL    HW175494   9.943   6.504   6.628  0.6643 -0.1583 -0.4782
24972SOL    HW275495   9.937   6.356   6.658 -0.8881 -0.1061 -0.4535
24973SOL     OW75496   8.857   9.175   1.886  0.7650 -0.7223  0.1207
24973SOL    HW175497   8.927   9.228   1.849  0.9415 -0.2124  1.1522
24973SOL    HW275498   8.887   9.153   1.974  0.0177 -1.2527  0.2576
24974SOL     OW75499   6.877   6.342   4.677 -0.2878 -0.0966  0.5838
24974SOL    HW175500   6.960   6.315   4.637 -0.8752 -1.0176 -0.0471
24974SOL    HW275501   6.812   6.282   4.640 -1.5414  1.7282 -0.2752
24975SOL     OW75502   3.019   9.306   4.232 -0.7062 -0.3102 -0.1266
24975SOL    HW175503   2.955   9.376   4.247  0.2113  0.9079 -1.6473
24975SOL    HW275504   3.063   9.330   4.151  1.4949 -1.2534  0.6999
24976SOL     OW75505   0.865   3.886   1.752  0.5838  0.4047  0.1131
24976SOL    HW175506   0.836   3.833   1.677 -0.5028  0.8151  0.2266
24976SOL    HW275507   0.844   3.833   1.829 -0.9519  1.1533  0.2538
24977SOL     OW75508   6.269   2.294   0.708 -0.0779  0.5371  0.3939
24977SOL    HW175509   6.349   2.333   0.742 -0.5603  1.0110  1.0277
24977SOL    HW275510   6.249   2.343   0.629  0.7692 -0.2216 -0.3069
24978SOL     OW75511   5.925   1.516   2.380 -0.4652 -0.0211 -0.1574
24978SOL    HW175512   5.957   1.452   2.317  1.6947  0.9953 -0.1597
24978SOL    HW275513   5.992   1.584   2.383 -0.7901  0.3163  2.7484
24979SOL     OW75514   0.728   1.613   7.903  0.5498  0.5628  0.3137
24979SOL    HW175515   0.700   1.523   7.892  0.7297  0.5637 -0.1471
24979SOL    HW275516   0.786   1.610   7.980  1.0796  0.1697 -0.0967
24980SOL     OW75517   0.586   9.233   5.681  0.2627  0.2503 -0.0230
24980SOL    HW175518   0.594   9.251   5.588 -0.5979 -2.3316 -0.6915
24980SOL    HW275519   0.511   9.174   5.688  0.9223 -0.4530  2.1576
24981SOL     OW75520   1.324   0.509   8.671  0.5325 -0.4322  0.0801
24981SOL    HW175521   1.243   0.488   8.625  0.7481 -0.2015 -0.4127
24981SOL    HW275522   1.297   0.566   8.743  0.3382  0.3062 -0.5548
24982SOL     OW75523   7.764   4.672   1.358 -0.2066  0.2665  0.2541
24982SOL    HW175524   7.739   4.739   1.295  0.8342  1.2931  0.8884
24982SOL    HW275525   7.771   4.592   1.307 -0.7931  0.7759 -0.6501
24983SOL     OW75526   6.118   6.478   6.165  0.0896  0.2572  0.3084
24983SOL    HW175527   6.080   6.516   6.086  1.1357 -0.7432 -0.7180
24983SOL    HW275528   6.077   6.392   6.173  0.7225 -0.0526  0.2733
24984SOL     OW75529   7.005   6.675   0.711  0.6001  0.0749  0.4884
24984SOL    HW175530   7.097   6.650   0.707  0.4445 -0.5964  0.9115
24984SOL    HW275531   6.988   6.691   0.804  0.5110  1.0691  0.3056
24985SOL     OW75532   2.724   4.325   9.179 -0.8509 -0.0101 -0.4382
24985SOL    HW175533   2.769   4.373   9.110  1.1878 -0.9374  0.1734
24985SOL    HW275534   2.677   4.392   9.228  1.3247  1.3325 -0.0472
24986SOL     OW75535   8.008   3.220   3.237 -0.3666 -0.9467 -0.1490
24986SOL    HW175536   8.058   3.139   3.250  1.5012  0.4518  2.2410
24986SOL    HW275537   7.932   3.210   3.294  0.3911 -0.6419  0.9384
24987SOL     OW75538   7.952   1.439   4.719 -0.4524 -0.1943 -0.2674
24987SOL    HW175539   7.988   1.385   4.789  1.2519  2.3436  0.9502
24987SOL    HW275540   8.000   1.412   4.640  1.8633  0.8553  0.7030
24988SOL     OW75541   9.561   2.080   6.220  0.1656  0.0446  0.0793
24988SOL    HW175542   9.577   2.035   6.137 -1.2039  0.2981 -0.3578
24988SOL    HW275543   9.465   2.086   6.225  0.2528  0.6189  1.3676
24989SOL     OW75544   1.512   5.200   0.337  0.3310  0.2123  0.1917
24989SOL    HW175545   1.451   5.203   0.264 -1.1373 -1.4100  1.2922
24989SOL    HW275546   1.533   5.107   0.348  2.2309  0.6329  0.4923
24990SOL     OW75547   0.381   6.883   5.135  0.4646  0.2762 -0.6452
24990SOL    HW175548   0.417   6.962   5.175 -0.0450  0.4180 -0.4602
24990SOL    HW275549   0.406   6.889   5.042 -0.1016  0.9603 -0.7565
24991SOL     OW75550   7.913   2.623   0.957 -0.0827  0.5752 -0.1997
24991SOL    HW175551   7.901   2.610   0.863  0.4924  3.6299 -0.7817
24991SOL    HW275552   7.827   2.649   0.990 -0.4800 -1.2655  0.3457
24992SOL     OW75553   0.833   3.660   7.993  0.2153 -0.3723  0.1364
24992SOL    HW175554   0.877   3.700   7.918  0.7982  1.0161  1.1635
24992SOL    HW275555   0.904   3.625   8.046  0.0053  0.5556  1.0635
24993SOL     OW75556   9.720   6.598   9.240  0.2951  0.0370  0.1452
24993SOL    HW175557   9.742   6.576   9.150  0.2810 -1.3294  0.4593
24993SOL    HW275558   9.803   6.620   9.281  0.4106 -0.1698  0.0208
24994SOL     OW75559   4.365   2.400   2.121  0.4944 -1.0499 -0.3449
24994SOL    HW175560   4.350   2.345   2.197  2.3255  1.7964  2.3185
24994SOL    HW275561   4.434   2.354   2.072  1.5029 -1.5048  1.4099
24995SOL     OW75562   3.734   8.475   9.425  0.4017  0.7183  0.2709
24995SOL    HW175563   3.692   8.502   9.507 -1.7073  0.1766 -0.5727
24995SOL    HW275564   3.752   8.557   9.379 -0.1964  0.9484  0.4418
24996SOL     OW75565   1.174   8.492   1.158 -0.0504 -0.2188  0.2066
24996SOL    HW175566   1.216   8.423   1.209  1.2606  0.3344 -0.0712
24996SOL    HW275567   1.212   8.573   1.193  1.3814  0.1536 -1.9903
24997SOL     OW75568   8.297   0.831   1.272  0.5226  0.3396 -0.0440
24997SOL    HW175569   8.275   0.757   1.329 -0.3027  1.9560  1.8281
24997SOL    HW275570   8.391   0.819   1.254  1.0171  0.1402  2.2928
24998SOL     OW75571   0.628   1.658   4.980  0.5427 -0.2582  0.0424
24998SOL    HW175572   0.580   1.669   5.061  1.6987  0.8153  0.6116
24998SOL    HW275573   0.621   1.743   4.935  1.5995 -0.1815 -0.0130
24999SOL     OW75574   5.994   0.646   6.603 -0.4056 -0.1622  0.9511
24999SOL    HW175575   5.913   0.696   6.594 -0.1613  0.1030  0.1347
24999SOL    HW275576   6.049   0.699   6.660  0.1078  0.8684 -0.4298
25000SOL     OW75577   8.922   7.802   5.070 -0.0301  0.3030  0.4661
25000SOL    HW175578   8.850   7.833   5.015 -0.2806  0.6367  0.9705
25000SOL    HW275579   8.965   7.734   5.019  0.2709  1.1963 -0.5135
25001SOL     OW75580   8.297   2.585   0.279  0.0280  0.7069  0.6799
25001SOL    HW175581   8.233   2.651   0.308 -2.4430 -1.3924  0.3909
25001SOL    HW275582   8.260   2.550   0.199  1.4726 -0.7880  0.6215
25002SOL     OW75583   9.718   8.641   9.381 -0.3776  0.1056  0.0987
25002SOL    HW175584   9.780   8.697   9.427  0.6593 -0.6439 -0.3400
25002SOL    HW275585   9.644   8.632   9.441  0.4416  0.0827  1.1358
25003SOL     OW75586   9.868   9.269   4.316  0.2578  0.3433  0.0199
25003SOL    HW175587   9.836   9.180   4.307 -1.9613  1.0972  0.0176
25003SOL    HW275588   9.905   9.290   4.230  1.9705 -0.9328  0.3738
25004SOL     OW75589   0.979   0.066   3.108  0.0178  0.2813 -0.1287
25004SOL    HW175590   0.965   0.084   3.201  2.1204  0.2077  0.2484
25004SOL    HW275591   1.062   0.019   3.105  0.2220  0.6993 -2.1015
25005SOL     OW75592   3.805   5.523   7.551  0.0237 -0.6214  0.4550
25005SOL    HW175593   3.869   5.561   7.491  0.5307 -2.4116 -0.1868
25005SOL    HW275594   3.762   5.454   7.501 -1.8488 -0.0360  1.1434
25006SOL     OW75595   2.867   0.174   3.636 -0.0601  0.3208  0.4293
25006SOL    HW175596   2.914   0.251   3.670 -0.0393  0.3366  0.3653
25006SOL    HW275597   2.929   0.133   3.576  0.9193 -1.1904  2.3457
25007SOL     OW75598   8.016   0.501   1.284 -0.0938 -0.3991 -0.1598
25007SOL    HW175599   8.004   0.481   1.377  0.1247  0.6140  0.1007
25007SOL    HW275600   7.955   0.574   1.268  0.2594 -0.2152 -0.6737
25008SOL     OW75601   5.069   3.349   6.241 -0.1593 -0.1517  0.4663
25008SOL    HW175602   5.158   3.341   6.207 -0.1982 -0.7383  0.5029
25008SOL    HW275603   5.059   3.275   6.301 -0.2551  0.5880  1.3974
25009SOL     OW75604   0.243   1.442   8.122 -0.0485 -0.5319 -0.3619
25009SOL    HW175605   0.270   1.511   8.183 -0.8529 -0.1009 -0.4744
25009SOL    HW275606   0.282   1.362   8.157  1.7684  0.1254 -0.7990
25010SOL     OW75607   0.705   5.895   2.927 -0.0568  0.2894  0.2762
25010SOL    HW175608   0.739   5.977   2.890 -1.1222  0.0094 -1.4121
25010SOL    HW275609   0.784   5.848   2.956  0.5961  1.7184  0.9014
25011SOL     OW75610   9.675   4.174   8.610 -0.1267 -0.0817 -1.1495
25011SOL    HW175611   9.652   4.108   8.545 -0.7220 -0.3099 -0.7144
25011SOL    HW275612   9.632   4.145   8.690  0.5859  0.2008 -0.6539
25012SOL     OW75613   1.906   0.263   7.179  0.3071 -0.3687  0.7464
25012SOL    HW175614   1.940   0.266   7.269 -0.8358 -2.1346  1.3033
25012SOL    HW275615   1.826   0.315   7.182 -0.6498 -1.8085  1.2386
25013SOL     OW75616   8.236   4.454   1.904  0.6098 -0.0886  1.2344
25013SOL    HW175617   8.259   4.398   1.830 -0.0605  0.5790  0.4852
25013SOL    HW275618   8.320   4.482   1.940  0.9448 -0.9192  1.1152
25014SOL     OW75619   1.599   4.488   3.924  0.1291  0.0485 -0.1386
25014SOL    HW175620   1.610   4.530   3.838  0.0923  2.0232  0.7824
25014SOL    HW275621   1.569   4.558   3.982 -2.3755 -1.7894  0.9661
25015SOL     OW75622   6.746   1.171   7.542 -0.4566 -0.5472  0.1400
25015SOL    HW175623   6.700   1.252   7.520 -0.3573 -0.5297 -0.0083
25015SOL    HW275624   6.765   1.131   7.457 -1.4608 -1.2681  0.2389
25016SOL     OW75625   7.533   7.608   2.276 -0.3884  0.1306  0.1658
25016SOL    HW175626   7.517   7.514   2.269 -0.0479  0.1297 -0.6101
25016SOL    HW275627   7.521   7.626   2.370 -2.6110 -0.2865  0.0246
25017SOL     OW75628   3.635   0.689   2.160 -0.2057  0.1102 -0.6007
25017SOL    HW175629   3.549   0.716   2.129 -0.4008  0.2085  0.0216
25017SOL    HW275630   3.625   0.677   2.254  0.9505  2.1353 -0.1522
25018SOL     OW75631   6.622   6.916   4.053 -0.2468  0.5865 -0.1095
25018SOL    HW175632   6.629   6.948   4.143 -2.1021  2.1247 -0.4526
25018SOL    HW275633   6.707   6.874   4.037  0.4420  0.9716  2.0623
25019SOL     OW75634   7.126   3.966   3.747  0.1413 -0.4483  0.0070
25019SOL    HW175635   7.041   3.961   3.703  0.4618  3.6739 -1.5210
25019SOL    HW275636   7.106   3.995   3.836 -0.1201 -2.7591  0.7768
25020SOL     OW75637   8.701   2.831   4.218 -0.0548 -0.0769  0.0954
25020SOL    HW175638   8.637   2.866   4.156 -1.2667 -1.1759  0.6867
25020SOL    HW275639   8.786   2.849   4.178 -0.8010 -1.8110 -2.4912
25021SOL     OW75640   3.550   2.151   5.075 -0.2782  0.1260  0.1574
25021SOL    HW175641   3.585   2.239   5.089 -0.4472  1.0280 -3.8556
25021SOL    HW275642   3.599   2.096   5.136  1.9335  2.5700  0.7808
25022SOL     OW75643   7.203   7.214   5.042  0.3982  0.1371 -0.3296
25022SOL    HW175644   7.156   7.293   5.067  1.3946  0.1991  1.5589
25022SOL    HW275645   7.287   7.245   5.007 -0.5765 -0.0011 -3.0378
25023SOL     OW75646   3.375   3.116   1.281  0.3406  0.7741 -0.6874
25023SOL    HW175647   3.452   3.062   1.300  1.3040  2.1111 -0.6111
25023SOL    HW275648   3.371   3.177   1.354 -1.3184  0.1938 -0.2626
25024SOL     OW75649   9.568   4.210   7.241  0.6834 -0.0286 -0.8331
25024SOL    HW175650   9.508   4.226   7.169  2.0752  0.0076 -2.0316
25024SOL    HW275651   9.547   4.279   7.305  0.0872  0.5616 -1.6439
25025SOL     OW75652   3.222   5.446   6.006 -0.5401  0.0128 -0.1634
25025SOL    HW175653   3.223   5.363   5.958 -0.3199 -0.3302  0.4206
25025SOL    HW275654   3.186   5.423   6.092 -2.4410  0.9085 -0.6753
25026SOL     OW75655   8.096   7.027   0.965 -0.2528 -0.5817 -0.3514
25026SOL    HW175656   8.025   7.090   0.957 -0.5368 -0.9163 -0.4779
25026SOL    HW275657   8.165   7.060   0.907 -0.6600 -0.7397 -0.9322
25027SOL     OW75658   9.661   6.434   2.678 -0.1705 -0.0913 -0.2135
25027SOL    HW175659   9.737   6.464   2.628 -0.9755 -0.2495 -1.5615
25027SOL    HW275660   9.587   6.445   2.619 -1.1773 -0.2007  0.9810
25028SOL     OW75661   3.732   5.999   1.883 -0.0844  0.5492  0.9077
25028SOL    HW175662   3.667   5.935   1.909  0.3414 -1.4297 -2.3418
25028SOL    HW275663   3.816   5.961   1.909  0.1495 -0.1525 -0.7627
25029SOL     OW75664   2.090   6.114   1.216  0.2974 -0.2260  0.5221
25029SOL    HW175665   2.164   6.175   1.219  2.2732 -2.5373  3.0633
25029SOL    HW275666   2.128   6.032   1.186 -1.7390 -0.9605 -0.1958
25030SOL     OW75667   8.630   2.743   0.036 -0.0863 -0.1204 -0.4616
25030SOL    HW175668   8.662   2.807   0.099  0.3560  0.1051 -0.9100
25030SOL    HW275669   8.536   2.761   0.030 -0.6338 -1.7179  1.9336
25031SOL     OW75670   4.125   5.702   9.102 -0.3557 -0.3187 -0.2273
25031SOL    HW175671   4.094   5.618   9.138 -1.5998  0.6555  1.0676
25031SOL    HW275672   4.094   5.702   9.012  0.5420 -1.6779 -0.5676
25032SOL     OW75673   0.853   3.759   2.501  0.1332  0.1436 -0.7023
25032SOL    HW175674   0.909   3.724   2.570 -1.2236  0.2021  0.4933
25032SOL    HW275675   0.793   3.688   2.481 -2.8058  1.6204  1.9126
25033SOL     OW75676   2.793   7.432   9.253  0.2909 -0.0891  0.2847
25033SOL    HW175677   2.793   7.526   9.271  0.7576 -0.0814  0.2578
25033SOL    HW275678   2.884   7.411   9.230  0.3510 -0.6919  1.0402
25034SOL     OW75679   7.164   0.237   1.700 -0.0105 -0.3611  0.5157
25034SOL    HW175680   7.137   0.165   1.644  1.4863 -0.4181 -0.1612
25034SOL    HW275681   7.092   0.246   1.763 -0.5286 -1.9873  0.2000
25035SOL     OW75682   3.970   1.370   1.174  0.0755 -0.6559 -0.4087
25035SOL    HW175683   4.055   1.351   1.213  0.3274  0.5170 -0.3428
25035SOL    HW275684   3.937   1.285   1.146  0.8150 -1.2548  0.4765
25036SOL     OW75685   4.624   6.049   4.799  0.4780  0.4280  0.1866
25036SOL    HW175686   4.670   6.011   4.724  0.0748 -0.8125  0.5556
25036SOL    HW275687   4.623   6.143   4.781 -0.2778  0.0910 -1.7446
25037SOL     OW75688   8.337   1.926   3.364  0.0362  0.1397  0.0826
25037SOL    HW175689   8.251   1.887   3.346  1.2997 -2.7700 -0.3279
25037SOL    HW275690   8.329   1.961   3.452 -0.7811 -2.8572  1.3438
25038SOL     OW75691   3.534   1.073   0.578  0.2228  0.1615  0.0153
25038SOL    HW175692   3.472   1.072   0.505 -1.5198 -2.7980  1.3501
25038SOL    HW275693   3.615   1.039   0.542  0.0767  0.8586 -1.0124
25039SOL     OW75694   0.551   1.723   1.329  0.7012 -0.2116 -0.1054
25039SOL    HW175695   0.530   1.815   1.315  0.5241  0.0179  1.5061
25039SOL    HW275696   0.539   1.682   1.243 -0.2396  1.0696 -0.6098
25040SOL     OW75697   5.124   4.480   3.323 -0.4569 -0.7010 -0.3934
25040SOL    HW175698   5.188   4.502   3.255  0.1495  0.5616  0.5415
25040SOL    HW275699   5.138   4.387   3.340  2.1562 -0.1749  0.7787
25041SOL     OW75700   4.057   2.008   5.310  0.7850 -0.8012 -0.1387
25041SOL    HW175701   4.125   2.000   5.243 -1.4650  2.6484 -3.2890
25041SOL    HW275702   4.093   2.071   5.373  1.5492 -1.1678 -0.2030
25042SOL     OW75703   9.570   5.271   1.919  0.5211  0.5250  0.3605
25042SOL    HW175704   9.505   5.258   1.850  0.4522  0.0470  0.5164
25042SOL    HW275705   9.525   5.243   1.999  0.9082  0.2333  0.4749
25043SOL     OW75706   8.692   4.711   5.177  0.1069  0.4935 -0.2370
25043SOL    HW175707   8.734   4.792   5.206 -0.8941  1.6719 -1.8666
25043SOL    HW275708   8.764   4.653   5.154  0.8460  1.0800  0.5633
25044SOL     OW75709   4.295   7.618   5.449 -0.0013  0.0182  0.0774
25044SOL    HW175710   4.372   7.567   5.425 -0.7660 -0.4575 -1.5414
25044SOL    HW275711   4.293   7.616   5.545  2.9188  1.4810  0.2668
25045SOL     OW75712   4.232   5.745   4.684  0.3844 -0.1753 -0.2340
25045SOL    HW175713   4.290   5.697   4.625 -0.5103 -1.1246 -0.3522
25045SOL    HW275714   4.291   5.807   4.729  0.9358  1.3404 -2.8227
25046SOL     OW75715   4.045   8.140   1.037  0.2042  0.4503 -0.3878
25046SOL    HW175716   4.103   8.126   1.112 -2.0769 -0.3493  1.3618
25046SOL    HW275717   4.094   8.106   0.962  2.7292  1.6319  0.6143
25047SOL     OW75718   8.145   7.980   8.429  0.6636 -0.1896 -0.2445
25047SOL    HW175719   8.144   7.884   8.430  3.3217 -0.2694  0.0905
25047SOL    HW275720   8.087   8.004   8.356 -0.3053 -2.0069 -0.1270
25048SOL     OW75721   2.862   6.733   3.268  0.0611  0.3139 -0.3627
25048SOL    HW175722   2.811   6.803   3.227 -1.7417 -0.8173 -0.1825
25048SOL    HW275723   2.871   6.760   3.359 -0.6626  0.3102 -0.2834
25049SOL     OW75724   9.694   9.550   9.716 -0.5183  0.3276 -0.2797
25049SOL    HW175725   9.761   9.482   9.715  0.0523  0.8810 -1.1719
25049SOL    HW275726   9.713   9.601   9.795 -0.0201  0.3411 -0.4036
25050SOL     OW75727   0.247   5.833   3.099  0.2745  0.3997  0.5131
25050SOL    HW175728   0.184   5.793   3.039  0.5773  1.1778 -0.3452
25050SOL    HW275729   0.251   5.772   3.173 -1.1878  0.1320  0.4183
25051SOL     OW75730   2.492   7.173   5.074  0.3436  0.2944 -0.1885
25051SOL    HW175731   2.528   7.261   5.082 -0.9452  0.7095  1.8891
25051SOL    HW275732   2.450   7.172   4.988 -0.4793  2.0505  0.1543
25052SOL     OW75733   2.198   9.415   8.846 -0.3956  0.0868  1.1053
25052SOL    HW175734   2.118   9.452   8.884  0.5177  2.7589  0.6173
25052SOL    HW275735   2.255   9.398   8.920 -0.5725  0.3279  1.2986
25053SOL     OW75736   3.648   2.746   9.188 -0.0121  0.4326  0.1473
25053SOL    HW175737   3.712   2.778   9.125  0.4782  0.0057  0.4232
25053SOL    HW275738   3.644   2.652   9.172 -0.4035  0.4257  0.2835
25054SOL     OW75739   7.720   5.102   3.848  0.4082  0.2057  0.0461
25054SOL    HW175740   7.693   5.182   3.894 -1.3947 -0.1332 -0.3529
25054SOL    HW275741   7.730   5.037   3.917 -1.6024 -0.1133  0.1045
25055SOL     OW75742   1.799   0.032   6.951  0.8500  0.1028 -0.4573
25055SOL    HW175743   1.803   0.116   6.998 -0.6407  0.1585 -0.3757
25055SOL    HW275744   1.889   0.001   6.951  1.0808  0.5903  1.5871
25056SOL     OW75745   3.445   0.788   4.331  0.1163  0.1978  0.0839
25056SOL    HW175746   3.508   0.852   4.299  0.1752  0.8169  1.3734
25056SOL    HW275747   3.417   0.821   4.417  2.0416 -2.6990  2.0284
25057SOL     OW75748   8.806   8.138   4.323  0.3771  0.6390 -0.0280
25057SOL    HW175749   8.755   8.165   4.246  0.1038  1.9603  0.5783
25057SOL    HW275750   8.896   8.157   4.299  0.3045  0.9248 -0.0908
25058SOL     OW75751   3.128   0.136   9.032 -0.0453  0.4780 -0.0360
25058SOL    HW175752   3.134   0.040   9.034  1.3479  0.5236 -0.6572
25058SOL    HW275753   3.070   0.158   9.104  0.8143 -0.7524  1.0848
25059SOL     OW75754   2.415   9.518   5.914  0.1223 -0.7672 -0.0382
25059SOL    HW175755   2.364   9.529   5.834 -0.0643  0.3719  0.2207
25059SOL    HW275756   2.362   9.460   5.969 -0.1888 -0.7961 -0.3655
25060SOL     OW75757   4.794   0.239   0.606  0.0533  0.0982 -0.2022
25060SOL    HW175758   4.796   0.335   0.606  0.0913  0.1057 -1.1654
25060SOL    HW275759   4.877   0.214   0.648 -0.0806  0.4772  0.3061
25061SOL     OW75760   5.704   4.269   5.449  0.2443  0.1960  0.0298
25061SOL    HW175761   5.756   4.344   5.422  1.0280  0.0876  1.1551
25061SOL    HW275762   5.731   4.253   5.539 -0.9128 -0.5865  0.2595
25062SOL     OW75763   5.643   3.107   4.893 -0.0383 -0.1058  0.3188
25062SOL    HW175764   5.639   3.173   4.962 -2.5396 -0.6243  0.7608
25062SOL    HW275765   5.607   3.151   4.816  0.4150 -0.2984 -0.0104
25063SOL     OW75766   2.571   4.905   3.068 -0.0118 -0.0723  0.7270
25063SOL    HW175767   2.606   4.857   2.992 -2.0058  0.4642 -0.6056
25063SOL    HW275768   2.649   4.933   3.116  1.3675  0.0067 -1.4027
25064SOL     OW75769   9.341   1.610   0.772  0.1913  0.1116  0.6038
25064SOL    HW175770   9.410   1.614   0.838  0.6479 -0.1867  0.1542
25064SOL    HW275771   9.323   1.516   0.762 -1.0805  0.2209  1.5221
25065SOL     OW75772   0.151   0.249   8.939  0.1695 -0.2317 -0.1506
25065SOL    HW175773   0.151   0.252   8.843  2.4109  4.0743 -0.2686
25065SOL    HW275774   0.189   0.164   8.960  1.8243 -0.4077 -3.2127
25066SOL     OW75775   5.977   7.927   4.671 -0.1647  0.1959 -0.3434
25066SOL    HW175776   6.043   7.962   4.731  0.2086  0.9478 -1.1818
25066SOL    HW275777   6.015   7.844   4.640  0.0973  0.3149 -0.3401
25067SOL     OW75778   0.100   7.721   9.872  0.2799  0.4425  0.2025
25067SOL    HW175779   0.100   7.816   9.861  3.3169  0.5143 -0.0852
25067SOL    HW275780   0.047   7.688   9.800 -0.8436  1.8953  0.3238
25068SOL     OW75781   2.342   9.571   5.119  0.3118  0.1037  0.0857
25068SOL    HW175782   2.305   9.561   5.031  0.6518 -0.0577 -0.0428
25068SOL    HW275783   2.271   9.546   5.178  0.5477 -1.3051 -0.1841
25069SOL     OW75784   8.789   1.955   9.142  0.6853 -0.0175 -0.5403
25069SOL    HW175785   8.705   1.999   9.135 -0.2272 -1.5998 -0.0509
25069SOL    HW275786   8.849   2.022   9.176 -0.7382  0.7239  0.6001
25070SOL     OW75787   5.647   6.796   4.437  0.1887 -0.1734  0.5098
25070SOL    HW175788   5.655   6.849   4.516 -1.1271  1.0371 -0.1081
25070SOL    HW275789   5.596   6.851   4.377  1.1156 -1.0580 -1.1690
25071SOL     OW75790   9.092   0.535   5.679 -0.2612  0.0510  0.7263
25071SOL    HW175791   9.050   0.615   5.646 -0.1292  0.1884  0.8947
25071SOL    HW275792   9.036   0.464   5.645 -0.4489  0.2181  0.6807
25072SOL     OW75793   9.062   5.401   5.538  0.5900 -0.4538 -0.3570
25072SOL    HW175794   8.996   5.347   5.494  0.6125 -0.7037 -0.0875
25072SOL    HW275795   9.081   5.354   5.619 -0.1866  0.5027  0.4049
25073SOL     OW75796   8.212   3.791   9.114 -0.1855  0.0606 -0.4254
25073SOL    HW175797   8.134   3.757   9.071  0.1721 -0.6060 -0.5437
25073SOL    HW275798   8.221   3.738   9.193  0.5208 -0.2893 -0.7405
25074SOL     OW75799   3.039   7.293   3.213 -0.0843  0.5353 -0.4537
25074SOL    HW175800   3.064   7.250   3.131 -3.0835  1.2673 -1.8921
25074SOL    HW275801   3.018   7.383   3.188  0.0373  1.1069  1.3407
25075SOL     OW75802   3.012   7.552   9.890 -0.1616 -0.3919  0.6871
25075SOL    HW175803   2.994   7.472   9.939 -1.2911 -0.1104  0.7501
25075SOL    HW275804   3.067   7.604   9.948  0.8688 -1.2507  0.5127
25076SOL     OW75805   2.369   2.001   2.410  0.5456 -0.0763 -0.4160
25076SOL    HW175806   2.385   2.095   2.418  2.5014 -0.4932  1.2544
25076SOL    HW275807   2.276   1.991   2.430  0.4563  1.4404  0.0659
25077SOL     OW75808   9.783   5.767   4.755  0.0745 -0.0154 -0.2629
25077SOL    HW175809   9.823   5.854   4.759  1.1012 -0.1906 -3.5117
25077SOL    HW275810   9.692   5.781   4.782  0.7798  1.5422  1.5972
25078SOL     OW75811   6.617   6.781   9.307 -0.2680 -0.0256  0.2681
25078SOL    HW175812   6.688   6.717   9.301 -1.0073 -0.7559 -1.2136
25078SOL    HW275813   6.658   6.859   9.345  1.1662 -0.6566  0.0784
25079SOL     OW75814   1.242   9.278   3.045 -0.1284 -0.3060 -0.4172
25079SOL    HW175815   1.176   9.289   2.977 -1.7473 -1.7980  0.8226
25079SOL    HW275816   1.323   9.261   2.997 -0.7733  0.7489 -1.9670
25080SOL     OW75817   9.623   3.817   3.483  0.1714  0.3488 -0.0690
25080SOL    HW175818   9.697   3.840   3.540 -0.1475  0.4105  0.3281
25080SOL    HW275819   9.663   3.786   3.402  0.6787 -1.0437  0.6745
25081SOL     OW75820   9.863   3.943   3.723 -0.7716  0.0216  0.0312
25081SOL    HW175821   9.859   3.951   3.818 -0.7838  0.1071  0.0238
25081SOL    HW275822   9.872   3.849   3.706 -0.6980  0.0135  0.1190
25082SOL     OW75823   6.241   9.354   9.148  0.6264 -0.4644  0.1566
25082SOL    HW175824   6.186   9.282   9.179 -0.2244  0.5039  0.9678
25082SOL    HW275825   6.298   9.375   9.222 -1.1466  1.6024  1.0346
25083SOL     OW75826   5.750   2.358   1.179  1.2528 -0.1272 -0.1197
25083SOL    HW175827   5.794   2.295   1.123  0.2954  0.6053 -1.7667
25083SOL    HW275828   5.755   2.441   1.132 -3.2410 -0.2754 -1.3440
25084SOL     OW75829   2.063   0.102   9.775  0.4457  1.0389  0.1630
25084SOL    HW175830   2.068   0.192   9.808  0.2362  0.8382  0.7469
25084SOL    HW275831   2.154   0.076   9.762  0.5353  1.0499  0.7727
25085SOL     OW75832   9.652   5.962   8.745 -0.7217  0.1626  0.2500
25085SOL    HW175833   9.650   5.872   8.778 -1.4725 -0.2330 -0.8364
25085SOL    HW275834   9.564   5.978   8.710  0.1803  0.2930 -2.1832
25086SOL     OW75835   9.911   3.219   0.703 -0.2165 -1.2134  0.0697
25086SOL    HW175836   9.862   3.244   0.624  0.8216  0.5340 -0.0733
25086SOL    HW275837   9.986   3.169   0.670  2.4922  2.8531 -0.6248
25087SOL     OW75838   9.463   1.040   2.396 -0.1718  0.3550 -0.1440
25087SOL    HW175839   9.553   1.015   2.417 -0.2361 -0.8955 -1.2436
25087SOL    HW275840   9.472   1.095   2.318 -0.1892  2.3559  1.1901
25088SOL     OW75841   7.594   5.635   6.171 -0.0739 -0.3096  0.3948
25088SOL    HW175842   7.640   5.552   6.157 -0.3374 -0.7347  1.9089
25088SOL    HW275843   7.511   5.610   6.210 -0.7433  0.6006 -0.3908
25089SOL     OW75844   0.653   5.085   1.775 -0.7106 -0.0661  0.1000
25089SOL    HW175845   0.693   5.046   1.853  1.7987 -0.2242 -1.1582
25089SOL    HW275846   0.628   5.011   1.720  0.5020  0.0001 -0.5939
25090SOL     OW75847   7.844   3.691   7.926 -0.3230 -0.1930 -0.4411
25090SOL    HW175848   7.840   3.666   7.834 -1.6777 -1.2860 -0.1229
25090SOL    HW275849   7.853   3.608   7.973  0.7501  0.3806  0.4175
25091SOL     OW75850   6.396   4.645   0.324  0.4795  0.1692  0.5480
25091SOL    HW175851   6.472   4.622   0.377 -0.0139  0.5231  1.4264
25091SOL    HW275852   6.352   4.714   0.373  0.4125  1.0424 -0.6960
25092SOL     OW75853   9.492   4.443   0.175  0.0571  0.9043  0.4111
25092SOL    HW175854   9.522   4.533   0.163 -1.0702  1.1694 -0.5020
25092SOL    HW275855   9.521   4.397   0.097 -0.6288  0.8183  0.2041
25093SOL     OW75856   3.675   8.555   1.558  0.1906 -0.4069  0.0927
25093SOL    HW175857   3.654   8.523   1.646  0.8159 -1.8531 -0.2452
25093SOL    HW275858   3.605   8.520   1.503  0.5627 -0.7068 -0.1954
25094SOL     OW75859   0.702   0.068   1.366 -0.9655  0.4886 -0.0106
25094SOL    HW175860   0.691  -0.026   1.383 -0.9708  0.3100 -0.9745
25094SOL    HW275861   0.627   0.108   1.409 -1.4467 -0.0393 -0.3337
25095SOL     OW75862   5.126   2.188   5.733 -0.3174 -0.1558 -0.3206
25095SOL    HW175863   5.218   2.201   5.707 -0.6595  0.5620 -1.2283
25095SOL    HW275864   5.131   2.133   5.811  0.9083  0.1288 -0.1711
25096SOL     OW75865   1.425   7.914   9.668  0.0486  0.0779 -0.4651
25096SOL    HW175866   1.486   7.876   9.731 -1.0519  0.4944  0.9226
25096SOL    HW275867   1.475   7.921   9.587  1.9621  0.7599  0.6996
25097SOL     OW75868   2.920   8.695   7.023  0.4892  0.6034  0.6605
25097SOL    HW175869   2.838   8.730   7.057  0.1439  0.1770  0.2916
25097SOL    HW275870   2.984   8.765   7.036 -0.0781  1.1877  0.3603
25098SOL     OW75871   5.048   0.647   2.706 -0.4754 -0.3396 -0.0195
25098SOL    HW175872   5.126   0.695   2.737  0.1669  0.6191 -2.7794
25098SOL    HW275873   5.081   0.592   2.635 -1.7785 -2.6629  1.0737
25099SOL     OW75874   5.639   1.676   7.457  0.0867 -0.0120  0.0356
25099SOL    HW175875   5.569   1.728   7.418 -2.4594 -2.8032  0.5625
25099SOL    HW275876   5.630   1.691   7.551 -0.6940 -1.3223  0.1961
25100SOL     OW75877   0.096   9.160   8.400  0.0142  0.3525  0.0942
25100SOL    HW175878   0.064   9.166   8.490  0.6177 -0.4796  0.3791
25100SOL    HW275879   0.151   9.082   8.399  0.6192  0.7683 -0.8145
25101SOL     OW75880   8.843   7.895   1.651  0.5519  0.0360  0.1472
25101SOL    HW175881   8.802   7.813   1.679 -1.2220  1.0268  0.6146
25101SOL    HW275882   8.812   7.909   1.562  2.5570 -0.8115 -0.7553
25102SOL     OW75883   7.050   6.866   9.065 -0.3443 -0.8484  0.4912
25102SOL    HW175884   7.014   6.888   9.150 -0.6202 -0.2862  0.2369
25102SOL    HW275885   7.141   6.842   9.083  0.1107  0.9395  0.7518
25103SOL     OW75886   6.671   8.793   2.163 -0.1103  0.3721  0.1831
25103SOL    HW175887   6.576   8.786   2.157 -0.2611  2.6212 -1.8575
25103SOL    HW275888   6.704   8.717   2.116 -0.9977  0.7679 -1.1349
25104SOL     OW75889   7.166   1.122   3.969 -0.0104  0.2823  0.2532
25104SOL    HW175890   7.144   1.087   3.882  0.8013  0.4387 -0.0264
25104SOL    HW275891   7.251   1.084   3.989 -0.5842 -0.4592  1.3926
25105SOL     OW75892   3.488   9.059   1.498 -0.1653  0.5114  0.1296
25105SOL    HW175893   3.524   8.971   1.505 -1.4504 -0.1267 -0.7302
25105SOL    HW275894   3.563   9.115   1.478  0.5121 -0.5600 -0.4169
25106SOL     OW75895   5.787   3.287   2.952  0.0416 -0.1826  0.3737
25106SOL    HW175896   5.791   3.314   3.044  0.0906  0.0528  0.3039
25106SOL    HW275897   5.757   3.196   2.955 -1.0395  0.1570  0.5765
25107SOL     OW75898   4.222   5.389   7.152  0.2541  0.9762 -0.6451
25107SOL    HW175899   4.234   5.359   7.242  0.2135 -0.2172 -1.0233
25107SOL    HW275900   4.241   5.483   7.156  1.7383  0.6757  0.3190
25108SOL     OW75901   5.632   8.154   7.227  0.4916  0.2729  0.0316
25108SOL    HW175902   5.661   8.178   7.139  0.7984  1.2451  0.3852
25108SOL    HW275903   5.539   8.174   7.228 -0.0732 -2.0430 -0.8295
25109SOL     OW75904   5.713   7.214   8.875 -0.1462  0.6777 -0.2759
25109SOL    HW175905   5.808   7.206   8.871 -0.1045  1.6579 -2.9441
25109SOL    HW275906   5.682   7.125   8.892  1.1995  0.0698 -0.8802
25110SOL     OW75907   1.151   2.349   9.129  0.2376 -0.6765  0.0703
25110SOL    HW175908   1.194   2.434   9.133  0.7413 -0.8357 -1.3059
25110SOL    HW275909   1.173   2.306   9.212  3.1227 -0.9043 -0.7244
25111SOL     OW75910   1.120   1.989   3.609 -0.0582  0.0754 -0.3834
25111SOL    HW175911   1.168   2.056   3.560  1.7176 -1.3012 -0.6312
25111SOL    HW275912   1.030   1.995   3.577 -0.0714  2.6371 -0.0258
25112SOL     OW75913   1.620   3.649   4.958  0.1375 -0.0656 -0.8272
25112SOL    HW175914   1.615   3.617   5.049  0.8388 -1.2016 -1.1644
25112SOL    HW275915   1.702   3.699   4.955 -0.6816  1.3304 -0.4426
25113SOL     OW75916   3.617   0.779   7.578  0.2155  0.1890  0.4368
25113SOL    HW175917   3.704   0.769   7.540 -0.4247  2.6994 -2.0496
25113SOL    HW275918   3.594   0.870   7.561 -2.3135  0.0394  2.4199
25114SOL     OW75919   4.027   6.789   4.805  0.0835  0.0988 -0.1115
25114SOL    HW175920   4.092   6.780   4.875 -1.1030 -1.3098  0.8855
25114SOL    HW275921   3.973   6.864   4.832  0.8118  0.8044 -0.5650
25115SOL     OW75922   4.240   7.381   5.014 -0.3566 -0.0087  0.1548
25115SOL    HW175923   4.265   7.471   5.036 -0.4584 -0.3443  1.7385
25115SOL    HW275924   4.180   7.355   5.084 -2.4109 -0.4374 -1.6406
25116SOL     OW75925   8.830   8.824   9.592  0.5643  0.1227  0.0565
25116SOL    HW175926   8.855   8.754   9.653  0.3035 -0.3376 -0.3558
25116SOL    HW275927   8.832   8.782   9.506  1.5151  0.9138 -0.3318
25117SOL     OW75928   9.242   6.611   3.326  0.0304  0.2844  0.5924
25117SOL    HW175929   9.258   6.704   3.310 -1.6546  0.4707 -0.2309
25117SOL    HW275930   9.150   6.607   3.352  0.3078 -1.0718  1.4351
25118SOL     OW75931   3.342   7.127   1.785 -0.3595  0.5797  0.3158
25118SOL    HW175932   3.384   7.041   1.780 -0.4482  0.5715 -0.3749
25118SOL    HW275933   3.388   7.172   1.856  0.5368  0.4190 -0.1544
25119SOL     OW75934   4.173   1.224   1.035  0.0262 -0.1772  0.1125
25119SOL    HW175935   4.253   1.174   1.056  0.5939  0.9836  0.8334
25119SOL    HW275936   4.121   1.164   0.982  1.4593 -0.9143 -0.5358
25120SOL     OW75937   1.232   6.192   3.470 -0.3753 -0.0248  0.0064
25120SOL    HW175938   1.306   6.133   3.459  0.8413  0.9966  2.0907
25120SOL    HW275939   1.245   6.259   3.403  0.8663  0.3535  0.5839
25121SOL     OW75940   4.546   5.531   9.795  0.0169 -0.0969 -0.2728
25121SOL    HW175941   4.563   5.475   9.871 -3.7881 -2.2017 -0.7246
25121SOL    HW275942   4.522   5.616   9.832 -2.5414 -1.3118  1.0438
25122SOL     OW75943   0.557   3.220   6.833  0.8115  0.3068 -0.1436
25122SOL    HW175944   0.635   3.272   6.854  1.0253 -0.3685  0.7947
25122SOL    HW275945   0.501   3.280   6.784  0.9461  1.5245  1.1166
25123SOL     OW75946   0.637   3.974   8.334 -0.1650  0.0427  0.4622
25123SOL    HW175947   0.569   4.028   8.297  0.1186 -1.0402 -1.7902
25123SOL    HW275948   0.653   3.906   8.269  1.6899 -0.8984  1.7786
25124SOL     OW75949   3.989   7.628   7.150 -0.1019  0.1807  0.4815
25124SOL    HW175950   4.049   7.683   7.201 -0.3675  0.7299  0.2145
25124SOL    HW275951   4.044   7.559   7.113  0.6766  1.5603 -1.0472
25125SOL     OW75952   4.069   8.902   8.145 -0.2075  0.3154 -0.4726
25125SOL    HW175953   4.087   8.826   8.200 -2.6548  1.4835  2.1770
25125SOL    HW275954   4.114   8.883   8.062  1.7805 -2.5751  1.1113
25126SOL     OW75955   4.669   6.565   0.296 -0.2867 -0.0965  0.1805
25126SOL    HW175956   4.624   6.520   0.225  2.0147 -0.3132 -1.2331
25126SOL    HW275957   4.598   6.603   0.349 -2.1051  0.4342 -2.4291
25127SOL     OW75958   7.192   8.158   4.767  0.3198 -0.3082 -0.3189
25127SOL    HW175959   7.215   8.235   4.818 -2.1506  0.8530 -0.8079
25127SOL    HW275960   7.103   8.137   4.794  0.7060 -2.6492 -0.6440
25128SOL     OW75961   2.583   3.279   9.459  0.7296  0.5455 -0.1213
25128SOL    HW175962   2.678   3.281   9.446  0.7956  1.4016  0.4065
25128SOL    HW275963   2.551   3.358   9.415  0.5506  1.5156  1.6493
25129SOL     OW75964   1.262   0.882   3.863  0.1109 -0.0386 -0.3699
25129SOL    HW175965   1.328   0.813   3.853  0.2192  0.0710 -0.4039
25129SOL    HW275966   1.206   0.872   3.786 -0.5796 -0.8512  0.2166
25130SOL     OW75967   6.798   1.884   5.288 -0.3479  0.0938 -0.3430
25130SOL    HW175968   6.816   1.861   5.196  1.5600 -1.3992  0.3253
25130SOL    HW275969   6.864   1.950   5.309 -0.4113  0.0144  0.1069
25131SOL     OW75970   4.225   6.526   3.360 -0.2697  0.4451 -0.3464
25131SOL    HW175971   4.183   6.506   3.444  1.1647  0.1391  0.3379
25131SOL    HW275972   4.285   6.452   3.346 -0.7745  0.2962 -1.8466
25132SOL     OW75973   5.259   0.244   4.832 -0.0244  0.0684 -0.0243
25132SOL    HW175974   5.212   0.260   4.914 -1.1616 -0.5144 -0.5384
25132SOL    HW275975   5.254   0.327   4.785  1.2603  0.6270  0.7795
25133SOL     OW75976   3.187   3.583   8.991 -0.7342 -0.3451  0.0493
25133SOL    HW175977   3.269   3.572   8.943 -0.2757 -1.3133  1.0090
25133SOL    HW275978   3.120   3.588   8.923  0.2127  1.7541 -0.8153
25134SOL     OW75979   8.746   9.744   0.115  0.4802 -0.6793 -0.2327
25134SOL    HW175980   8.755   9.650   0.130  3.0705 -0.3617  0.7526
25134SOL    HW275981   8.830   9.771   0.077 -0.1918  1.2351 -0.4721
25135SOL     OW75982   4.991   2.867   7.187  0.2298  0.0442  0.1089
25135SOL    HW175983   5.021   2.796   7.245 -0.5492  1.4946  2.4337
25135SOL    HW275984   4.924   2.913   7.238 -0.4149  1.5269 -1.9368
25136SOL     OW75985   6.863   8.209   1.120  0.2488 -0.1105 -0.5016
25136SOL    HW175986   6.916   8.226   1.042 -0.0241  0.1424 -0.6334
25136SOL    HW275987   6.927   8.196   1.190  0.5538 -1.8761 -1.0562
25137SOL     OW75988   3.191   9.502   3.501 -0.6549  0.6080  0.0031
25137SOL    HW175989   3.152   9.540   3.580  0.1514 -0.0007  0.7072
25137SOL    HW275990   3.137   9.426   3.482  0.0963 -0.1750  0.9183
25138SOL     OW75991   9.459   3.492   5.802  0.2439  0.1232 -0.0877
25138SOL    HW175992   9.426   3.402   5.804  1.1774 -0.2243  0.2560
25138SOL    HW275993   9.537   3.488   5.745 -1.8567  1.5035 -3.3600
25139SOL     OW75994   7.360   8.839   4.252 -0.3396  0.1722  0.0600
25139SOL    HW175995   7.376   8.901   4.181  0.0509 -1.3336 -1.2402
25139SOL    HW275996   7.315   8.766   4.209 -1.5750 -0.0788  1.7058
25140SOL     OW75997   5.624   1.458   1.153 -0.0476  0.0364 -0.4722
25140SOL    HW175998   5.613   1.540   1.201  2.0803  0.0657  0.1035
25140SOL    HW275999   5.573   1.394   1.203 -0.5899  0.7326 -0.1197
25141SOL     OW76000   5.303   1.754   6.476  0.2152 -0.1764 -0.6418
25141SOL    HW176001   5.239   1.700   6.523 -0.5657  0.4386 -0.9816
25141SOL    HW276002   5.386   1.737   6.521 -0.5997  0.8325  1.3723
25142SOL     OW76003   4.374   3.659   7.977  0.1003  0.6139 -0.5606
25142SOL    HW176004   4.424   3.682   7.898 -0.6224  1.4961 -0.7744
25142SOL    HW276005   4.284   3.649   7.946 -0.1721  0.8730  0.1294
25143SOL     OW76006   8.946   1.122   1.428  0.4349 -0.3608 -0.4018
25143SOL    HW176007   9.019   1.062   1.439  0.9990  0.4914  0.7179
25143SOL    HW276008   8.984   1.199   1.386  0.0785 -0.1187 -0.2889
25144SOL     OW76009   7.254   2.781   6.580  0.2724  0.3471 -0.3553
25144SOL    HW176010   7.261   2.873   6.553  1.4957  0.0032 -1.2725
25144SOL    HW276011   7.289   2.731   6.507 -2.0077 -1.0004 -0.6158
25145SOL     OW76012   4.601   6.667   2.904  0.1402  0.5756  0.4741
25145SOL    HW176013   4.506   6.662   2.919 -0.1047  0.2065 -0.9976
25145SOL    HW276014   4.630   6.576   2.903  0.0927  0.5392 -1.2572
25146SOL     OW76015   5.493   3.400   5.012  0.3650  0.2598  0.7493
25146SOL    HW176016   5.561   3.371   5.072  0.9873  0.8744  0.3469
25146SOL    HW276017   5.502   3.495   5.008 -0.9021  0.4173  1.1475
25147SOL     OW76018   5.968   4.710   1.956 -0.1440  0.6056 -0.0530
25147SOL    HW176019   5.941   4.677   1.871  0.3500  0.0971 -0.0134
25147SOL    HW276020   6.061   4.687   1.963 -0.2295  0.4575  0.7011
25148SOL     OW76021   8.431   7.507   6.800 -0.2897  0.4311  0.4956
25148SOL    HW176022   8.347   7.499   6.755 -0.5679 -0.6336  1.1631
25148SOL    HW276023   8.424   7.448   6.875 -0.3023  3.0148  2.6650
25149SOL     OW76024   6.468   7.274   9.238  0.1737  0.7160 -0.6110
25149SOL    HW176025   6.488   7.350   9.292  0.5221 -1.0830  2.0120
25149SOL    HW276026   6.386   7.240   9.273  0.8375 -0.9950 -0.5789
25150SOL     OW76027   4.813   7.810   3.048 -0.5138 -0.1255 -0.4458
25150SOL    HW176028   4.901   7.840   3.025 -0.1705 -1.6425 -1.2077
25150SOL    HW276029   4.794   7.855   3.131  1.5240 -0.7879  0.4546
25151SOL     OW76030   3.293   1.126   4.659  0.0522 -0.2783 -0.1789
25151SOL    HW176031   3.335   1.075   4.728 -0.6206 -0.4965  0.0742
25151SOL    HW276032   3.269   1.208   4.701  0.9337  0.1742 -0.5301
25152SOL     OW76033   3.830   2.168   6.494 -0.5254  0.1376  0.0641
25152SOL    HW176034   3.853   2.258   6.516  1.9240 -0.3170 -0.3875
25152SOL    HW276035   3.869   2.154   6.408 -3.1525 -0.5832 -1.1164
25153SOL     OW76036   4.393   0.639   6.173 -0.5146 -0.1173 -0.0474
25153SOL    HW176037   4.452   0.597   6.237  0.5676  1.4213  0.0250
25153SOL    HW276038   4.342   0.701   6.225 -0.6498  0.1189 -0.4595
25154SOL     OW76039   6.904   7.255   7.316  0.0184 -0.0440  0.2942
25154SOL    HW176040   6.874   7.167   7.335 -0.8410  0.3385  0.7268
25154SOL    HW276041   6.824   7.306   7.304  0.4754  0.9314  1.2270
25155SOL     OW76042   0.059   5.789   5.717  0.3939 -0.1668 -0.0763
25155SOL    HW176043   0.052   5.828   5.805  0.0127  0.4583 -0.3819
25155SOL    HW276044   0.090   5.700   5.734  0.7402  0.0776  0.6705
25156SOL     OW76045   5.108   2.792   6.477 -0.6198  0.0465 -0.3935
25156SOL    HW176046   5.132   2.705   6.509  0.7553  1.0181  1.4069
25156SOL    HW276047   5.182   2.819   6.423 -1.3846 -0.1821 -1.5795
25157SOL     OW76048   2.796   6.172   0.897 -0.1254  0.3455  0.2221
25157SOL    HW176049   2.818   6.245   0.840 -2.0437  1.8019  1.2341
25157SOL    HW276050   2.810   6.205   0.985 -0.1590 -0.8370  0.6861
25158SOL     OW76051   8.103   6.476   8.159 -0.3374 -0.4240  0.1016
25158SOL    HW176052   8.090   6.423   8.080 -1.8926 -0.9720  0.6711
25158SOL    HW276053   8.143   6.556   8.128 -2.6630  0.2083 -1.5873
25159SOL     OW76054   6.986   8.602   9.679  0.6799  0.3102 -0.1386
25159SOL    HW176055   7.048   8.584   9.750  1.1662  0.6798 -0.4550
25159SOL    HW276056   6.984   8.698   9.673  1.4170  0.2743 -1.2712
25160SOL     OW76057   7.485   8.861   5.840  0.4280 -0.3616 -0.3573
25160SOL    HW176058   7.522   8.802   5.906 -0.7865 -0.1086  0.5743
25160SOL    HW276059   7.396   8.829   5.826 -0.5302  1.6529  0.7281
25161SOL     OW76060   1.156   8.777   7.933  0.1850 -0.1136 -0.2198
25161SOL    HW176061   1.106   8.762   7.853 -1.1078 -0.4900  0.6134
25161SOL    HW276062   1.120   8.859   7.968  0.3516 -0.2398  0.2556
25162SOL     OW76063   9.931   0.080   5.517  0.2872 -0.0721  0.2514
25162SOL    HW176064   9.912   0.142   5.446  0.0846 -1.1263 -0.6359
25162SOL    HW276065   9.923  -0.006   5.477 -0.3912 -0.7227  1.6861
25163SOL     OW76066   0.137   8.756   5.692  0.0848  0.0082 -0.1007
25163SOL    HW176067   0.127   8.823   5.624 -1.8018  1.0977  1.1458
25163SOL    HW276068   0.208   8.700   5.661  0.5084  1.5281 -2.0669
25164SOL     OW76069   6.137   7.269   1.001  0.5212  1.0140  0.5064
25164SOL    HW176070   6.095   7.345   0.960 -0.4906  0.5306  0.6308
25164SOL    HW276071   6.070   7.201   1.001  1.2764  0.2463  0.7963
25165SOL     OW76072   5.686   3.538   0.706  0.5728  0.2060  0.0466
25165SOL    HW176073   5.695   3.503   0.795  0.1725 -2.3776 -0.8294
25165SOL    HW276074   5.595   3.568   0.701 -0.1547 -1.8282 -0.1078
25166SOL     OW76075   3.433   1.604   3.530 -0.2979 -0.6723  0.0734
25166SOL    HW176076   3.361   1.661   3.556 -0.7246 -1.7507  1.3401
25166SOL    HW276077   3.397   1.515   3.534  0.9141 -1.1828  0.0885
25167SOL     OW76078   1.386   4.914   0.399 -0.2021  0.6285 -0.7851
25167SOL    HW176079   1.313   4.857   0.376  0.7298 -0.2562 -1.6295
25167SOL    HW276080   1.365   4.945   0.487 -0.0024 -2.2455  0.3739
25168SOL     OW76081   5.496   3.848   7.295 -0.2379 -0.0682  0.0924
25168SOL    HW176082   5.528   3.820   7.209  1.0869  0.6216  0.3295
25168SOL    HW276083   5.406   3.817   7.299 -0.3626  0.0010 -1.6021
25169SOL     OW76084   8.024   6.064   3.799  0.3949 -0.1713  0.1483
25169SOL    HW176085   7.987   6.003   3.735  1.1725 -1.1688  0.6094
25169SOL    HW276086   8.119   6.053   3.790  0.5799  1.5147 -0.2488
25170SOL     OW76087   1.098   0.329   1.244 -0.4061 -0.2876 -0.3971
25170SOL    HW176088   1.043   0.408   1.248 -0.4575 -0.3308 -0.2404
25170SOL    HW276089   1.035   0.257   1.233 -0.2484 -0.1122 -3.1182
25171SOL     OW76090   5.938   5.566   8.526 -0.6839  0.7043  0.2945
25171SOL    HW176091   5.856   5.524   8.500  0.2566 -2.9701  2.4403
25171SOL    HW276092   6.005   5.523   8.473  0.2536  0.0655  1.9003
25172SOL     OW76093   3.114   8.947   5.949 -0.0779  0.4016  0.2225
25172SOL    HW176094   3.092   8.876   6.010  1.0049 -0.4002 -0.2984
25172SOL    HW276095   3.030   8.989   5.931 -0.9447 -1.4771 -0.3624
25173SOL     OW76096   1.910   1.258   6.383  0.1844  0.4504  0.1818
25173SOL    HW176097   1.995   1.303   6.375  0.7862 -0.1769  2.4172
25173SOL    HW276098   1.869   1.298   6.459  0.2071 -1.9229  1.5137
25174SOL     OW76099   5.070   1.367   3.470 -0.2309  0.2456  0.6057
25174SOL    HW176100   5.016   1.339   3.396  0.5662 -0.7209  0.3691
25174SOL    HW276101   5.148   1.311   3.466 -0.3867 -0.1792  2.4544
25175SOL     OW76102   6.687   6.529   0.694  0.8677  0.8150  0.1983
25175SOL    HW176103   6.770   6.562   0.658  1.2183  1.9136  1.9301
25175SOL    HW276104   6.658   6.597   0.754  0.6109 -1.1725  2.4564
25176SOL     OW76105   2.216   9.618   6.689  0.9675  0.0584 -0.1259
25176SOL    HW176106   2.132   9.661   6.671  2.2396  2.0399 -1.7364
25176SOL    HW276107   2.261   9.678   6.748  2.0208 -0.0272 -0.8324
25177SOL     OW76108   6.349   4.817   5.762  0.7067  0.1983 -0.3414
25177SOL    HW176109   6.316   4.755   5.697 -0.6955  1.4189 -0.8389
25177SOL    HW276110   6.304   4.794   5.843  0.2022  0.5389 -0.5214
25178SOL     OW76111   1.589   2.952   2.210 -0.5643 -0.1168 -0.1980
25178SOL    HW176112   1.632   2.900   2.278 -1.3131 -1.5919 -0.8104
25178SOL    HW276113   1.660   3.004   2.172  0.3735 -1.2439 -0.0614
25179SOL     OW76114   0.174   9.278   2.102 -0.5705 -0.3306 -0.2231
25179SOL    HW176115   0.078   9.274   2.106 -0.6209  0.8731  0.4233
25179SOL    HW276116   0.202   9.250   2.189 -0.3656 -0.0999 -0.2148
25180SOL     OW76117   2.107   2.391   2.094 -0.1220 -0.0020  0.6028
25180SOL    HW176118   2.078   2.323   2.155  0.4238 -0.1206  0.7376
25180SOL    HW276119   2.027   2.420   2.051 -0.6161  0.4897  1.7926
25181SOL     OW76120   5.874   0.333   3.507 -0.4522 -0.5474 -0.1159
25181SOL    HW176121   5.822   0.295   3.578 -0.7388  1.7295  0.9721
25181SOL    HW276122   5.897   0.420   3.539  2.8024 -0.8949 -1.1762
25182SOL     OW76123   6.935   8.793   9.484  0.2041  0.4146  0.2214
25182SOL    HW176124   6.885   8.840   9.417 -0.4017 -0.8496 -0.2404
25182SOL    HW276125   7.025   8.793   9.451  0.3015  1.5690  0.4283
25183SOL     OW76126   8.572   6.622   1.888 -0.1743 -0.6541 -0.4664
25183SOL    HW176127   8.489   6.579   1.910  0.7985 -2.9727 -1.0357
25183SOL    HW276128   8.631   6.600   1.960  0.4106 -0.4065 -0.8554
25184SOL     OW76129   3.877   1.829   1.480 -0.1047  0.2342  0.4213
25184SOL    HW176130   3.968   1.846   1.502 -0.0466  0.2548  0.1667
25184SOL    HW276131   3.872   1.840   1.385  0.5076 -3.4814 -0.2269
25185SOL     OW76132   9.371   0.174   1.384 -0.4195  0.1935 -0.2547
25185SOL    HW176133   9.382   0.208   1.295  0.1208  0.1922 -0.1913
25185SOL    HW276134   9.372   0.253   1.439 -0.4405  0.1703 -0.2215
25186SOL     OW76135   3.483   5.034   3.148 -0.0310 -0.3839 -0.3854
25186SOL    HW176136   3.503   5.127   3.142 -1.2755  0.0272  1.1918
25186SOL    HW276137   3.508   5.009   3.237 -0.3766 -1.3903 -0.5501
25187SOL     OW76138   6.331   2.679   4.444  0.2119  0.0686 -0.3280
25187SOL    HW176139   6.238   2.675   4.464 -0.2018  1.9081 -1.6844
25187SOL    HW276140   6.371   2.720   4.521  0.0614 -1.3745  0.5647
25188SOL     OW76141   9.047   3.273   1.189  0.0860  0.2010 -0.0201
25188SOL    HW176142   9.098   3.351   1.210  1.0569  0.5336 -3.0850
25188SOL    HW276143   8.957   3.304   1.181  0.4285  1.0035 -0.9984
25189SOL     OW76144   9.963   6.757   4.176 -0.4874 -0.3541 -0.3558
25189SOL    HW176145   9.891   6.697   4.156 -0.9123  0.0651 -0.0918
25189SOL    HW276146   9.987   6.735   4.266 -0.4496 -0.3255 -0.3587
25190SOL     OW76147   3.884   4.930   7.583 -0.0709 -0.1278  0.2685
25190SOL    HW176148   3.976   4.905   7.595  0.2569  1.0727  0.3907
25190SOL    HW276149   3.846   4.922   7.671  0.2796  0.7081  0.5105
25191SOL     OW76150   3.653   9.436   7.606 -0.0526  0.0017  0.6703
25191SOL    HW176151   3.613   9.511   7.650 -1.1643  1.5661 -2.5981
25191SOL    HW276152   3.734   9.420   7.653 -0.2978  2.5675  2.1556
25192SOL     OW76153   8.558   3.342   0.240  0.0575 -0.1559  0.6874
25192SOL    HW176154   8.584   3.347   0.332  0.8856  0.5956  0.4340
25192SOL    HW276155   8.599   3.419   0.200 -1.7603  0.5263  0.0373
25193SOL     OW76156   1.530   8.430   5.354 -0.6067 -0.2144  0.5282
25193SOL    HW176157   1.604   8.399   5.302  0.9054  0.8100  1.9497
25193SOL    HW276158   1.534   8.525   5.347 -0.6587 -0.0678  2.0417
25194SOL     OW76159   8.235   0.063   4.858 -0.0916 -0.0089  0.3820
25194SOL    HW176160   8.225   0.153   4.830 -0.0461  0.0911  0.6826
25194SOL    HW276161   8.155   0.043   4.907  0.0606 -0.0095  0.6360
25195SOL     OW76162   8.108   7.716   8.407 -0.3162  0.0123 -0.1310
25195SOL    HW176163   8.036   7.664   8.444 -0.9890  2.3660  2.1764
25195SOL    HW276164   8.187   7.668   8.431 -0.9835 -0.9038  0.2795
25196SOL     OW76165   2.483   3.120   8.732 -0.4697  0.0583  0.1203
25196SOL    HW176166   2.539   3.101   8.807 -0.9825 -2.4953 -0.0752
25196SOL    HW276167   2.404   3.158   8.770 -0.1906  0.0313  0.7385
25197SOL     OW76168   9.272   9.700   0.251 -0.4304  0.6532  0.5421
25197SOL    HW176169   9.278   9.767   0.182 -0.2773 -0.9565 -1.0830
25197SOL    HW276170   9.242   9.622   0.205 -0.5415 -0.4248  2.3801
25198SOL     OW76171   4.944   6.439   5.684 -0.4728  0.9132 -0.0615
25198SOL    HW176172   4.980   6.418   5.770 -0.3610  0.9971 -0.0876
25198SOL    HW276173   4.970   6.530   5.669  2.5553 -0.0584 -1.6899
25199SOL     OW76174   2.410   0.238   8.028  0.4219 -0.4956  0.1053
25199SOL    HW176175   2.496   0.243   8.071  0.5427  1.3370 -0.2661
25199SOL    HW276176   2.370   0.159   8.063  2.5878 -1.8561 -0.3297
25200SOL     OW76177   4.999   2.466   9.952 -0.3816  0.3184 -0.1740
25200SOL    HW176178   5.087   2.474   9.915 -0.5941  1.2125 -0.5295
25200SOL    HW276179   5.001   2.385  10.003  0.8301  0.6369  0.3211
25201SOL     OW76180   0.208   8.828   2.602 -0.2645  0.3383  0.7864
25201SOL    HW176181   0.171   8.863   2.683 -1.5880  0.2658  0.2402
25201SOL    HW276182   0.245   8.904   2.557 -2.1966  0.9422  0.0968
25202SOL     OW76183   6.014   8.929   8.977  0.6175  0.1945  0.2755
25202SOL    HW176184   5.980   9.008   9.018  1.1255  0.8828 -0.5908
25202SOL    HW276185   5.943   8.898   8.921  1.0879  1.1387 -0.8651
25203SOL     OW76186   2.975   4.638   0.250 -0.0699  0.2002  0.3085
25203SOL    HW176187   3.060   4.625   0.207 -0.3202  0.0492 -0.1371
25203SOL    HW276188   2.944   4.722   0.216  0.0431  0.4085  0.7124
25204SOL     OW76189   5.999   6.413   1.951 -0.2614  0.4958  0.2771
25204SOL    HW176190   6.031   6.332   1.991  0.8663  0.6613 -0.2294
25204SOL    HW276191   5.915   6.389   1.911 -0.4101 -0.1707  0.9792
25205SOL     OW76192   3.739   0.456   2.043 -0.1235 -0.1814 -0.2388
25205SOL    HW176193   3.796   0.458   2.120  1.3438  0.1867 -1.2889
25205SOL    HW276194   3.675   0.525   2.059 -0.8906 -1.2033  1.3841
25206SOL     OW76195   5.473   6.711   5.922 -0.1581  0.5771  0.2461
25206SOL    HW176196   5.558   6.669   5.913 -0.4228 -0.3317  1.6355
25206SOL    HW276197   5.483   6.795   5.877  1.6371  0.7090  0.7904
25207SOL     OW76198   2.163   5.106   3.025 -0.1011  0.7929 -0.4630
25207SOL    HW176199   2.152   5.197   3.053  2.1782  0.9399  0.1225
25207SOL    HW276200   2.153   5.055   3.106  1.6794  0.8247 -0.1789
25208SOL     OW76201   0.730   0.098   3.718 -0.0569 -0.3752  0.7106
25208SOL    HW176202   0.676   0.093   3.639  0.1925  1.4591  0.3850
25208SOL    HW276203   0.668   0.114   3.788 -0.1715 -0.9646  0.7550
25209SOL     OW76204   0.974   9.182   8.761  0.1931 -0.3978  0.6088
25209SOL    HW176205   0.909   9.245   8.790  0.4280  1.0980 -1.8394
25209SOL    HW276206   0.925   9.101   8.748 -0.8257  0.2246  0.4808
25210SOL     OW76207   2.921   9.121   3.980 -0.1651  0.2318 -0.6887
25210SOL    HW176208   2.861   9.107   4.053  0.8864  0.0418  0.1540
25210SOL    HW276209   2.872   9.176   3.919 -1.8627 -1.4262 -0.8926
25211SOL     OW76210   6.440   7.521   9.921 -0.6109 -0.2902  0.5975
25211SOL    HW176211   6.455   7.503   9.829  0.8891 -0.2835  0.8215
25211SOL    HW276212   6.433   7.435   9.962 -1.0360 -0.2945  0.5173
25212SOL     OW76213   1.901   5.824   4.765 -0.3551  0.5878  0.4002
25212SOL    HW176214   1.806   5.814   4.776 -1.3784  2.3473 -4.2599
25212SOL    HW276215   1.922   5.906   4.810 -1.4576  1.0259  0.1585
25213SOL     OW76216   2.532   3.027   5.452  0.1626  0.0029 -0.4400
25213SOL    HW176217   2.531   3.085   5.375 -0.5868 -1.3553 -1.5116
25213SOL    HW276218   2.454   3.052   5.502  1.5772  2.0742  0.8675
25214SOL     OW76219   9.193   3.982   8.082 -0.1757 -0.2994 -0.0517
25214SOL    HW176220   9.150   4.004   8.000 -1.0678 -0.6440  0.3112
25214SOL    HW276221   9.139   3.913   8.120  0.3696 -0.3251  0.7042
25215SOL     OW76222   4.756   3.246   7.150 -0.1106 -0.0121  0.0599
25215SOL    HW176223   4.779   3.308   7.082 -0.7264  0.8526  0.6220
25215SOL    HW276224   4.796   3.282   7.230 -0.1495 -0.5350  0.3205
25216SOL     OW76225   0.129   2.027   4.959  0.3100  0.3098  0.5576
25216SOL    HW176226   0.200   1.964   4.970 -0.1628 -0.2855  0.2945
25216SOL    HW276227   0.068   2.008   5.030 -1.5569 -1.9282 -1.4372
25217SOL     OW76228   1.861   4.850   8.967 -0.1946 -0.3407  0.1459
25217SOL    HW176229   1.846   4.810   9.052 -1.4465  1.1285  0.6668
25217SOL    HW276230   1.883   4.941   8.986  1.5186 -0.4622 -1.0411
25218SOL     OW76231   8.609   3.539   1.202  0.4215 -0.1414 -0.4738
25218SOL    HW176232   8.615   3.536   1.298  1.4092 -2.0726 -0.5488
25218SOL    HW276233   8.516   3.547   1.185  0.0476 -1.5071  0.6753
25219SOL     OW76234   1.954   6.798   9.698 -0.0024 -0.0895 -0.0355
25219SOL    HW176235   1.892   6.743   9.746  0.2498 -0.2786  0.0733
25219SOL    HW276236   2.039   6.759   9.715  0.1936  0.4202  0.1647
25220SOL     OW76237   6.677   7.299   6.395 -0.0235  0.4199  1.0127
25220SOL    HW176238   6.673   7.377   6.339  0.0147  0.0766  0.5262
25220SOL    HW276239   6.621   7.320   6.469 -1.0840  0.4004  0.2333
25221SOL     OW76240   2.909   3.991   7.589 -0.3627  1.2134 -0.4735
25221SOL    HW176241   2.819   3.985   7.620 -0.1246  0.8330  0.1745
25221SOL    HW276242   2.961   3.996   7.669  0.1416  2.3286 -0.8465
25222SOL     OW76243   0.585   9.209   8.876 -0.0010  0.4335  0.4137
25222SOL    HW176244   0.625   9.150   8.813 -0.8941 -0.9555  1.0965
25222SOL    HW276245   0.506   9.240   8.833 -0.8178 -0.8211  0.9505
25223SOL     OW76246   8.139   7.627   5.938  0.2846  0.3886  0.3832
25223SOL    HW176247   8.156   7.620   6.032  0.9546 -0.4376  0.2165
25223SOL    HW276248   8.118   7.719   5.924 -0.2005  0.4462  1.4007
25224SOL     OW76249   1.440   1.850   6.000 -0.5676  0.3352  0.8914
25224SOL    HW176250   1.390   1.838   6.080 -0.4419  0.6710  1.0208
25224SOL    HW276251   1.455   1.761   5.967 -2.7008  0.2779 -0.0508
25225SOL     OW76252   5.285   2.528   9.904 -0.0501 -0.5813 -0.2190
25225SOL    HW176253   5.374   2.497   9.890 -0.8387 -3.2318  0.0946
25225SOL    HW276254   5.270   2.520   9.998  0.1909  2.4294  0.1602
25226SOL     OW76255   3.587   4.665   5.653 -0.2819 -0.0272 -0.3957
25226SOL    HW176256   3.665   4.673   5.707  0.5456  0.0201 -1.5585
25226SOL    HW276257   3.523   4.621   5.709 -0.0886  1.6620  1.2343
25227SOL     OW76258   9.892   1.991   8.087  0.2970 -0.5342 -0.3574
25227SOL    HW176259   9.894   2.050   8.012  1.0879  0.5957  0.5137
25227SOL    HW276260   9.842   2.039   8.153  0.6020 -1.0119  0.2250
25228SOL     OW76261   5.828   0.014   3.068  0.0220  0.1708  0.7509
25228SOL    HW176262   5.850   0.103   3.096  0.4396  0.6570 -1.0094
25228SOL    HW276263   5.910  -0.036   3.079  0.8532  0.9087 -1.6308
25229SOL     OW76264   0.479   3.555   2.951  0.0239 -0.2602 -0.0351
25229SOL    HW176265   0.574   3.559   2.956  0.0817 -0.6957 -0.6773
25229SOL    HW276266   0.449   3.578   3.039  0.6860  0.7240 -0.0643
25230SOL     OW76267   4.775   5.005   6.875  0.1711  0.3815  0.2251
25230SOL    HW176268   4.842   4.938   6.857 -0.2467  0.2435 -0.8828
25230SOL    HW276269   4.757   4.995   6.969  1.0789 -0.1548  0.3647
25231SOL     OW76270   4.712   2.564   2.707  0.0512  0.5643  0.2547
25231SOL    HW176271   4.747   2.515   2.781  1.8580  3.4135  1.4631
25231SOL    HW276272   4.779   2.557   2.639 -0.9735 -0.8990 -0.6406
25232SOL     OW76273   8.359   4.378   7.127  0.6430 -0.2806 -0.2871
25232SOL    HW176274   8.361   4.370   7.032 -0.4720 -0.6612 -0.2832
25232SOL    HW276275   8.451   4.394   7.151  0.7443  1.3419 -1.5391
25233SOL     OW76276   4.224   3.228   3.492 -0.1812 -0.4617 -0.1845
25233SOL    HW176277   4.199   3.300   3.433  0.9609 -0.2401 -0.4101
25233SOL    HW276278   4.195   3.149   3.447 -1.8561 -0.1529  0.2645
25234SOL     OW76279   1.251   6.695   7.008  0.4071  0.1133 -0.0698
25234SOL    HW176280   1.290   6.740   7.083  0.4056  1.6353 -0.9448
25234SOL    HW276281   1.321   6.688   6.944  0.1638 -0.3389 -0.2940
25235SOL     OW76282   0.199   0.076   3.693  0.4007 -0.2472  0.0917
25235SOL    HW176283   0.290   0.065   3.666  0.2971 -0.0857 -0.3313
25235SOL    HW276284   0.204   0.129   3.773  0.6280  0.6276 -0.4839
25236SOL     OW76285   9.362   8.605   9.061 -0.1840 -0.4369  0.1198
25236SOL    HW176286   9.433   8.611   8.997 -1.2837  0.5079 -1.0675
25236SOL    HW276287   9.285   8.581   9.009 -0.4752 -3.2072  1.6055
25237SOL     OW76288   8.334   0.075   6.371 -0.3468 -0.7395  0.5478
25237SOL    HW176289   8.315   0.053   6.280 -1.6837 -0.8736  0.8512
25237SOL    HW276290   8.283   0.154   6.389  1.0282  0.1475  0.7790
25238SOL     OW76291   0.142   6.468   3.516 -0.5645 -0.1445  0.7161
25238SOL    HW176292   0.063   6.470   3.461 -0.1984 -0.4333  0.1678
25238SOL    HW276293   0.172   6.377   3.511  0.2660  0.1415  0.2389
25239SOL     OW76294   5.405   3.912   3.766 -0.6413 -0.0872  0.0673
25239SOL    HW176295   5.424   3.849   3.836  0.9457 -0.1073 -0.3482
25239SOL    HW276296   5.440   3.995   3.798  0.4160 -0.1656 -0.8113
25240SOL     OW76297   9.201   2.010   8.734 -0.4749 -0.0302 -0.2335
25240SOL    HW176298   9.259   2.056   8.673 -0.7539  1.4118  0.5385
25240SOL    HW276299   9.224   2.046   8.820 -0.0812 -2.0207  0.5428
25241SOL     OW76300   8.667   5.143   5.944  0.3497  0.1789 -0.1912
25241SOL    HW176301   8.656   5.229   5.904  0.4454  0.1822 -0.2111
25241SOL    HW276302   8.580   5.103   5.940 -0.0579  0.8624  1.1776
25242SOL     OW76303   0.366   7.205   6.015  0.6115  0.1109  0.5760
25242SOL    HW176304   0.441   7.183   5.960 -0.1033  0.4248 -0.5573
25242SOL    HW276305   0.399   7.271   6.076  1.7870 -1.2644  1.5067
25243SOL     OW76306   9.129   4.373   0.624 -0.1908  0.3279  0.4430
25243SOL    HW176307   9.087   4.375   0.538  1.3951 -1.3194 -0.4539
25243SOL    HW276308   9.062   4.340   0.683 -0.9930  0.4612 -0.3730
25244SOL     OW76309   9.511   7.432   9.121 -0.7551 -0.2869  0.0064
25244SOL    HW176310   9.506   7.477   9.037 -0.2021 -1.4193 -0.6554
25244SOL    HW276311   9.428   7.453   9.164 -1.7733 -1.0092 -1.5158
25245SOL     OW76312   8.757   4.619   8.186 -0.1977  0.4555  0.0583
25245SOL    HW176313   8.737   4.541   8.238  1.4387  0.1128  0.2341
25245SOL    HW276314   8.825   4.591   8.125  0.9993  1.9110  0.6550
25246SOL     OW76315   4.788   4.619   6.957 -0.2002 -0.2743 -0.0895
25246SOL    HW176316   4.870   4.609   6.910  0.9611  0.2897  1.7135
25246SOL    HW276317   4.814   4.636   7.047 -2.3221 -1.1769  0.7591
25247SOL     OW76318   7.964   4.120   0.752 -0.2047  0.0273  0.0126
25247SOL    HW176319   7.961   4.127   0.656 -1.4921  0.2948  0.0512
25247SOL    HW276320   8.054   4.143   0.774 -0.1962  1.1827 -1.0619
25248SOL     OW76321   6.370   1.789   2.656  0.0149 -0.1766 -0.4408
25248SOL    HW176322   6.314   1.713   2.673 -1.5246  0.7023 -1.2645
25248SOL    HW276323   6.365   1.840   2.737 -2.8504  1.3116 -1.3943
25249SOL     OW76324   5.287   1.436   0.665 -0.0529  0.1635 -0.4267
25249SOL    HW176325   5.254   1.401   0.582  1.1551 -1.7144 -0.1958
25249SOL    HW276326   5.374   1.469   0.643  0.3561 -0.5317  0.0975
25250SOL     OW76327   1.347   9.560   3.911  0.2544 -0.8079 -0.4548
25250SOL    HW176328   1.294   9.578   3.988  0.9166  1.6504 -0.5071
25250SOL    HW276329   1.377   9.645   3.881  0.5677 -1.7306 -3.0681
25251SOL     OW76330   4.222   9.460   1.252 -0.6508 -0.0471  0.4021
25251SOL    HW176331   4.195   9.404   1.325  0.4965  0.9481  1.6579
25251SOL    HW276332   4.214   9.404   1.174 -1.9828 -1.1195  1.2571
25252SOL     OW76333   7.984   4.757   0.520 -0.0946  0.3561  0.1988
25252SOL    HW176334   7.907   4.806   0.493 -0.5376 -0.5925 -0.2996
25252SOL    HW276335   7.950   4.678   0.563  0.5471  2.0781  4.3557
25253SOL     OW76336   6.586   1.316   8.728  0.1598  0.2307 -0.4545
25253SOL    HW176337   6.506   1.281   8.688 -0.6684 -0.2266  1.4914
25253SOL    HW276338   6.555   1.380   8.792  1.1294 -1.7519  2.1595
25254SOL     OW76339   5.130   3.309   9.508 -0.5223 -0.0342  0.1590
25254SOL    HW176340   5.200   3.334   9.448 -0.9072 -0.4314 -0.4655
25254SOL    HW276341   5.147   3.217   9.528 -0.0766  0.2470  1.1079
25255SOL     OW76342   6.562   2.481   6.173 -0.8300  0.0220  0.8909
25255SOL    HW176343   6.583   2.542   6.245  0.7621 -0.0055  0.4843
25255SOL    HW276344   6.636   2.422   6.170 -0.2186  0.7976 -1.6001
25256SOL     OW76345   2.965   1.749   7.485 -0.3366  0.0354  0.2504
25256SOL    HW176346   2.901   1.741   7.414  0.2972 -0.5757 -0.2699
25256SOL    HW276347   3.044   1.708   7.450  0.7024  1.8081  0.4322
25257SOL     OW76348   1.141   0.231   5.746  0.2016 -0.1008 -0.2417
25257SOL    HW176349   1.200   0.261   5.677 -1.2173  0.6627 -1.1703
25257SOL    HW276350   1.062   0.203   5.699 -0.4468 -0.4264  1.0099
25258SOL     OW76351   7.213   9.495   4.704 -0.1032 -0.2741  0.0997
25258SOL    HW176352   7.267   9.417   4.695  0.3974  0.2314 -1.4604
25258SOL    HW276353   7.259   9.549   4.768 -0.7527 -1.4558  1.6452
25259SOL     OW76354   1.655   0.760   2.494  0.3544  0.1526  0.2286
25259SOL    HW176355   1.573   0.728   2.531  0.3149  0.0566  0.0614
25259SOL    HW276356   1.717   0.760   2.568  0.0053  0.9569  0.5315
25260SOL     OW76357   1.616   7.224   2.828 -0.2267 -0.0181  0.2881
25260SOL    HW176358   1.639   7.240   2.737 -1.0213  0.5781  0.1746
25260SOL    HW276359   1.690   7.257   2.878 -1.3382  3.2790  0.0085
25261SOL     OW76360   4.635   3.232   8.891 -0.0913 -0.6333 -0.7483
25261SOL    HW176361   4.600   3.304   8.839  0.4476  0.1274 -0.0803
25261SOL    HW276362   4.729   3.234   8.875  0.5951  1.6156  2.5318
25262SOL     OW76363   7.539   8.209   8.391 -0.6869  0.3583  0.1533
25262SOL    HW176364   7.509   8.203   8.301 -1.3084  0.5399  0.3478
25262SOL    HW276365   7.543   8.303   8.409 -2.5120  0.3257  0.9489
25263SOL     OW76366   1.886   3.866   4.281  0.0043 -0.0760 -0.1371
25263SOL    HW176367   1.896   3.787   4.334  0.1813 -0.3811 -0.6195
25263SOL    HW276368   1.968   3.914   4.293  0.7025 -0.9031 -1.3556
25264SOL     OW76369   4.629   6.332   7.310 -0.2131 -0.2136 -0.0250
25264SOL    HW176370   4.639   6.340   7.405 -0.5751 -2.0719  0.1990
25264SOL    HW276371   4.678   6.406   7.275 -0.2472  0.6358  1.6094
25265SOL     OW76372   3.989   3.920   5.518  0.1781 -0.4243  0.2258
25265SOL    HW176373   4.041   3.884   5.590  0.3808 -1.0346 -0.2128
25265SOL    HW276374   3.974   3.846   5.460 -2.1168 -0.5298  0.8476
25266SOL     OW76375   0.383   7.483   0.652  0.0641  0.0459 -0.2912
25266SOL    HW176376   0.422   7.460   0.736 -1.4143 -2.2948 -0.1529
25266SOL    HW276377   0.452   7.466   0.588  0.3426 -0.9094  0.2356
25267SOL     OW76378   4.084   8.603   3.564  0.1275 -0.0093 -0.4824
25267SOL    HW176379   4.055   8.668   3.499 -1.6962 -0.2646  0.0341
25267SOL    HW276380   4.006   8.584   3.615  1.5250  0.2368  1.8725
25268SOL     OW76381   5.092   7.897   3.052 -0.3454  0.0516 -0.0431
25268SOL    HW176382   5.115   7.948   3.130  3.0623 -1.1584 -0.0733
25268SOL    HW276383   5.118   7.807   3.073  0.4170 -0.3646 -2.4147
25269SOL     OW76384   8.651   5.328   4.491 -0.3314  0.6089  0.1853
25269SOL    HW176385   8.650   5.262   4.560 -1.2447 -0.2832 -0.6245
25269SOL    HW276386   8.739   5.364   4.492  0.5514 -1.4324 -0.0699
25270SOL     OW76387   3.741   5.917   9.674 -0.5116  0.4569  0.2100
25270SOL    HW176388   3.814   5.894   9.615  0.6681 -0.5651  1.9714
25270SOL    HW276389   3.706   5.998   9.637 -0.4755 -0.6147 -2.4379
25271SOL     OW76390   7.451   9.785   4.356 -0.4928 -0.3648 -0.3203
25271SOL    HW176391   7.534   9.808   4.315  0.4989 -0.4791  1.5075
25271SOL    HW276392   7.410   9.869   4.376 -0.0583 -0.2836  0.2317
25272SOL     OW76393   5.932   1.769   0.256  0.0783  0.0544  0.1489
25272SOL    HW176394   6.015   1.724   0.269 -0.1211 -1.2187 -2.3777
25272SOL    HW276395   5.956   1.860   0.237  0.9280 -0.3203 -0.6256
25273SOL     OW76396   9.404   4.104   7.573  0.8820  0.0799 -0.3109
25273SOL    HW176397   9.426   4.162   7.646 -0.6158  1.6109 -0.9976
25273SOL    HW276398   9.332   4.149   7.527  0.5012 -1.7388 -1.6260
25274SOL     OW76399   6.956   7.817   9.904  0.0317 -0.2090 -0.2812
25274SOL    HW176400   6.863   7.833   9.885  0.1312  0.1919 -0.4535
25274SOL    HW276401   6.990   7.778   9.823  0.3856  1.2095 -0.8532
25275SOL     OW76402   1.733   9.920   3.062  0.1889  0.1937  0.3860
25275SOL    HW176403   1.665   9.978   3.094 -0.2544 -0.3050  0.3629
25275SOL    HW276404   1.809   9.939   3.117 -0.2413  0.1115  1.0176
25276SOL     OW76405   7.216   3.775   2.383 -0.0108  0.0775  0.1354
25276SOL    HW176406   7.148   3.840   2.365  0.6627  0.7246 -0.1225
25276SOL    HW276407   7.250   3.799   2.469 -0.7371 -0.8117  0.6865
25277SOL     OW76408   1.729   7.689   9.156  0.0216  0.6049  0.3642
25277SOL    HW176409   1.728   7.746   9.080  0.5196  0.4012  0.2007
25277SOL    HW276410   1.784   7.615   9.131 -1.7720 -0.6922  0.0479
25278SOL     OW76411   8.599   3.029   4.436  0.0224 -0.1972 -0.2503
25278SOL    HW176412   8.605   3.106   4.380 -2.8065 -1.1610 -2.0943
25278SOL    HW276413   8.657   2.965   4.394 -0.6041 -0.2883 -1.0030
25279SOL     OW76414   0.493   6.128   6.388  0.3253 -0.0247 -0.3702
25279SOL    HW176415   0.567   6.071   6.365  0.8122 -1.0937  3.3317
25279SOL    HW276416   0.532   6.197   6.442 -1.0529  0.9597 -0.5724
25280SOL     OW76417   6.784   9.825   8.322  0.4096  0.6970 -0.2356
25280SOL    HW176418   6.808   9.861   8.237  0.6037  0.2360 -0.3750
25280SOL    HW276419   6.689   9.833   8.325  0.2636 -0.4327 -1.0295
25281SOL     OW76420   4.074   9.691   1.926  1.0767 -0.8323  0.2640
25281SOL    HW176421   4.036   9.616   1.971 -0.0626  0.5033  1.6859
25281SOL    HW276422   4.018   9.704   1.849  0.5364 -0.7613  0.6586
25282SOL     OW76423   4.016   7.872   1.322 -0.1474 -0.0119 -0.2185
25282SOL    HW176424   3.952   7.806   1.297  1.1340 -1.7669  0.8917
25282SOL    HW276425   4.080   7.872   1.251 -1.1142  1.4729 -1.1461
25283SOL     OW76426   7.670   6.277   8.187 -0.4507 -0.2027 -0.9137
25283SOL    HW176427   7.648   6.241   8.273 -0.2531  0.1891 -0.6968
25283SOL    HW276428   7.586   6.285   8.142 -0.6086  0.0838 -0.5643
25284SOL     OW76429   3.949   2.341   7.198  0.2257 -0.6154  0.2685
25284SOL    HW176430   3.929   2.365   7.107  0.4667 -0.2298  0.3157
25284SOL    HW276431   4.032   2.384   7.217  0.6210 -1.4071  0.3937
25285SOL     OW76432   2.988   2.238   8.722  0.9047 -0.4677  0.3232
25285SOL    HW176433   3.077   2.249   8.755  1.4399 -2.0171 -0.4721
25285SOL    HW276434   2.995   2.259   8.628  0.3219 -0.1527  0.3449
25286SOL     OW76435   6.390   0.584   4.534 -0.1193 -0.2113  0.3534
25286SOL    HW176436   6.295   0.569   4.529 -0.3515  1.1333  0.4196
25286SOL    HW276437   6.423   0.555   4.449 -0.3401 -2.1318  0.8679
25287SOL     OW76438   1.948   1.055   7.617  0.3985  0.3964  0.0040
25287SOL    HW176439   1.978   0.987   7.557  0.3486  0.7130 -0.3805
25287SOL    HW276440   1.997   1.038   7.698  0.7870  0.2289 -0.2602
25288SOL     OW76441   3.618   3.430   7.673  0.0969  0.4477 -0.2591
25288SOL    HW176442   3.533   3.387   7.660  0.7694 -1.0694  0.2267
25288SOL    HW276443   3.595   3.520   7.696 -1.3661  0.2485 -0.7983
25289SOL     OW76444   1.793   6.936   2.043 -0.2290  0.3977  0.2661
25289SOL    HW176445   1.824   6.857   2.088  2.5667  0.3501 -1.5305
25289SOL    HW276446   1.698   6.924   2.037 -0.4670 -0.6889  3.8935
25290SOL     OW76447   8.336   9.641   5.495  0.2339  0.2305  0.7676
25290SOL    HW176448   8.386   9.692   5.432  1.7178  1.3268  2.7247
25290SOL    HW276449   8.387   9.561   5.508 -0.3026 -0.2028  0.2775
25291SOL     OW76450   5.573   2.601   9.509  0.2768 -0.1111  1.0195
25291SOL    HW176451   5.505   2.653   9.467  0.4864 -0.7091 -0.0858
25291SOL    HW276452   5.568   2.515   9.466  1.9941 -0.0385  0.6225
25292SOL     OW76453   9.021   8.201   6.190  0.3251  0.0703 -0.2262
25292SOL    HW176454   9.014   8.187   6.096  0.1375 -0.7496 -0.0979
25292SOL    HW276455   8.934   8.184   6.224  0.8724 -1.8605  0.3520
25293SOL     OW76456   0.364   5.825   8.608 -0.2310 -0.1392  0.1625
25293SOL    HW176457   0.320   5.751   8.567  0.5506 -1.0734  0.9744
25293SOL    HW276458   0.308   5.901   8.586 -0.5449 -0.7987 -1.4461
25294SOL     OW76459   7.645   3.125   3.800  0.5450  0.4597  0.7431
25294SOL    HW176460   7.648   3.044   3.850  1.4246 -0.5519 -0.8746
25294SOL    HW276461   7.627   3.193   3.865  1.4335 -0.8113  2.3757
25295SOL     OW76462   1.089   7.058   2.333  0.3334  0.2210  0.2494
25295SOL    HW176463   1.038   7.130   2.298  0.6070  0.1511 -0.3065
25295SOL    HW276464   1.150   7.035   2.262 -2.2334 -3.0609 -1.1839
25296SOL     OW76465   2.086   4.867   0.907 -0.5459  0.1177 -0.2675
25296SOL    HW176466   2.129   4.952   0.896 -1.6346  0.5212 -1.6675
25296SOL    HW276467   1.993   4.887   0.910 -0.7811 -0.9710  0.0322
25297SOL     OW76468   3.988   9.504   5.979  0.4047 -0.9989 -0.0135
25297SOL    HW176469   3.962   9.485   6.069 -0.3831 -1.2133 -0.2770
25297SOL    HW276470   3.905   9.524   5.935  0.9749  1.0460 -0.2313
25298SOL     OW76471   1.047   0.204   7.736 -0.0946  0.5548 -0.0077
25298SOL    HW176472   0.965   0.248   7.716 -0.1354  0.3007 -0.4080
25298SOL    HW276473   1.112   0.250   7.683  0.2218  1.4602  1.1038
25299SOL     OW76474   3.236   6.048   2.545  0.1139  0.5750  0.2605
25299SOL    HW176475   3.282   6.126   2.514 -1.0402  0.8019 -0.9807
25299SOL    HW276476   3.212   6.069   2.636 -1.0924  2.1427 -0.3656
25300SOL     OW76477   8.417   3.823   4.550 -0.2219 -0.0421 -0.2202
25300SOL    HW176478   8.463   3.890   4.499 -1.5923 -0.0248 -1.4854
25300SOL    HW276479   8.377   3.871   4.622  1.1678  0.0315  0.5483
25301SOL     OW76480   7.881   7.930   2.567  0.2996  0.2111 -0.1805
25301SOL    HW176481   7.857   7.839   2.582 -0.6184  0.6402  1.1330
25301SOL    HW276482   7.917   7.931   2.478  0.9790 -1.5418  0.0406
25302SOL     OW76483   0.909   6.834   2.847 -0.4675 -0.1412 -0.3265
25302SOL    HW176484   0.880   6.751   2.887  1.3972 -2.1371 -2.8068
25302SOL    HW276485   0.907   6.817   2.753  0.0552  2.6563 -0.9116
25303SOL     OW76486   6.174   0.145   0.201  0.1037 -0.0485 -0.2203
25303SOL    HW176487   6.236   0.212   0.227  0.1003  0.2828 -1.0389
25303SOL    HW276488   6.089   0.190   0.199  0.3594  0.4185 -2.5547
25304SOL     OW76489   2.045   3.493   7.239 -0.6043  0.0875  0.0531
25304SOL    HW176490   2.020   3.446   7.319 -1.3347 -0.1861 -0.3227
25304SOL    HW276491   2.130   3.456   7.215  0.6460  1.6065  1.8110
25305SOL     OW76492   3.284   2.032   3.919 -0.5367 -0.7218 -0.0310
25305SOL    HW176493   3.316   2.120   3.902 -2.0879 -0.0768  0.1862
25305SOL    HW276494   3.353   1.990   3.971  1.6186 -0.7287 -2.6902
25306SOL     OW76495   5.859   4.730   4.236  0.7264  0.3906  0.2391
25306SOL    HW176496   5.857   4.778   4.154  0.9251  1.9345  1.0963
25306SOL    HW276497   5.951   4.727   4.261  0.6304  0.2492  0.5912
25307SOL     OW76498   8.975   5.336   2.310  0.2197  0.3132 -0.0518
25307SOL    HW176499   8.971   5.240   2.309  0.2626  0.2754  1.3741
25307SOL    HW276500   8.904   5.364   2.252 -2.1830 -0.5845  2.2604
25308SOL     OW76501   3.481   6.435   0.715 -0.0152  0.1467 -0.7371
25308SOL    HW176502   3.503   6.344   0.692  1.8490  0.0794  0.9826
25308SOL    HW276503   3.563   6.482   0.702  0.4419  0.5984  2.8873
25309SOL     OW76504   8.166   8.213   0.681  0.1650 -0.4751  0.0875
25309SOL    HW176505   8.073   8.192   0.677  0.1245 -0.3519  0.3570
25309SOL    HW276506   8.199   8.165   0.757  0.4875 -1.1342 -0.4555
25310SOL     OW76507   0.476   4.515   0.074 -0.0861 -0.4853 -0.4421
25310SOL    HW176508   0.543   4.556   0.129 -1.3704 -0.6117  1.3220
25310SOL    HW276509   0.398   4.568   0.089 -0.6250 -0.8871 -1.7235
25311SOL     OW76510   1.847   1.110   9.212  0.2200 -0.2724 -0.0626
25311SOL    HW176511   1.874   1.097   9.121  1.0660 -1.0962  0.2841
25311SOL    HW276512   1.848   1.205   9.225 -0.7074 -0.1008 -1.1313
25312SOL     OW76513   3.896   2.458   6.940 -0.4183  0.0434  0.0730
25312SOL    HW176514   3.887   2.377   6.891 -3.1574  0.4651 -0.2955
25312SOL    HW276515   3.825   2.514   6.908  0.7222  2.1915  1.0637
25313SOL     OW76516   0.534   6.345   2.161 -0.2529 -0.4125 -0.2281
25313SOL    HW176517   0.471   6.324   2.231  1.3050 -2.1887  0.7373
25313SOL    HW276518   0.499   6.300   2.084 -1.0128  0.0076 -0.1446
25314SOL     OW76519   6.936   1.051   8.259  0.2423  0.3866 -0.5093
25314SOL    HW176520   7.017   1.001   8.268  0.2870  0.3124 -1.2832
25314SOL    HW276521   6.882   1.024   8.334  0.4018 -0.5581 -0.7294
25315SOL     OW76522   8.590   0.550   9.359 -0.3503 -0.1371  0.1221
25315SOL    HW176523   8.581   0.559   9.265 -1.8202  0.8048  0.3178
25315SOL    HW276524   8.524   0.609   9.395  1.2976  0.8305  1.7674
25316SOL     OW76525   6.961   2.672   1.801  0.7642 -0.0420 -0.1198
25316SOL    HW176526   6.916   2.662   1.717  0.9512 -0.2118 -0.2030
25316SOL    HW276527   7.001   2.759   1.796 -2.6695  1.8027  1.4875
25317SOL     OW76528   1.427   5.454   8.479  0.0811 -0.3879 -0.1501
25317SOL    HW176529   1.436   5.549   8.484 -1.3097 -0.2838  0.8412
25317SOL    HW276530   1.395   5.438   8.390 -0.7420  0.1845  0.0303
25318SOL     OW76531   5.219   9.251   4.051 -0.2885 -0.0640  0.5058
25318SOL    HW176532   5.146   9.244   3.989 -0.5276  0.1661  0.7593
25318SOL    HW276533   5.226   9.164   4.089 -0.5742 -0.0286  0.6409
25319SOL     OW76534   1.992   0.642   3.952  0.4333  0.1383 -0.2436
25319SOL    HW176535   1.986   0.704   4.025  0.4437  0.2223 -0.3140
25319SOL    HW276536   2.086   0.632   3.937  0.4199  0.9865 -0.9798
25320SOL     OW76537   9.216   4.478   1.014 -0.3395  0.2641  0.3574
25320SOL    HW176538   9.246   4.550   0.959  1.9703  2.1793  3.6972
25320SOL    HW276539   9.135   4.509   1.053 -0.1010  0.4538  0.7071
25321SOL     OW76540   0.461   0.219   6.826  0.0609 -0.1623  0.2780
25321SOL    HW176541   0.466   0.308   6.792 -1.0438 -0.3041 -0.3163
25321SOL    HW276542   0.453   0.164   6.748  0.0452 -0.7270  0.6686
25322SOL     OW76543   0.271   8.718   9.987 -0.5518  0.2326  0.3214
25322SOL    HW176544   0.216   8.734   9.910  2.2218  2.6642 -1.3702
25322SOL    HW276545   0.345   8.668   9.953  0.0063  0.0631  1.7476
25323SOL     OW76546   7.114   5.199   2.954  0.3422 -0.3985  0.0436
25323SOL    HW176547   7.180   5.178   2.889  1.2746  0.2572  0.7378
25323SOL    HW276548   7.139   5.148   3.031  0.2071  0.0542  0.3949
25324SOL     OW76549   0.994   7.301   9.028  0.0892 -0.1069 -0.1850
25324SOL    HW176550   1.005   7.379   9.084  1.5242  1.1112 -2.0057
25324SOL    HW276551   1.081   7.260   9.029 -0.1898 -0.7056 -0.6179
25325SOL     OW76552   5.856   2.004   5.128  0.2594 -0.6551  0.1009
25325SOL    HW176553   5.920   1.961   5.070  1.1121  2.8625 -1.8553
25325SOL    HW276554   5.771   1.975   5.094  0.7756 -1.1577 -0.8338
25326SOL     OW76555   0.403   0.402   1.676  0.9501 -0.1800  0.2801
25326SOL    HW176556   0.324   0.366   1.636  0.8204  0.0965  0.2857
25326SOL    HW276557   0.400   0.496   1.656  2.8136 -0.5775 -2.3518
25327SOL     OW76558   5.804   7.516   4.882  0.7157  0.1645 -0.4548
25327SOL    HW176559   5.771   7.532   4.794  1.4437 -1.6434 -1.1039
25327SOL    HW276560   5.871   7.449   4.871 -0.3502 -1.3819  1.6552
25328SOL     OW76561   8.432   4.632   1.991  0.3835  0.4167 -0.0875
25328SOL    HW176562   8.416   4.724   1.970  0.8229  0.2457 -1.2777
25328SOL    HW276563   8.394   4.620   2.077 -1.1444  1.3087 -0.5998
25329SOL     OW76564   0.864   9.756   5.232 -0.2611  0.7117 -0.1823
25329SOL    HW176565   0.940   9.725   5.182 -1.0069  0.4325 -1.1618
25329SOL    HW276566   0.822   9.820   5.175 -0.8090  0.8118  0.3262
25330SOL     OW76567   1.533   6.993   9.785  0.0374  0.5815 -0.1310
25330SOL    HW176568   1.594   6.958   9.850  0.0668  2.6615  1.0509
25330SOL    HW276569   1.586   7.055   9.733 -0.3359  0.0205 -1.2099
25331SOL     OW76570   9.613   9.329   7.267 -0.1808  0.1920 -0.8395
25331SOL    HW176571   9.534   9.322   7.213  0.3821 -0.5391 -1.5885
25331SOL    HW276572   9.665   9.398   7.225 -0.9931  1.6366  0.4288
25332SOL     OW76573   5.091   9.301   2.591  0.2261  0.0120  0.7901
25332SOL    HW176574   5.074   9.236   2.660  0.0454  0.5808  1.2905
25332SOL    HW276575   5.034   9.274   2.518 -0.0399 -0.2460  1.0903
25333SOL     OW76576   8.152   3.479   4.600 -0.4222  0.3971 -0.0672
25333SOL    HW176577   8.101   3.493   4.680 -0.0857  0.0748  0.2122
25333SOL    HW276578   8.107   3.408   4.555 -1.7335  1.8390 -1.1444
25334SOL     OW76579   1.339   5.163   0.116  0.1324 -0.5019  0.4374
25334SOL    HW176580   1.281   5.197   0.184 -0.7261 -0.0570 -0.4941
25334SOL    HW276581   1.290   5.091   0.076 -0.1858  0.4772 -0.9808
25335SOL     OW76582   5.319   5.672   2.105  0.3646 -0.4651  0.4961
25335SOL    HW176583   5.336   5.730   2.179 -1.5366  0.1698  0.4961
25335SOL    HW276584   5.373   5.595   2.122  1.9044  0.7064  1.2055
25336SOL     OW76585   2.554   3.986   7.424 -0.2254  0.0035 -0.0040
25336SOL    HW176586   2.465   3.977   7.391  0.0721  0.7954 -1.0513
25336SOL    HW276587   2.600   3.910   7.389  0.1084  0.8763 -1.5372
25337SOL     OW76588   6.301   8.912   5.836  0.3306 -0.7562  0.2422
25337SOL    HW176589   6.364   8.910   5.909  2.7992  0.4760 -1.7029
25337SOL    HW276590   6.268   9.001   5.836 -2.0951 -1.5544  1.6468
25338SOL     OW76591   9.767   3.713   7.441 -0.0894 -0.2399  0.0173
25338SOL    HW176592   9.733   3.721   7.530  0.7091 -0.7569  0.3894
25338SOL    HW276593   9.751   3.621   7.418 -1.4665  0.2044 -0.8832
25339SOL     OW76594   4.250   9.204   7.745  0.1523  0.1865 -0.5735
25339SOL    HW176595   4.183   9.139   7.765  0.7896 -0.5416 -0.7203
25339SOL    HW276596   4.309   9.159   7.684  0.6098  0.8996 -0.6688
25340SOL     OW76597   7.329   9.233   1.330  0.0131  0.4364 -0.2134
25340SOL    HW176598   7.366   9.150   1.358 -0.6644  0.2540  0.1595
25340SOL    HW276599   7.284   9.267   1.408  1.3575  1.7704  0.0198
25341SOL     OW76600   3.653   3.629   2.441  0.4175  0.3493 -0.5778
25341SOL    HW176601   3.731   3.574   2.439  0.2664  0.0941  0.2624
25341SOL    HW276602   3.635   3.643   2.534  0.3901  1.7431 -0.7754
25342SOL     OW76603   5.897   3.125   4.465  0.3443  0.2095 -0.3578
25342SOL    HW176604   5.956   3.075   4.521  0.4658 -0.1497 -0.8039
25342SOL    HW276605   5.907   3.216   4.495  0.2069 -0.0089  0.3752
25343SOL     OW76606   4.537   2.160   9.947 -0.7032  0.0768 -0.1322
25343SOL    HW176607   4.503   2.227   9.888 -1.2274 -0.8700 -0.9401
25343SOL    HW276608   4.459   2.119   9.984 -0.4458 -1.1204 -0.8583
25344SOL     OW76609   2.939   3.006   3.764  0.4804  0.2136  0.0980
25344SOL    HW176610   2.941   2.975   3.855  0.1153 -0.7800 -0.2242
25344SOL    HW276611   2.852   2.981   3.732  0.3218  1.2238 -0.3057
25345SOL     OW76612   1.432   9.764   7.528 -0.5118 -0.4101 -0.5960
25345SOL    HW176613   1.460   9.844   7.483  0.7310 -0.3554  0.2346
25345SOL    HW276614   1.484   9.694   7.487 -0.7202 -0.6180 -0.5043
25346SOL     OW76615   8.413   4.058   7.132  0.1441  0.3747 -0.0147
25346SOL    HW176616   8.447   4.030   7.047  1.8887  1.6223  0.2044
25346SOL    HW276617   8.329   4.099   7.113  1.5307  2.7590 -1.5526
25347SOL     OW76618   5.508   4.047   6.937 -0.0722 -0.1765  0.2466
25347SOL    HW176619   5.460   3.986   6.993 -0.0222 -1.7471 -1.3198
25347SOL    HW276620   5.600   4.031   6.958 -0.1017  1.8923  2.2985
25348SOL     OW76621   2.943   6.696   2.207  0.1137 -0.0506  0.1421
25348SOL    HW176622   2.922   6.660   2.121  1.9713 -0.5744 -0.1446
25348SOL    HW276623   3.029   6.660   2.228  0.1437  0.8490  1.7885
25349SOL     OW76624   8.982   6.098   4.359 -0.1624 -0.4116 -0.5572
25349SOL    HW176625   8.962   6.012   4.396 -0.2171 -0.6770 -1.1889
25349SOL    HW276626   9.062   6.084   4.307 -1.6873 -0.7509 -2.9516
25350SOL     OW76627   6.314   3.302   6.465 -0.3094 -0.2884  0.6150
25350SOL    HW176628   6.403   3.282   6.436  1.1120  1.1322  3.4931
25350SOL    HW276629   6.265   3.220   6.452  0.9609 -0.6975 -2.3300
25351SOL     OW76630   7.096   2.582   4.016  0.1508 -0.1802 -0.0885
25351SOL    HW176631   7.121   2.507   3.962 -0.2329 -1.4012  1.3785
25351SOL    HW276632   7.026   2.549   4.072  1.7018  0.4771  2.4016
25352SOL     OW76633   7.144   6.240   9.669  0.1700 -0.7019 -0.4061
25352SOL    HW176634   7.089   6.203   9.737  0.7305 -0.3467  0.2526
25352SOL    HW276635   7.189   6.164   9.630  0.8962 -0.7819  0.5623
25353SOL     OW76636   5.916   0.219   2.174  0.1493  0.2936  0.6328
25353SOL    HW176637   5.955   0.210   2.087  0.6762 -3.8717  1.1120
25353SOL    HW276638   5.990   0.239   2.231 -0.1037  2.3869  0.3137
25354SOL     OW76639   4.081   2.360   8.833  0.1336  0.0908 -0.3807
25354SOL    HW176640   4.023   2.354   8.757  1.2016  1.4187 -1.3321
25354SOL    HW276641   4.162   2.318   8.805  0.2088 -0.2968  0.3870
25355SOL     OW76642   2.609   5.217   7.164  0.1168 -0.0999  0.5420
25355SOL    HW176643   2.655   5.185   7.086 -2.3073 -0.3562 -0.8494
25355SOL    HW276644   2.586   5.307   7.143 -1.3202 -0.4469  0.5860
25356SOL     OW76645   4.540   2.277   1.885  0.1480  0.2865 -0.2379
25356SOL    HW176646   4.608   2.233   1.936  0.3063  1.9744  1.0590
25356SOL    HW276647   4.553   2.243   1.796  2.1906 -0.0391  0.1189
25357SOL     OW76648   3.487   8.069   1.175 -0.2050 -0.0451 -0.2853
25357SOL    HW176649   3.480   7.974   1.190 -0.7870 -0.7939 -4.0624
25357SOL    HW276650   3.580   8.084   1.161 -0.0433  0.0818  0.8578
25358SOL     OW76651   8.028   8.921   0.727  0.4727 -0.6403  0.0112
25358SOL    HW176652   7.978   8.948   0.804 -0.8136 -0.7805 -0.7370
25358SOL    HW276653   8.091   8.857   0.760  1.9664  1.4288  1.4190
25359SOL     OW76654   4.346   6.603   5.161 -0.2993 -0.4829 -0.2888
25359SOL    HW176655   4.408   6.663   5.202 -1.3021  0.4404 -0.0429
25359SOL    HW276656   4.340   6.529   5.222  2.0756 -1.6037 -1.3196
25360SOL     OW76657   0.644   1.891   6.839 -0.1861  0.0269  0.1821
25360SOL    HW176658   0.616   1.800   6.845  1.6879 -0.5576  0.8327
25360SOL    HW276659   0.594   1.928   6.767 -1.3877 -1.3523  0.2809
25361SOL     OW76660   1.104   5.423   4.423 -0.2577 -0.1010 -0.0305
25361SOL    HW176661   1.080   5.339   4.385  1.1256 -0.6570  0.2695
25361SOL    HW276662   1.160   5.400   4.498  2.8407  1.1076 -1.8149
25362SOL     OW76663   4.897   5.507   2.374 -0.3521  0.3551  0.4126
25362SOL    HW176664   4.811   5.466   2.365  1.0764 -2.7433 -0.3686
25362SOL    HW276665   4.909   5.556   2.292 -0.4692 -1.1257 -0.5168
25363SOL     OW76666   7.559   4.743   0.351  0.4378 -0.5537 -0.1836
25363SOL    HW176667   7.505   4.811   0.309  0.1733 -0.5929  0.0851
25363SOL    HW276668   7.642   4.787   0.369  0.4424 -0.4445 -0.4567
25364SOL     OW76669   0.459   0.276   8.804  0.0129 -0.1877 -0.3203
25364SOL    HW176670   0.389   0.224   8.844  1.7207 -0.6508  2.3365
25364SOL    HW276671   0.488   0.225   8.729 -0.6596 -1.3694  0.1944
25365SOL     OW76672   1.299   2.656   8.423  0.0605  0.6334  0.4354
25365SOL    HW176673   1.222   2.649   8.479 -0.2737  0.7356 -0.0133
25365SOL    HW276674   1.358   2.715   8.471  0.2187 -0.1045  1.1814
25366SOL     OW76675   0.421   1.949   7.663  0.1775 -0.2678  0.1718
25366SOL    HW176676   0.505   1.903   7.665 -0.0295 -0.6763 -0.2389
25366SOL    HW276677   0.363   1.895   7.718  0.3098  0.2769  0.8559
25367SOL     OW76678   1.870   2.130   1.322  0.5538  0.2320  0.6673
25367SOL    HW176679   1.882   2.036   1.314 -1.9758 -0.0648 -0.7533
25367SOL    HW276680   1.877   2.148   1.416  1.2813 -1.3320  0.9308
25368SOL     OW76681   8.457   4.769   4.332 -0.1449  0.3657  0.1987
25368SOL    HW176682   8.424   4.821   4.259  2.1276  0.7267 -0.6476
25368SOL    HW276683   8.485   4.834   4.397 -1.0339  0.0687  0.9005
25369SOL     OW76684   4.674   0.020   3.811 -0.4572  0.2141 -0.2927
25369SOL    HW176685   4.715   0.056   3.890 -1.8237  0.0922  0.5232
25369SOL    HW276686   4.622   0.093   3.777 -0.9394 -0.1240 -0.2933
25370SOL     OW76687   8.136   6.864   1.340 -0.3556 -0.3420 -0.0110
25370SOL    HW176688   8.142   6.895   1.430  0.1388 -0.1041 -0.1271
25370SOL    HW276689   8.049   6.823   1.335 -1.7799  2.4706 -0.3025
25371SOL     OW76690   8.654   2.633   9.730 -0.1553  0.0273  0.3851
25371SOL    HW176691   8.683   2.664   9.816 -0.8956  1.1538  0.2537
25371SOL    HW276692   8.686   2.699   9.669  0.8616 -1.0585 -0.3015
25372SOL     OW76693   6.446   8.634   4.695  0.2045 -0.1144 -0.2628
25372SOL    HW176694   6.423   8.629   4.788 -1.3246 -0.6783 -0.6326
25372SOL    HW276695   6.493   8.716   4.686 -0.3115  0.3271  0.8887
25373SOL     OW76696   2.780   2.497   7.099  0.5924 -0.4233  0.7730
25373SOL    HW176697   2.777   2.484   7.194  0.6851 -0.7536  0.7331
25373SOL    HW276698   2.819   2.417   7.066  1.9787  0.3018  0.5786
25374SOL     OW76699   3.872   0.884   0.597 -0.1968 -0.1321 -0.3380
25374SOL    HW176700   3.951   0.931   0.571 -0.4145  0.1117 -0.5662
25374SOL    HW276701   3.904   0.800   0.631  0.1881  0.1760  0.0587
25375SOL     OW76702   0.387   9.930   8.311  0.7149 -0.3594  0.4238
25375SOL    HW176703   0.463   9.909   8.256  1.3595 -1.0561  1.5308
25375SOL    HW276704   0.406  10.018   8.345 -0.2646  0.5843 -1.3851
25376SOL     OW76705   4.770   3.575   3.170 -0.2112  0.2447  0.4022
25376SOL    HW176706   4.784   3.556   3.263 -1.2353 -0.1466  0.4896
25376SOL    HW276707   4.857   3.597   3.137  0.5439 -1.6492  0.9804
25377SOL     OW76708   3.150   6.485   6.043 -0.3727 -0.2920  0.1266
25377SOL    HW176709   3.182   6.573   6.064 -0.5415 -0.2377  0.1602
25377SOL    HW276710   3.224   6.441   6.002 -0.3459 -0.0726 -0.0603
25378SOL     OW76711   8.557   9.167   3.595 -0.5766 -0.3020 -0.4400
25378SOL    HW176712   8.554   9.090   3.539  0.2335 -0.4896 -0.2371
25378SOL    HW276713   8.465   9.186   3.615 -0.7636 -1.5582 -0.0243
25379SOL     OW76714   9.789   1.017   3.865  0.4058 -0.4804  0.2911
25379SOL    HW176715   9.735   0.950   3.823  0.3390 -0.9457  1.1078
25379SOL    HW276716   9.727   1.071   3.913  0.4789  0.0687 -0.2252
25380SOL     OW76717   0.360   5.289   7.700  0.1132 -0.0777 -0.0074
25380SOL    HW176718   0.311   5.371   7.698 -0.7145 -0.5818 -0.5465
25380SOL    HW276719   0.442   5.309   7.654  0.1975  0.6160  0.4240
25381SOL     OW76720   5.138   3.596   0.722  0.3580  0.0057  0.7026
25381SOL    HW176721   5.132   3.649   0.802  0.3875  4.1556 -1.7451
25381SOL    HW276722   5.056   3.547   0.719 -0.1491  0.6566  2.6864
25382SOL     OW76723   0.089   5.750   2.482  0.1978 -0.4562  0.1507
25382SOL    HW176724   0.161   5.728   2.423  0.5017 -1.3040  0.8319
25382SOL    HW276725   0.122   5.730   2.569 -1.1282 -1.5760  0.4176
25383SOL     OW76726   0.519   5.210   2.008 -0.1506  0.2553 -0.0478
25383SOL    HW176727   0.452   5.158   2.053  0.1865  0.0193  0.1888
25383SOL    HW276728   0.492   5.210   1.916  0.1171 -0.7915 -0.1421
25384SOL     OW76729   2.154   1.970   7.588 -0.4718  0.1044 -0.3646
25384SOL    HW176730   2.148   2.037   7.519  1.7514 -0.2611 -0.9848
25384SOL    HW276731   2.181   1.891   7.541  0.8650 -0.2072  0.8962
25385SOL     OW76732   2.601   6.054   4.401 -0.3600 -0.1446  0.1085
25385SOL    HW176733   2.574   6.036   4.311 -0.5211  0.2810  0.0692
25385SOL    HW276734   2.677   6.112   4.392  0.7371 -1.5039  0.2102
25386SOL     OW76735   7.106   8.871   1.651 -0.2709 -0.2705  0.6229
25386SOL    HW176736   7.081   8.930   1.580  0.6710  0.3706  0.8158
25386SOL    HW276737   7.107   8.784   1.611  5.7374  0.4734 -1.8810
25387SOL     OW76738   9.078   5.381   9.366 -0.3442 -0.2762  0.2846
25387SOL    HW176739   9.035   5.358   9.284  1.9795 -0.3159 -1.0083
25387SOL    HW276740   9.081   5.476   9.366  0.0195 -0.2878  0.1245
25388SOL     OW76741   4.399   9.856   8.560 -0.2994  0.5457  0.3113
25388SOL    HW176742   4.339   9.786   8.537  2.6249 -1.8654 -0.6017
25388SOL    HW276743   4.424   9.896   8.477  2.4520 -1.3370  0.1129
25389SOL     OW76744   1.923   0.538   2.585  0.1282  0.3730  0.8366
25389SOL    HW176745   1.926   0.621   2.633  1.0243  0.7729  0.1025
25389SOL    HW276746   1.835   0.536   2.546  0.1513  1.0341  0.7508
25390SOL     OW76747   6.058   4.737   7.705 -0.0053 -0.4225 -0.3177
25390SOL    HW176748   6.015   4.757   7.788 -0.8237 -1.2691 -0.5262
25390SOL    HW276749   6.020   4.799   7.643 -0.4520 -0.7456 -0.3663
25391SOL     OW76750   8.996   2.264   5.218  0.1330 -0.1133 -0.1381
25391SOL    HW176751   8.944   2.210   5.159 -1.1040  1.0552 -0.1514
25391SOL    HW276752   9.062   2.305   5.162  0.0039 -0.2733 -0.4089
25392SOL     OW76753   2.231   6.632   9.456 -0.2931  0.6144  0.3030
25392SOL    HW176754   2.248   6.721   9.489 -0.0089  0.9882 -0.8022
25392SOL    HW276755   2.303   6.616   9.395  0.4137 -0.9164  1.4737
25393SOL     OW76756   9.150   4.637   1.952  0.2473 -0.0464 -0.3847
25393SOL    HW176757   9.112   4.562   1.907 -0.7997 -0.1807  0.6701
25393SOL    HW276758   9.200   4.682   1.885  0.8399 -1.6350 -1.0684
25394SOL     OW76759   4.570   9.209   8.994  0.0616 -0.5266 -0.3176
25394SOL    HW176760   4.530   9.259   8.922 -1.1139 -0.1982  0.5320
25394SOL    HW276761   4.589   9.275   9.061 -1.8254 -1.1849  0.9576
25395SOL     OW76762   2.974   3.099   6.019 -0.2295  0.3270 -0.1307
25395SOL    HW176763   3.029   3.176   6.030 -0.3180  0.4830 -0.7070
25395SOL    HW276764   2.996   3.042   6.093  1.1845  0.0964 -0.6945
25396SOL     OW76765   0.138   1.331   9.154  0.2962 -0.4102  0.3661
25396SOL    HW176766   0.054   1.376   9.154  0.8201  0.6558 -0.8747
25396SOL    HW276767   0.199   1.395   9.192  0.7203 -0.8041  0.3568
25397SOL     OW76768   7.601   7.206   1.174  0.1809 -0.1480  0.3429
25397SOL    HW176769   7.517   7.198   1.129  0.9857  0.7694 -1.3941
25397SOL    HW276770   7.600   7.134   1.238 -1.4710 -0.8050 -0.3583
25398SOL     OW76771   3.613   2.556   2.564 -0.9452 -0.0004  0.0802
25398SOL    HW176772   3.529   2.537   2.606 -2.5070 -0.4767 -2.9398
25398SOL    HW276773   3.623   2.487   2.498  1.3219  0.6548 -0.3473
25399SOL     OW76774   6.864   8.396   9.590  0.1764  0.2672 -0.1153
25399SOL    HW176775   6.908   8.384   9.506 -0.9184 -0.5974 -0.5924
25399SOL    HW276776   6.890   8.484   9.619  0.2749  0.7194 -1.5268
25400SOL     OW76777   6.686   0.774   4.372  0.3590 -0.0457 -0.2643
25400SOL    HW176778   6.745   0.765   4.298  1.1293 -0.3120  0.3663
25400SOL    HW276779   6.711   0.703   4.432 -1.0609 -0.5954 -0.2869
25401SOL     OW76780   0.698   8.332   4.476 -0.0383 -0.1798 -0.0668
25401SOL    HW176781   0.785   8.352   4.443 -0.7730  0.4818 -1.7154
25401SOL    HW276782   0.653   8.416   4.478 -0.3945 -0.3651  1.6418
25402SOL     OW76783   2.172   5.688   2.982 -0.2541  0.6752 -0.0134
25402SOL    HW176784   2.126   5.756   3.030  0.4098  1.5405 -0.5798
25402SOL    HW276785   2.140   5.695   2.892  0.1314  0.5142 -0.1654
25403SOL     OW76786   0.681   2.140   7.902 -0.1628 -0.8115 -0.2738
25403SOL    HW176787   0.590   2.160   7.878 -0.1957  0.4036  0.6973
25403SOL    HW276788   0.691   2.047   7.884 -1.1013 -0.6409 -1.9112
25404SOL     OW76789   0.392   1.327   4.366  0.2701 -0.1145  0.3136
25404SOL    HW176790   0.325   1.314   4.299 -0.4953  0.4875  0.9444
25404SOL    HW276791   0.440   1.404   4.338  0.5657 -0.4143 -0.0212
25405SOL     OW76792   4.542   2.624   7.678  0.2729 -0.5727  0.0211
25405SOL    HW176793   4.597   2.623   7.600  1.6270 -2.2700  0.9381
25405SOL    HW276794   4.490   2.544   7.672 -1.4925  0.5329 -0.3475
25406SOL     OW76795   9.249   6.755   1.067  0.4898 -0.6451 -0.1509
25406SOL    HW176796   9.202   6.765   0.985 -1.7449 -1.4707  0.9307
25406SOL    HW276797   9.246   6.841   1.108 -0.3164 -0.7330 -0.0061
25407SOL     OW76798   6.763   1.693   8.835 -0.1791 -0.0537  0.8969
25407SOL    HW176799   6.854   1.702   8.863 -0.4636  2.1020  1.3438
25407SOL    HW276800   6.768   1.680   8.741  0.6153 -1.0720  1.0693
25408SOL     OW76801   1.345   4.237   6.720 -0.0526  0.1613  0.7554
25408SOL    HW176802   1.389   4.270   6.641 -1.3527 -2.4941 -1.2395
25408SOL    HW276803   1.261   4.283   6.722 -1.8940 -2.6939 -2.0535
25409SOL     OW76804   9.855   1.067   4.621  0.1513 -0.4343  0.2655
25409SOL    HW176805   9.920   1.034   4.559  0.4604 -1.4713  1.1121
25409SOL    HW276806   9.843   0.996   4.684 -2.0791 -0.4223 -0.0625
25410SOL     OW76807   3.182   8.098   1.583 -0.0429 -0.4980  0.7403
25410SOL    HW176808   3.087   8.109   1.580  0.1204  1.0722  0.6467
25410SOL    HW276809   3.210   8.111   1.492  0.3100 -0.5278  0.8460
25411SOL     OW76810   6.085   2.590   3.121  0.5580  0.5026  0.3649
25411SOL    HW176811   6.014   2.617   3.179  0.6178  0.0507  0.6529
25411SOL    HW276812   6.051   2.515   3.074  1.0707 -0.1311  0.9871
25412SOL     OW76813   6.828   2.469   4.006 -0.0341 -0.2773  0.2919
25412SOL    HW176814   6.849   2.464   3.913 -1.3067  0.0465 -0.0333
25412SOL    HW276815   6.783   2.387   4.025 -3.0218  1.0917 -0.2912
25413SOL     OW76816   4.804   8.832   8.156  0.4292  0.0469 -0.4154
25413SOL    HW176817   4.802   8.756   8.214  0.0853  0.0939 -0.3648
25413SOL    HW276818   4.821   8.795   8.069 -1.3054 -0.2744 -0.6667
25414SOL     OW76819   7.452   9.532   8.461  0.3011  0.5013  0.2675
25414SOL    HW176820   7.540   9.511   8.494  1.3184  0.7972 -2.0734
25414SOL    HW276821   7.410   9.446   8.450  0.8145  0.2797  0.0363
25415SOL     OW76822   4.346   8.598   7.901  0.1961 -0.2813  0.1336
25415SOL    HW176823   4.364   8.670   7.961  1.6874  0.4543 -1.1046
25415SOL    HW276824   4.317   8.526   7.957 -0.1716  0.8953  1.5245
25416SOL     OW76825   5.186   8.831   3.888  0.1532  0.1006  0.3615
25416SOL    HW176826   5.281   8.823   3.897 -0.0341 -1.8595  1.3513
25416SOL    HW276827   5.155   8.740   3.879 -1.7993  0.4262  2.6315
25417SOL     OW76828   1.006   6.941   5.121 -1.2176 -0.4035  0.4728
25417SOL    HW176829   1.006   6.933   5.216  0.0936 -1.1518  0.4319
25417SOL    HW276830   0.979   6.855   5.089  0.8572 -0.9918  0.1685
25418SOL     OW76831   8.483   0.816   4.674 -0.5088 -0.4137 -0.3139
25418SOL    HW176832   8.435   0.828   4.592 -2.1654  2.4311  0.9573
25418SOL    HW276833   8.524   0.900   4.691  1.5302 -1.5427  0.8294
25419SOL     OW76834   2.517   4.151   5.413 -0.2041 -0.4410 -0.0612
25419SOL    HW176835   2.546   4.079   5.357 -1.0894 -1.6063  0.9294
25419SOL    HW276836   2.532   4.119   5.502 -0.1845  0.7947  0.3920
25420SOL     OW76837   8.876   7.788   2.671  0.0401  0.7161 -0.5402
25420SOL    HW176838   8.803   7.747   2.716 -0.1412  0.8331 -0.7264
25420SOL    HW276839   8.947   7.790   2.736 -0.7789  2.5929  0.3585
25421SOL     OW76840   7.888   2.851   6.192 -0.1627 -0.7917  0.0455
25421SOL    HW176841   7.960   2.848   6.254 -1.3363 -1.8361  1.4162
25421SOL    HW276842   7.829   2.919   6.227  0.3376  0.4230 -1.3327
25422SOL     OW76843   5.763   6.824   5.241  0.4150 -0.1291  0.0047
25422SOL    HW176844   5.752   6.815   5.335  1.2775  1.3678  0.2829
25422SOL    HW276845   5.684   6.786   5.204 -0.5518  0.4502  1.3920
25423SOL     OW76846   3.026   2.299   6.882  1.0174  0.2994 -0.0135
25423SOL    HW176847   3.011   2.298   6.787  1.5311 -0.6050 -0.0899
25423SOL    HW276848   3.031   2.392   6.904  0.7715  0.5207 -0.8514
25424SOL     OW76849   8.051   6.373   7.636  0.0508  0.5202 -0.6275
25424SOL    HW176850   8.045   6.282   7.607 -1.0899  1.0517 -2.2297
25424SOL    HW276851   8.115   6.413   7.577 -1.2029  1.2772 -1.5261
25425SOL     OW76852   0.568   8.852   4.586 -0.8906  0.2045  0.0420
25425SOL    HW176853   0.578   8.941   4.552  0.8746 -0.1708 -0.4935
25425SOL    HW276854   0.514   8.808   4.521  0.9960 -0.0053 -1.4654
25426SOL     OW76855   3.810   8.500   4.984  0.0552 -0.2060 -1.0455
25426SOL    HW176856   3.898   8.535   4.972 -1.4987  4.1566 -1.6588
25426SOL    HW276857   3.797   8.500   5.079  0.3665  0.1289 -0.9990
25427SOL     OW76858   3.729   3.861   5.878  0.5959 -0.2282 -0.4972
25427SOL    HW176859   3.779   3.942   5.877  1.5480 -0.7922 -1.6578
25427SOL    HW276860   3.755   3.816   5.797 -0.1081 -1.5638 -0.0098
25428SOL     OW76861   7.241   4.677   6.745 -0.4116 -0.6496  0.4928
25428SOL    HW176862   7.310   4.723   6.697 -0.9257 -0.7588 -0.3653
25428SOL    HW276863   7.288   4.609   6.793  0.0462 -1.0319 -0.4638
25429SOL     OW76864   0.800   3.356   8.178  0.1059  0.6312 -0.3973
25429SOL    HW176865   0.757   3.417   8.237  1.3285 -0.4552  1.7081
25429SOL    HW276866   0.881   3.401   8.153  0.3665  0.4291  0.0762
25430SOL     OW76867   1.335   7.505   8.857  0.2957 -0.1759  0.3082
25430SOL    HW176868   1.371   7.432   8.907  0.8886  0.1858  0.4249
25430SOL    HW276869   1.339   7.476   8.766 -2.4506 -1.5605  0.5373
25431SOL     OW76870   8.585   5.288   7.583 -0.4972  0.1663  0.4710
25431SOL    HW176871   8.530   5.238   7.522  1.1086 -1.6953  0.4308
25431SOL    HW276872   8.546   5.375   7.586 -1.0110  0.1539 -2.7377
25432SOL     OW76873   7.608   4.574   7.530 -0.1940  0.0853  0.2263
25432SOL    HW176874   7.564   4.655   7.556  0.3278  0.4063  0.1241
25432SOL    HW276875   7.669   4.600   7.461 -1.1826 -0.6724 -0.9716
25433SOL     OW76876   7.158   5.259   6.334 -0.1803  0.1228 -0.0122
25433SOL    HW176877   7.211   5.180   6.344  0.1768  0.1121 -1.6841
25433SOL    HW276878   7.070   5.234   6.363  0.3983 -0.2490  1.5020
25434SOL     OW76879   1.771   8.613   0.671 -0.4227  0.0438  0.0310
25434SOL    HW176880   1.792   8.642   0.582 -0.2459  0.4408  0.2045
25434SOL    HW276881   1.775   8.517   0.666  0.5657  0.0852 -0.1479
25435SOL     OW76882   7.982   1.268   2.420  0.6030  0.6253  0.4920
25435SOL    HW176883   7.949   1.348   2.459  0.3971  0.7641  0.0275
25435SOL    HW276884   7.920   1.246   2.352  1.7258  1.1793 -0.7532
25436SOL     OW76885   8.454   4.112   0.561 -0.5632  0.3089 -0.2235
25436SOL    HW176886   8.543   4.087   0.586 -1.3287 -0.9626  1.5200
25436SOL    HW276887   8.451   4.207   0.573  0.6683  0.4469 -0.8042
25437SOL     OW76888   5.868   8.859   7.070 -0.3469  0.5031  0.3751
25437SOL    HW176889   5.780   8.843   7.105  0.5361 -1.1435  2.0471
25437SOL    HW276890   5.924   8.857   7.148  1.4466 -0.8424 -0.8941
25438SOL     OW76891   8.651   0.754   2.345 -0.5318  0.0707 -0.1770
25438SOL    HW176892   8.644   0.827   2.406  0.1708  0.3795 -0.4484
25438SOL    HW276893   8.732   0.709   2.370 -0.9878 -0.6459  0.0211
25439SOL     OW76894   6.072   8.070   6.351 -0.7136 -0.4483  0.2897
25439SOL    HW176895   6.070   7.975   6.358 -1.2401 -0.4849 -0.3198
25439SOL    HW276896   5.980   8.097   6.352 -0.6916 -0.1336 -1.7743
25440SOL     OW76897   9.165   3.411   3.618 -0.0151 -0.1502  0.0084
25440SOL    HW176898   9.134   3.333   3.665 -2.9622  0.0130 -1.4088
25440SOL    HW276899   9.246   3.436   3.663 -0.0903 -2.7839  1.8304
25441SOL     OW76900   2.588   4.503   6.440 -0.7221  0.0630 -0.0969
25441SOL    HW176901   2.504   4.540   6.412  0.2987  1.9771 -0.7364
25441SOL    HW276902   2.610   4.441   6.370 -2.1332 -1.4001  0.6718
25442SOL     OW76903   6.836   3.765   3.773  0.4559  0.5404  0.0159
25442SOL    HW176904   6.852   3.843   3.719 -0.6695  0.0434 -1.0896
25442SOL    HW276905   6.861   3.692   3.718  2.0342  0.0924  1.2530
25443SOL     OW76906   9.868   0.793   4.726 -0.2322 -0.1336 -0.3629
25443SOL    HW176907   9.913   0.818   4.807 -0.8506 -3.0797  0.9888
25443SOL    HW276908   9.864   0.698   4.728 -2.1373 -0.2202 -2.8822
25444SOL     OW76909   3.662   6.389   3.998  0.7868 -0.3367  0.4483
25444SOL    HW176910   3.606   6.387   3.920  2.7074 -0.9387 -0.9973
25444SOL    HW276911   3.635   6.469   4.044 -1.0624 -0.4825 -0.2829
25445SOL     OW76912   6.454   0.253   5.957  0.1842  0.2105 -0.2534
25445SOL    HW176913   6.434   0.340   5.925  0.6952  0.4401  0.0432
25445SOL    HW276914   6.382   0.232   6.017 -0.0556  0.3304 -0.4950
25446SOL     OW76915   2.623   5.744   5.686 -0.0417 -0.1323 -0.7758
25446SOL    HW176916   2.715   5.752   5.659  0.1576 -2.8657 -1.2725
25446SOL    HW276917   2.575   5.798   5.623  1.2425  2.1637  0.1091
25447SOL     OW76918   2.732   5.902   2.572 -0.6984 -0.1210  0.2405
25447SOL    HW176919   2.815   5.856   2.574 -0.5172  0.2129  0.8371
25447SOL    HW276920   2.756   5.995   2.567 -1.0460 -0.0536 -0.2455
25448SOL     OW76921   9.130   6.386   4.729 -0.8979 -0.0324  0.0299
25448SOL    HW176922   9.097   6.301   4.760 -1.5126 -0.1049 -0.7744
25448SOL    HW276923   9.224   6.373   4.720 -0.8470 -0.3203  0.8550
25449SOL     OW76924   2.663   3.446   5.489 -0.1514  0.0960 -0.8565
25449SOL    HW176925   2.692   3.426   5.578 -0.3424  2.4525 -0.1774
25449SOL    HW276926   2.719   3.393   5.433 -0.7365 -2.2587  0.6506
25450SOL     OW76927   9.801   4.908   9.518  0.2478  0.2007  0.5189
25450SOL    HW176928   9.714   4.869   9.516  1.2576 -2.2250  0.4428
25450SOL    HW276929   9.857   4.840   9.556  2.0099  1.9403  1.2192
25451SOL     OW76930   1.876   6.996   9.053  0.4525  0.0719 -0.2803
25451SOL    HW176931   1.788   6.976   9.022  0.8680 -0.8521 -0.9154
25451SOL    HW276932   1.881   6.954   9.139  0.2395  0.2285 -0.1893
25452SOL     OW76933   6.950   2.963   0.725 -0.1153 -0.0362  0.6319
25452SOL    HW176934   6.964   2.916   0.807 -1.5610 -0.7855  0.4938
25452SOL    HW276935   6.927   2.894   0.662  1.9433  0.4115 -0.6807
25453SOL     OW76936   0.043   7.720   1.542  0.0981  0.5234 -0.0820
25453SOL    HW176937   0.121   7.769   1.568 -0.1546  3.1868 -3.5853
25453SOL    HW276938  -0.027   7.757   1.596  0.3892  2.2586 -0.8078
25454SOL     OW76939   7.778   1.242   0.758 -0.1496 -0.0810  0.5393
25454SOL    HW176940   7.816   1.215   0.842 -0.8627  0.6239  1.1030
25454SOL    HW276941   7.798   1.170   0.698  1.8049  0.1459  0.8838
25455SOL     OW76942   3.230   0.805   0.528 -0.5313 -0.2480 -0.1408
25455SOL    HW176943   3.254   0.897   0.538 -2.0534 -0.0239  2.3108
25455SOL    HW276944   3.189   0.782   0.612 -1.9160 -2.6261 -1.3718
25456SOL     OW76945   3.550   7.725   9.098 -0.2577  0.1356 -0.6922
25456SOL    HW176946   3.503   7.808   9.092 -0.5138  0.1649  1.1525
25456SOL    HW276947   3.642   7.748   9.096 -0.3275  0.5105  0.0987
25457SOL     OW76948   6.841   8.643   5.013 -0.7496  0.3042 -0.7205
25457SOL    HW176949   6.917   8.689   5.048  0.3092 -1.0039 -1.1926
25457SOL    HW276950   6.840   8.666   4.920 -1.0164  0.4370 -0.6838
25458SOL     OW76951   6.825   7.512   9.596 -0.3320 -0.1215  0.2506
25458SOL    HW176952   6.835   7.424   9.560  1.1405  1.2911 -3.2227
25458SOL    HW276953   6.876   7.511   9.677 -1.2518 -2.6640  0.8994
25459SOL     OW76954   3.068   2.784   5.118  0.0586 -0.6843  0.1499
25459SOL    HW176955   3.087   2.713   5.179  0.3490  1.1558  2.3687
25459SOL    HW276956   3.149   2.794   5.068  1.0479 -0.2041  1.7414
25460SOL     OW76957   4.566   6.151   6.166 -0.3450 -0.1249 -0.1735
25460SOL    HW176958   4.629   6.079   6.159  0.2998  0.2870  1.1453
25460SOL    HW276959   4.531   6.160   6.078  0.9310 -0.8267 -0.7848
25461SOL     OW76960   9.561   9.198   9.867  0.1624  0.4085  0.1329
25461SOL    HW176961   9.609   9.124   9.831  1.1024  0.5834  0.9950
25461SOL    HW276962   9.603   9.215   9.952  0.7612  2.6744 -0.5570
25462SOL     OW76963   3.643   9.682   6.841  0.0385  0.1268 -0.8256
25462SOL    HW176964   3.591   9.602   6.839 -0.0727  0.2124 -1.6173
25462SOL    HW276965   3.733   9.652   6.854 -0.1946 -0.0202  0.5824
25463SOL     OW76966   1.795   8.213   1.896  0.2115 -0.1116 -0.0089
25463SOL    HW176967   1.860   8.156   1.937  0.6966  0.0322 -0.5628
25463SOL    HW276968   1.790   8.183   1.805 -0.3829 -0.0170 -0.0124
25464SOL     OW76969   0.545   0.934   1.013 -0.1809 -0.2377  0.1588
25464SOL    HW176970   0.566   1.027   1.023 -1.9149  0.1830  0.2230
25464SOL    HW276971   0.614   0.900   0.956  0.1935  1.2050 -0.2962
25465SOL     OW76972   4.430   7.415   4.116  0.5195  0.0028 -0.3552
25465SOL    HW176973   4.507   7.471   4.118  0.3721  0.1814  0.5023
25465SOL    HW276974   4.464   7.330   4.086  1.4052 -0.4157  1.6471
25466SOL     OW76975   5.028   9.901   3.895  0.3004 -0.3737 -0.2419
25466SOL    HW176976   4.965   9.832   3.911  1.0861 -0.7208  1.5999
25466SOL    HW276977   5.076   9.910   3.978 -0.6529  3.2861  0.1129
25467SOL     OW76978   9.823   0.466   8.365  0.4591  0.2609 -0.0282
25467SOL    HW176979   9.901   0.518   8.384 -0.1565  1.1852  0.0356
25467SOL    HW276980   9.827   0.451   8.270  1.4194 -0.8823  0.1744
25468SOL     OW76981   0.847   4.269   4.272 -0.2561  0.0452 -0.0659
25468SOL    HW176982   0.897   4.330   4.219  0.1494 -0.2860 -0.0740
25468SOL    HW276983   0.784   4.230   4.211 -0.8351  0.7942  0.0462
25469SOL     OW76984   9.599   7.999   1.593  0.3284 -0.3747 -0.0397
25469SOL    HW176985   9.584   8.051   1.672 -0.5600  0.7787 -0.9252
25469SOL    HW276986   9.516   8.004   1.544  1.5636  1.0024 -2.1782
25470SOL     OW76987   7.318   0.305   3.038 -0.2596  0.4766  0.5327
25470SOL    HW176988   7.264   0.384   3.048 -0.5935  0.0217  2.8809
25470SOL    HW276989   7.261   0.242   2.994 -1.1050  0.5567  1.4616
25471SOL     OW76990   7.985   7.830   4.540  0.1718  0.3040  0.3896
25471SOL    HW176991   8.056   7.892   4.526 -0.8593  1.2923 -0.6366
25471SOL    HW276992   8.007   7.755   4.484  2.1351 -0.9580  2.6726
25472SOL     OW76993   3.960   1.265   5.141 -0.2038  0.1301  0.3565
25472SOL    HW176994   3.948   1.327   5.213 -1.1802 -0.0668  0.3877
25472SOL    HW276995   3.985   1.183   5.183  0.9252  0.4476  0.3275
25473SOL     OW76996   9.884   8.091   7.069 -0.3894  0.2987 -0.0413
25473SOL    HW176997   9.905   8.167   7.123  3.0380  0.1565 -0.9116
25473SOL    HW276998   9.903   8.119   6.980 -2.5927 -0.5443 -0.8512
25474SOL     OW76999   9.660   3.337   2.657  0.0589  0.3467  0.4997
25474SOL    HW177000   9.594   3.278   2.620 -0.9629  1.6963  0.0795
25474SOL    HW277001   9.701   3.286   2.727 -0.0398 -1.2221 -0.5268
25475SOL     OW77002   1.500   9.158   1.011  0.0281 -0.2244 -0.0290
25475SOL    HW177003   1.467   9.160   0.921  1.0692 -0.1367 -0.4233
25475SOL    HW277004   1.591   9.129   1.003  0.8618  1.9890  0.7593
25476SOL     OW77005   8.407   1.109   4.692  0.3866 -0.2578  0.4991
25476SOL    HW177006   8.314   1.086   4.690  0.2135  0.4496 -0.3976
25476SOL    HW277007   8.414   1.184   4.633  1.4600 -0.0381  0.8861
25477SOL     OW77008   4.256   2.409   5.374 -0.3097 -0.1114  0.1787
25477SOL    HW177009   4.231   2.317   5.383 -1.2460 -0.1471 -1.9969
25477SOL    HW277010   4.351   2.407   5.361 -0.6459 -1.1793 -3.0813
25478SOL     OW77011   5.112   8.996   3.690  0.3864  0.5859  0.3693
25478SOL    HW177012   5.055   8.940   3.638 -1.7390  1.5694  1.4983
25478SOL    HW277013   5.145   8.940   3.760 -0.3533  0.3281  0.5141
25479SOL     OW77014   7.443   5.374   5.507 -0.4701  0.4232 -0.1273
25479SOL    HW177015   7.485   5.310   5.450  0.2765 -0.8386  1.7157
25479SOL    HW277016   7.377   5.324   5.556 -0.3431  1.1813  0.8638
25480SOL     OW77017   1.571   5.054   9.998 -0.4152  0.2845 -0.2565
25480SOL    HW177018   1.488   5.094  10.023 -0.4335  0.5241 -0.6806
25480SOL    HW277019   1.557   5.024   9.908 -0.5339 -1.0567  0.1954
25481SOL     OW77020   8.017   4.915   2.689  0.5875 -0.1205  0.5247
25481SOL    HW177021   8.063   4.986   2.734  0.0857 -1.3132  3.0712
25481SOL    HW277022   8.029   4.838   2.745 -1.2988 -1.3690 -0.6502
25482SOL     OW77023   3.851   6.232   6.198  0.3021  0.0607  0.0388
25482SOL    HW177024   3.845   6.142   6.166 -0.7125  0.0674  0.1950
25482SOL    HW277025   3.935   6.236   6.243  1.6959 -0.0217 -2.3803
25483SOL     OW77026   2.157   6.393   2.860  0.4406 -0.4197 -0.2562
25483SOL    HW177027   2.239   6.398   2.909 -1.2024  0.3299  2.6801
25483SOL    HW277028   2.100   6.457   2.903 -1.6965 -0.8888 -2.2023
25484SOL     OW77029   5.881   7.272   0.162  0.1218  0.1314  0.5311
25484SOL    HW177030   5.927   7.232   0.236  1.5000  0.7256  0.0467
25484SOL    HW277031   5.949   7.324   0.118 -0.6883 -0.1451 -1.1030
25485SOL     OW77032   7.158   2.857   5.490  0.6018  0.4886  0.0222
25485SOL    HW177033   7.121   2.793   5.551  0.1611  1.4996  0.8441
25485SOL    HW277034   7.249   2.830   5.479  1.1892  1.2634  2.5165
25486SOL     OW77035   1.693   3.423   3.054 -0.3634  0.2898  0.2825
25486SOL    HW177036   1.664   3.362   3.121 -1.3055 -1.4960 -1.6157
25486SOL    HW277037   1.701   3.507   3.099 -2.0685 -0.5633  2.3414
25487SOL     OW77038   2.651   2.711   1.137  0.1698  0.2481  0.1313
25487SOL    HW177039   2.729   2.757   1.166  0.6745 -0.1226 -0.6222
25487SOL    HW277040   2.639   2.739   1.046  1.0334 -1.7999 -0.6724
25488SOL     OW77041   9.248   2.388   6.299  0.3949  0.6366 -0.5331
25488SOL    HW177042   9.314   2.434   6.247  1.8181  0.9233  1.4057
25488SOL    HW277043   9.251   2.298   6.268  2.2390  0.4873 -0.0573
25489SOL     OW77044   4.873   8.670   1.641 -0.0878 -0.2169  0.2143
25489SOL    HW177045   4.916   8.642   1.722  2.0155 -0.7228 -1.0187
25489SOL    HW277046   4.847   8.588   1.599 -0.0398 -0.0161 -0.2117
25490SOL     OW77047   1.329   2.666   5.726 -0.2831  0.0779 -0.3666
25490SOL    HW177048   1.374   2.714   5.657 -1.7519  1.8679 -0.1395
25490SOL    HW277049   1.285   2.733   5.778 -1.0356 -1.3990  0.9935
25491SOL     OW77050   2.578   9.521   7.193 -0.3041 -0.7724  0.1009
25491SOL    HW177051   2.616   9.570   7.266 -1.0846 -0.6813  0.4668
25491SOL    HW277052   2.631   9.543   7.117 -0.5567  0.5330  0.2892
25492SOL     OW77053   9.281   2.293   8.451 -0.2708 -0.5317  0.3535
25492SOL    HW177054   9.235   2.375   8.468 -0.2504 -0.5860  0.6933
25492SOL    HW277055   9.297   2.257   8.539 -1.4713 -1.5582  0.1785
25493SOL     OW77056   8.225   9.531   3.903 -0.0874 -0.2921 -0.7640
25493SOL    HW177057   8.140   9.496   3.931  0.1623  0.0696  0.4998
25493SOL    HW277058   8.282   9.518   3.978  0.6336  0.6862 -1.1300
25494SOL     OW77059   1.287   6.937   7.925  0.0818 -0.0489  0.1976
25494SOL    HW177060   1.201   6.903   7.949  0.6662  0.1547  2.8941
25494SOL    HW277061   1.302   7.009   7.987  2.3140 -0.3062  0.0162
25495SOL     OW77062   5.407   8.024   3.412  0.0044 -0.2958  0.2503
25495SOL    HW177063   5.489   8.066   3.437 -0.6196  0.6967  0.6900
25495SOL    HW277064   5.394   7.955   3.477 -0.1523  0.3877  0.9540
25496SOL     OW77065   2.639   4.846   0.141  0.2141 -0.0225 -1.2592
25496SOL    HW177066   2.553   4.812   0.164  1.0419 -0.8240  0.9028
25496SOL    HW277067   2.699   4.804   0.203  1.9463  1.7556 -1.6286
25497SOL     OW77068   4.634   6.688   0.818  0.3452 -0.2874 -0.0445
25497SOL    HW177069   4.559   6.729   0.775  0.2868  0.0554  0.3845
25497SOL    HW277070   4.693   6.665   0.745  0.2151  0.2198 -0.3162
25498SOL     OW77071   9.439   0.698   0.374  0.5704  0.0503  0.6675
25498SOL    HW177072   9.479   0.711   0.288  0.9598  0.0744  0.8496
25498SOL    HW277073   9.424   0.603   0.379 -1.8626  0.2957 -0.4797
25499SOL     OW77074   4.949   8.145   2.739 -0.0654  0.0915 -0.0096
25499SOL    HW177075   4.923   8.163   2.829  1.9014  0.3139  0.5710
25499SOL    HW277076   4.984   8.228   2.708 -0.9352  0.0737 -1.0723
25500SOL     OW77077   7.133   8.421   1.325  0.2616  0.3881  0.4354
25500SOL    HW177078   7.061   8.359   1.338  1.7056 -1.2664  0.9655
25500SOL    HW277079   7.169   8.435   1.412  0.8739  0.8233  0.1180
25501SOL     OW77080   9.192   5.634   8.342  0.1755 -0.4791 -0.5054
25501SOL    HW177081   9.218   5.548   8.308  0.0846 -0.8194  0.2687
25501SOL    HW277082   9.129   5.667   8.278  1.4341 -0.2525 -1.6871
25502SOL     OW77083   9.866   8.565   1.811 -0.6829 -0.1790 -0.5303
25502SOL    HW177084   9.908   8.494   1.858  2.5602  2.5282  1.1168
25502SOL    HW277085   9.897   8.555   1.720  0.7394 -0.2676 -0.0659
25503SOL     OW77086   9.357   7.342   5.116  0.3450 -0.3917 -0.7356
25503SOL    HW177087   9.266   7.317   5.104  0.1544  0.5758 -1.4888
25503SOL    HW277088   9.407   7.262   5.099 -0.4347 -1.8627  2.9367
25504SOL     OW77089   4.663   0.622   3.729  0.1514 -0.2258  0.0401
25504SOL    HW177090   4.619   0.596   3.648  2.7140  1.4893 -2.0752
25504SOL    HW277091   4.735   0.559   3.738  2.6418  2.1453 -1.7146
25505SOL     OW77092   3.993   2.089   7.082 -0.2745 -0.2028 -0.6832
25505SOL    HW177093   3.996   2.169   7.136 -1.9508 -0.0971 -0.7080
25505SOL    HW277094   3.945   2.115   7.004  0.0910 -0.9816 -1.1737
25506SOL     OW77095   2.396   8.858   5.149  0.2747 -0.1716 -0.0800
25506SOL    HW177096   2.449   8.783   5.123  2.9783  1.4397  0.4218
25506SOL    HW277097   2.397   8.857   5.245 -1.0647 -0.3691 -0.0438
25507SOL     OW77098   5.986   4.163   8.155  0.5467 -0.0660  0.2269
25507SOL    HW177099   5.985   4.210   8.239 -0.6081  0.6777 -0.1786
25507SOL    HW277100   6.023   4.077   8.176 -0.0695 -0.0286  1.5912
25508SOL     OW77101   4.010   7.736   9.969  0.3016 -0.4244 -0.0160
25508SOL    HW177102   4.082   7.683   9.934 -0.8660 -1.3446 -1.1385
25508SOL    HW277103   3.950   7.672  10.007  0.1412  0.3415  1.0562
25509SOL     OW77104   0.753   6.165   7.780 -0.1820 -0.0057  0.0370
25509SOL    HW177105   0.747   6.209   7.696  1.8984 -1.3285 -0.8973
25509SOL    HW277106   0.838   6.193   7.816  0.1426 -1.4311  0.4557
25510SOL     OW77107   0.350   1.349   3.604  0.2142  0.1409 -0.1678
25510SOL    HW177108   0.316   1.277   3.657  1.9181  0.0746  0.9318
25510SOL    HW277109   0.417   1.309   3.548  0.2439  0.6381 -0.4938
25511SOL     OW77110   2.470   4.704   7.289  0.4136 -0.2473  0.1763
25511SOL    HW177111   2.391   4.701   7.237  0.9965  0.0623 -0.7530
25511SOL    HW277112   2.444   4.748   7.370 -0.3890 -0.2973 -0.0488
25512SOL     OW77113   4.966   5.657   4.318  0.4089 -0.1309  0.0143
25512SOL    HW177114   4.962   5.738   4.368 -1.1969  0.2529 -0.6957
25512SOL    HW277115   5.056   5.626   4.331  1.3857  2.2514 -0.5155
25513SOL     OW77116   8.809   7.716   5.498 -0.6763  0.0380  0.7695
25513SOL    HW177117   8.854   7.705   5.582 -0.4190 -0.8509  0.5308
25513SOL    HW277118   8.824   7.633   5.452 -2.5474 -0.2926  0.6682
25514SOL     OW77119   9.293   2.332   8.750  0.0547 -0.1545 -0.0773
25514SOL    HW177120   9.281   2.295   8.837  1.1044 -1.3425 -0.4075
25514SOL    HW277121   9.386   2.320   8.731 -0.2421 -0.3829 -1.5565
25515SOL     OW77122   2.408   2.532   4.610 -0.0563 -0.2739 -0.1708
25515SOL    HW177123   2.485   2.553   4.556  1.1404  0.3296  1.6864
25515SOL    HW277124   2.405   2.601   4.676 -1.3831 -1.0692  0.6360
25516SOL     OW77125   5.696   0.069   4.141 -0.0447  0.5491  0.8524
25516SOL    HW177126   5.630   0.138   4.139 -0.9543 -0.2698 -1.8769
25516SOL    HW277127   5.646  -0.011   4.162  0.3543  0.1629  0.3373
25517SOL     OW77128   1.459   4.596   1.984 -0.2185 -0.2344  0.1458
25517SOL    HW177129   1.442   4.672   2.039 -0.4269 -1.5221  1.9639
25517SOL    HW277130   1.393   4.600   1.915 -1.0613  0.5319  0.9744
25518SOL     OW77131   0.741   5.729   0.239 -0.5603  0.3495  0.2930
25518SOL    HW177132   0.666   5.708   0.293 -0.5098 -0.7277 -0.0454
25518SOL    HW277133   0.811   5.748   0.301 -0.1610 -2.0764  0.6526
25519SOL     OW77134   4.131   6.332   3.119 -0.1989  0.0381  0.1781
25519SOL    HW177135   4.191   6.400   3.089  0.5552 -1.0328 -0.8160
25519SOL    HW277136   4.045   6.374   3.116  0.2079  0.8512 -0.7685
25520SOL     OW77137   4.726   0.242   3.482  0.0618  0.3891 -0.0251
25520SOL    HW177138   4.672   0.265   3.557 -0.2419  3.0751 -0.9517
25520SOL    HW277139   4.666   0.247   3.407  0.8926  0.2408 -0.7137
25521SOL     OW77140   0.043   5.494   6.008 -0.0039  0.1151 -0.3267
25521SOL    HW177141   0.137   5.513   6.014 -0.3694  1.8872  0.2961
25521SOL    HW277142   0.031   5.461   5.919  1.3117 -0.8259 -0.1757
25522SOL     OW77143   7.874   2.645   0.052 -0.3430  0.3979  0.0459
25522SOL    HW177144   7.839   2.617   0.137  0.3310  0.1815  0.2579
25522SOL    HW277145   7.898   2.736   0.066 -0.7636  0.5312 -0.0845
25523SOL     OW77146   5.954   7.383   3.453 -0.6070 -0.2294  0.1653
25523SOL    HW177147   6.019   7.318   3.479 -0.3272 -0.1022 -0.2186
25523SOL    HW277148   5.923   7.420   3.536 -0.5768 -0.6657  0.3727
25524SOL     OW77149   3.341   8.757   9.039  0.4451  0.3010  0.8727
25524SOL    HW177150   3.281   8.685   9.020  1.2705 -0.6855  1.7728
25524SOL    HW277151   3.342   8.762   9.135  2.3587 -0.2905  0.9480
25525SOL     OW77152   9.684   1.413   6.569 -0.3883 -0.1803  0.0436
25525SOL    HW177153   9.684   1.318   6.577  0.6212 -0.0965  1.3298
25525SOL    HW277154   9.654   1.445   6.654  2.1402  0.6541  0.7196
25526SOL     OW77155   6.749   4.952   9.588  0.4972  0.5994  0.2541
25526SOL    HW177156   6.752   4.968   9.493  1.5514  0.7416  0.2987
25526SOL    HW277157   6.750   4.857   9.596 -1.5987  0.5206  0.0913
25527SOL     OW77158   2.022   3.695   6.091  0.1516 -0.2873 -0.3449
25527SOL    HW177159   1.982   3.615   6.124 -0.4020 -0.2698 -0.9474
25527SOL    HW277160   1.964   3.723   6.020  0.7191  0.2680 -0.5977
25528SOL     OW77161   5.505   8.968   3.744  0.0519 -0.7535  0.6780
25528SOL    HW177162   5.497   9.058   3.712 -0.4462 -0.6803  1.0001
25528SOL    HW277163   5.440   8.919   3.693 -1.0038 -0.5690  1.8082
25529SOL     OW77164   5.468   2.754   1.188 -0.1864 -0.2997 -0.2447
25529SOL    HW177165   5.506   2.690   1.248 -0.5164  1.1620  1.6398
25529SOL    HW277166   5.540   2.779   1.131  1.3455  1.1834  2.1728
25530SOL     OW77167   4.142   5.528   9.886  0.8430  0.7595  0.3866
25530SOL    HW177168   4.195   5.487   9.819 -2.8705 -1.9784 -1.2586
25530SOL    HW277169   4.163   5.482   9.967  0.5214 -0.7880 -0.3870
25531SOL     OW77170   3.724   0.026   0.365  0.9150  0.7364  0.2658
25531SOL    HW177171   3.740   0.030   0.271  0.3487 -0.9664  0.0671
25531SOL    HW277172   3.806  -0.008   0.402  0.4462 -0.6357  0.1135
25532SOL     OW77173   0.234   6.669   0.508 -0.8858  0.1861 -0.1947
25532SOL    HW177174   0.325   6.650   0.485 -0.8590  0.0119  0.0510
25532SOL    HW277175   0.237   6.689   0.601 -1.4947 -2.5811  0.5181
25533SOL     OW77176   4.678   0.507   8.751 -0.1229 -0.6679  0.2007
25533SOL    HW177177   4.721   0.589   8.773  1.1206 -1.2805  0.1563
25533SOL    HW277178   4.639   0.478   8.834  0.5934 -0.6962  0.5339
25534SOL     OW77179   9.600   9.680   3.988  0.1112  0.2830 -0.6237
25534SOL    HW177180   9.579   9.590   4.012 -3.0211  1.2329  0.7347
25534SOL    HW277181   9.555   9.694   3.904 -0.8830  1.0065  0.0013
25535SOL     OW77182   6.711   0.119   6.933 -0.2321  0.1936  0.0034
25535SOL    HW177183   6.744   0.196   6.887 -0.0688  0.1587  0.0612
25535SOL    HW277184   6.758   0.119   7.016 -0.1677 -0.0184 -0.0327
25536SOL     OW77185   6.970   0.330   0.857  0.5724  0.0233 -0.5189
25536SOL    HW177186   6.899   0.351   0.918  1.3776  0.8847  0.1521
25536SOL    HW277187   7.032   0.402   0.867  1.4512 -0.6117 -1.2414
25537SOL     OW77188   4.290   6.251   9.858 -0.2928  0.1351  0.2310
25537SOL    HW177189   4.366   6.230   9.913  0.4248  1.2580 -0.2677
25537SOL    HW277190   4.234   6.305   9.914  0.4247  1.2564 -0.1014
25538SOL     OW77191   9.595   8.918   2.612 -0.1795  0.0411  0.4780
25538SOL    HW177192   9.632   8.833   2.636  2.0050  0.2471 -1.7135
25538SOL    HW277193   9.572   8.908   2.519 -2.2233  1.1223  0.8228
25539SOL     OW77194   7.879   1.538   3.663 -0.7896  0.6479 -0.0952
25539SOL    HW177195   7.822   1.519   3.588  0.8501  1.4802 -1.6048
25539SOL    HW277196   7.871   1.633   3.676 -2.6572  0.2692  2.1895
25540SOL     OW77197   0.699   8.991   0.757  0.1668  0.1454 -0.1172
25540SOL    HW177198   0.703   8.945   0.841 -1.2374  1.0467  0.4737
25540SOL    HW277199   0.641   8.937   0.703 -0.7570  0.7017  0.2796
25541SOL     OW77200   6.917   5.680   5.029  0.3100 -0.8281  0.0116
25541SOL    HW177201   6.833   5.673   5.073  0.3301 -0.3982  0.1206
25541SOL    HW277202   6.902   5.642   4.942 -0.7694  1.7676 -1.0297
25542SOL     OW77203   0.363   7.021   8.628 -0.2912  0.7018  0.1270
25542SOL    HW177204   0.300   7.092   8.639 -0.0160  0.5632  3.8496
25542SOL    HW277205   0.446   7.058   8.659  0.7684 -0.1320 -1.5588
25543SOL     OW77206   5.910   6.738   9.162  0.1556 -0.3891  0.3487
25543SOL    HW177207   5.865   6.685   9.228  0.9105 -3.0683 -1.1394
25543SOL    HW277208   5.845   6.803   9.135 -1.9377 -2.4527  0.1377
25544SOL     OW77209   0.011   2.445   3.394  1.0682  0.1843 -0.1939
25544SOL    HW177210   0.081   2.382   3.376  0.4394 -0.6642  0.2760
25544SOL    HW277211   0.004   2.496   3.313  0.0072 -1.8998 -1.5171
25545SOL     OW77212   1.148   8.950   3.385  0.2074 -0.1704 -0.0603
25545SOL    HW177213   1.067   8.935   3.434 -0.1741  1.1727 -0.2338
25545SOL    HW277214   1.198   8.869   3.396 -0.1022 -0.1329  2.1053
25546SOL     OW77215   3.426   3.333   2.309 -0.2395  0.2057 -0.0638
25546SOL    HW177216   3.392   3.245   2.317 -0.3514  0.0310 -2.0387
25546SOL    HW277217   3.456   3.355   2.398 -0.2342 -1.7744  0.4758
25547SOL     OW77218   5.565   0.013   6.621 -0.1866  0.5482  0.2804
25547SOL    HW177219   5.619  -0.064   6.642 -0.3602  0.7120  1.3855
25547SOL    HW277220   5.618   0.087   6.651 -0.4120  0.8019  0.0513
25548SOL     OW77221   6.159   4.944   1.840  0.3055 -0.1387 -0.1334
25548SOL    HW177222   6.150   4.877   1.908 -0.6429  0.4230  0.3193
25548SOL    HW277223   6.101   5.014   1.869  0.1583  0.2569 -1.3539
25549SOL     OW77224   1.872   8.518   0.969 -0.0270 -0.1862  0.0550
25549SOL    HW177225   1.820   8.555   0.897 -1.1183  2.2933  1.9975
25549SOL    HW277226   1.959   8.505   0.931 -0.7474  0.2905 -1.9043
25550SOL     OW77227   7.156   4.737   1.171  0.5308  0.2159  0.2270
25550SOL    HW177228   7.120   4.650   1.153  2.7731 -1.0391  1.3618
25550SOL    HW277229   7.081   4.787   1.205 -0.4522 -1.8430  1.2949
25551SOL     OW77230   3.397   9.727   0.875  0.1467  0.1486  0.1965
25551SOL    HW177231   3.401   9.631   0.881 -1.1490 -0.1299 -2.1599
25551SOL    HW277232   3.480   9.752   0.835  0.3502 -0.0371  0.5045
25552SOL     OW77233   3.652   5.438   9.359  0.0191  0.3775 -0.4091
25552SOL    HW177234   3.600   5.461   9.282  0.1760 -1.7924 -1.2245
25552SOL    HW277235   3.701   5.518   9.379 -1.1876  1.4687 -1.5863
25553SOL     OW77236   0.416   3.400   4.112  0.4341 -0.2435  0.0913
25553SOL    HW177237   0.418   3.473   4.050  0.1444  2.4785  2.9910
25553SOL    HW277238   0.508   3.382   4.130  0.5620 -1.8694 -1.8647
25554SOL     OW77239   7.578   4.558   2.328 -0.2794  0.1881  0.0768
25554SOL    HW177240   7.621   4.484   2.371 -2.0064  0.0692  1.6723
25554SOL    HW277241   7.555   4.525   2.241 -0.3408 -0.8861  0.4899
25555SOL     OW77242   6.673   5.666   1.359 -0.0408 -0.5033  0.4910
25555SOL    HW177243   6.762   5.638   1.380  0.2535 -0.7772 -1.0453
25555SOL    HW277244   6.623   5.585   1.349 -0.1915 -0.3724  0.1783
25556SOL     OW77245   0.470   0.510   3.304 -0.1104  0.3189 -0.0713
25556SOL    HW177246   0.443   0.418   3.305  1.6196 -0.2316 -0.0568
25556SOL    HW277247   0.415   0.552   3.370  0.4165 -1.1471  1.3833
25557SOL     OW77248   7.444   1.491   1.757  0.6479 -0.3992  0.2430
25557SOL    HW177249   7.387   1.418   1.784  0.8348 -1.1519 -1.2766
25557SOL    HW277250   7.391   1.569   1.771  0.5828 -0.7549  2.2909
25558SOL     OW77251   4.784   4.694   7.327 -0.2945 -0.1473  0.2936
25558SOL    HW177252   4.864   4.669   7.281  0.1291 -0.2873  1.0760
25558SOL    HW277253   4.816   4.734   7.408 -0.9961  1.1510 -0.0453
25559SOL     OW77254   1.523   4.804   2.613  0.7445 -0.1792 -0.1891
25559SOL    HW177255   1.617   4.816   2.604  0.9159 -1.6995 -0.6574
25559SOL    HW277256   1.509   4.787   2.706  1.2471 -2.1327 -0.4211
25560SOL     OW77257   0.212   0.977   3.002  0.0045  0.3464  0.1777
25560SOL    HW177258   0.127   1.013   2.977 -0.3385  0.6899  1.7472
25560SOL    HW277259   0.265   0.984   2.923 -1.7015 -0.8024 -1.1405
25561SOL     OW77260   5.014   1.809   9.831  0.2541  0.1509  1.0862
25561SOL    HW177261   4.941   1.833   9.774  1.3268  0.0468 -0.3805
25561SOL    HW277262   4.981   1.734   9.881 -0.1512 -0.9162 -0.6843
25562SOL     OW77263   9.345   5.057   6.027 -0.3035  0.3818 -0.1568
25562SOL    HW177264   9.435   5.089   6.029 -0.4307  0.7290  0.2617
25562SOL    HW277265   9.352   4.965   6.002  0.4761 -0.5852  3.0891
25563SOL     OW77266   2.699   5.725   9.229 -0.2815 -0.0809 -0.2968
25563SOL    HW177267   2.648   5.793   9.186 -3.0750 -0.5885  1.9207
25563SOL    HW277268   2.716   5.760   9.317  0.7160 -1.1344 -0.0396
25564SOL     OW77269   5.243   2.591   7.592  0.2108  0.1532  0.1233
25564SOL    HW177270   5.275   2.681   7.579 -0.2626  0.2460 -0.4392
25564SOL    HW277271   5.266   2.546   7.511  4.3868 -1.4845  1.9045
25565SOL     OW77272   0.424   7.552   5.908  0.0449 -0.6434  0.2917
25565SOL    HW177273   0.352   7.497   5.878  1.1418 -0.6746 -2.5931
25565SOL    HW277274   0.503   7.502   5.886  1.1069  2.0255 -2.6788
25566SOL     OW77275   5.810   0.921   1.435 -0.7945 -0.4687 -0.2875
25566SOL    HW177276   5.824   0.904   1.341 -1.3219 -0.6442 -0.3400
25566SOL    HW277277   5.716   0.909   1.447 -0.5674 -1.6367  0.4968
25567SOL     OW77278   2.040   5.940   3.135  0.0291  0.2661  0.5122
25567SOL    HW177279   1.980   5.875   3.099  0.0593  0.7502 -0.4397
25567SOL    HW277280   2.040   6.011   3.071 -1.1023  1.8748  2.2012
25568SOL     OW77281   8.725   1.416   5.274  0.1416  0.1364  0.0971
25568SOL    HW177282   8.775   1.337   5.255 -1.2537 -0.7559 -0.0354
25568SOL    HW277283   8.706   1.453   5.188 -0.4955 -0.2324  0.0732
25569SOL     OW77284   9.527   2.362   2.198 -0.1998 -0.1089  0.0359
25569SOL    HW177285   9.614   2.393   2.223 -0.0304 -0.3217 -0.2810
25569SOL    HW277286   9.526   2.270   2.224  0.0655 -0.4004 -0.9440
25570SOL     OW77287   8.791   2.729   8.179  0.0100  0.7519 -0.0507
25570SOL    HW177288   8.726   2.795   8.201  0.2643  0.1734  2.7974
25570SOL    HW277289   8.875   2.772   8.193  0.2108  0.5640 -0.6473
25571SOL     OW77290   8.254   3.904   3.828 -0.2237  0.6710  0.6673
25571SOL    HW177291   8.221   3.834   3.885 -0.3829  0.8483  0.7940
25571SOL    HW277292   8.185   3.917   3.763  0.2141  0.0506  0.0595
25572SOL     OW77293   5.848   0.547   5.297  0.5722 -0.4467 -0.0829
25572SOL    HW177294   5.835   0.463   5.253 -0.3150 -0.6838  0.6137
25572SOL    HW277295   5.941   0.547   5.320  0.5227 -1.3562  0.1564
25573SOL     OW77296   7.546   3.598   5.431  0.5865  1.1087 -0.1703
25573SOL    HW177297   7.497   3.630   5.355 -1.0582 -0.4794  0.1585
25573SOL    HW277298   7.638   3.613   5.408  0.0525  2.1556 -1.7648
25574SOL     OW77299   3.084   6.759   7.538 -0.3590 -0.0709 -0.2328
25574SOL    HW177300   3.114   6.823   7.602  0.6021 -0.6196 -0.1131
25574SOL    HW277301   2.998   6.791   7.509 -0.7561  0.2499  1.2285
25575SOL     OW77302   9.758   4.778   4.858  0.2639 -0.6365  0.6230
25575SOL    HW177303   9.683   4.809   4.908  0.5736  0.2579  0.5533
25575SOL    HW277304   9.722   4.714   4.797 -0.4807 -0.0634  0.4394
25576SOL     OW77305   0.609   7.992   1.788  0.3933  0.1043  0.5714
25576SOL    HW177306   0.528   7.995   1.737  0.9773 -0.9248 -0.4891
25576SOL    HW277307   0.598   7.916   1.845  0.9343 -0.5917 -0.2156
25577SOL     OW77308   8.586   5.929   7.352  0.0295 -0.5082  0.2722
25577SOL    HW177309   8.556   5.846   7.314 -1.8076 -0.0638  0.6350
25577SOL    HW277310   8.505   5.978   7.368  1.0868  1.4780 -0.1891
25578SOL     OW77311   5.410   0.428   4.385  0.2767  0.4396 -0.2660
25578SOL    HW177312   5.477   0.422   4.453  1.1333 -0.9800 -1.1979
25578SOL    HW277313   5.334   0.466   4.430  0.6786 -0.8662  1.6099
25579SOL     OW77314   4.608   2.970   4.177 -0.4268 -0.0296 -0.1703
25579SOL    HW177315   4.579   3.059   4.197 -0.1301  0.0703 -0.1812
25579SOL    HW277316   4.699   2.967   4.206 -0.9311 -0.8686  1.4763
25580SOL     OW77317   7.891   2.843   7.937 -0.3273 -0.1415  0.3679
25580SOL    HW177318   7.978   2.819   7.905 -0.3849  1.1572 -0.8805
25580SOL    HW277319   7.907   2.908   8.005 -0.2953 -0.8815  1.0801
25581SOL     OW77320   3.482   3.672   7.327  0.6034  0.3204 -0.6333
25581SOL    HW177321   3.408   3.724   7.296 -0.9088 -2.1894 -1.4729
25581SOL    HW277322   3.559   3.724   7.301 -0.7306  3.6923  1.4953
25582SOL     OW77323   0.957   1.609   1.936  0.0518 -0.2539  0.1777
25582SOL    HW177324   1.027   1.544   1.931 -1.0554 -1.4639 -0.1346
25582SOL    HW277325   0.902   1.591   1.860 -0.4507  0.8706  0.2502
25583SOL     OW77326   1.351   0.721   9.910  0.2137 -0.6202 -0.0799
25583SOL    HW177327   1.363   0.814   9.931  1.8890 -0.8969  0.3292
25583SOL    HW277328   1.256   0.710   9.901  0.0273  1.2842 -0.8833
25584SOL     OW77329   6.172   0.065   9.325 -0.3673  0.0704 -0.1905
25584SOL    HW177330   6.157   0.143   9.378  1.6868  0.9304 -0.7671
25584SOL    HW277331   6.085   0.033   9.304 -1.3213  2.7577 -0.7272
25585SOL     OW77332   8.399   6.585   9.860  0.3601  0.0975 -0.1786
25585SOL    HW177333   8.337   6.516   9.885  0.9055  0.2872  1.8847
25585SOL    HW277334   8.349   6.666   9.869  0.6565  0.1933  0.7555
25586SOL     OW77335   6.094   2.402   7.035 -0.6477  0.2015  0.4853
25586SOL    HW177336   6.056   2.314   7.040 -1.0301  0.3281 -0.1577
25586SOL    HW277337   6.187   2.386   7.021 -0.5549 -0.1038  1.3651
25587SOL     OW77338   1.610   3.862   2.540 -0.1327 -0.0338 -0.2869
25587SOL    HW177339   1.540   3.830   2.597  0.0128  0.8486  0.4201
25587SOL    HW277340   1.610   3.957   2.554  0.6273  0.0719 -0.9435
25588SOL     OW77341   8.446   9.530   4.082 -0.3651  0.4089 -0.1144
25588SOL    HW177342   8.518   9.585   4.115  0.8249 -1.7706  1.2280
25588SOL    HW277343   8.489   9.465   4.027 -1.4594 -0.2490 -0.2221
25589SOL     OW77344   0.745   1.775   8.816 -0.0026  0.3683  0.2560
25589SOL    HW177345   0.696   1.760   8.896 -2.3469  1.3109 -0.9162
25589SOL    HW277346   0.797   1.853   8.833  0.9194 -0.4574  1.4099
25590SOL     OW77347   1.530   0.149   3.128 -0.1480 -0.7462 -0.3398
25590SOL    HW177348   1.444   0.106   3.125 -0.0431 -0.9500 -0.3973
25590SOL    HW277349   1.514   0.230   3.176 -0.7799  0.1541 -1.9800
25591SOL     OW77350   7.772   9.437   6.301  0.0257  0.0254 -0.2842
25591SOL    HW177351   7.774   9.354   6.253  0.0481 -1.0242  1.4407
25591SOL    HW277352   7.689   9.478   6.276  0.2918 -0.2004 -1.6169
25592SOL     OW77353   0.539   8.786   5.594 -0.0663 -0.3322 -0.1788
25592SOL    HW177354   0.510   8.853   5.533 -2.0616 -0.9697  0.0092
25592SOL    HW277355   0.609   8.828   5.645  0.3648  0.7880 -1.6495
25593SOL     OW77356   1.604   4.311   0.799 -0.1799  0.0031  0.0121
25593SOL    HW177357   1.613   4.376   0.729  3.2233 -2.0743 -1.7621
25593SOL    HW277358   1.571   4.233   0.754  0.4685 -0.8967  1.0764
25594SOL     OW77359   9.174   2.240   8.206 -0.3170  0.2579  0.3349
25594SOL    HW177360   9.100   2.300   8.200 -0.9794 -0.5813  0.0480
25594SOL    HW277361   9.210   2.256   8.294  0.2059  1.8570 -0.1415
25595SOL     OW77362   2.505   9.203   5.300  0.0298  0.1936 -0.5075
25595SOL    HW177363   2.429   9.182   5.246  0.6497 -0.3984 -1.1714
25595SOL    HW277364   2.499   9.297   5.314  0.9100  0.7697 -3.3209
25596SOL     OW77365   0.471   7.341   8.804  0.4036 -0.4208 -0.7798
25596SOL    HW177366   0.514   7.362   8.720 -0.4980  0.7170 -0.9822
25596SOL    HW277367   0.515   7.398   8.867 -0.9540  0.9721 -1.0405
25597SOL     OW77368   4.451  -0.030   9.779  0.1973 -0.6004 -0.0279
25597SOL    HW177369   4.379   0.020   9.741  1.3525 -0.2646 -1.9100
25597SOL    HW277370   4.528   0.025   9.769  1.0172 -1.6136  0.4297
25598SOL     OW77371   9.684   6.213   0.103 -0.1115  0.1113 -0.1169
25598SOL    HW177372   9.590   6.217   0.118 -0.2015  0.4880 -0.7119
25598SOL    HW277373   9.696   6.253   0.016  0.6763  0.7903  0.2830
25599SOL     OW77374   4.923   7.516   9.971  0.1444 -0.0117 -0.3521
25599SOL    HW177375   4.924   7.422   9.953 -0.3535 -0.4950  1.8461
25599SOL    HW277376   4.830   7.539   9.974  0.2393  1.0724 -2.9807
25600SOL     OW77377   4.638   6.826   0.238 -0.2010 -0.1189  0.1739
25600SOL    HW177378   4.669   6.737   0.254  1.2260  0.0737 -1.2796
25600SOL    HW277379   4.688   6.880   0.301 -0.3656 -0.2334  0.4034
25601SOL     OW77380   9.895   6.024   9.987 -0.2073  0.3149 -0.2528
25601SOL    HW177381   9.897   6.035   9.892  0.9860  0.2536 -0.2550
25601SOL    HW277382   9.819   6.074  10.016 -1.1090 -0.3880 -1.3198
25602SOL     OW77383   6.604   9.641   5.456 -0.6959  0.1112 -0.3870
25602SOL    HW177384   6.657   9.605   5.527 -0.0844  0.1709 -0.8009
25602SOL    HW277385   6.567   9.722   5.492 -0.3349  0.1782 -0.1576
25603SOL     OW77386   2.594   8.903   9.318 -0.1764 -0.4057 -0.0525
25603SOL    HW177387   2.624   8.881   9.406 -0.6843 -0.4586  0.1102
25603SOL    HW277388   2.522   8.965   9.332  2.2110  2.7531 -0.4946
25604SOL     OW77389   7.804   4.613   8.624 -0.0918 -0.0045  0.3425
25604SOL    HW177390   7.883   4.633   8.573 -0.8704  1.6187 -0.3076
25604SOL    HW277391   7.802   4.681   8.691 -0.0812 -1.0168  1.3885
25605SOL     OW77392   9.332   4.309   8.040  0.0561 -0.3307  0.1607
25605SOL    HW177393   9.330   4.319   7.945  1.0598 -2.0969 -0.0830
25605SOL    HW277394   9.390   4.378   8.070 -1.6121  1.3619 -0.2868
25606SOL     OW77395   6.975   2.619   6.033 -0.2186  0.0941 -0.0989
25606SOL    HW177396   6.990   2.679   6.106 -1.0085 -1.2456  1.2107
25606SOL    HW277397   6.880   2.616   6.024 -0.1254  0.9385 -1.8364
25607SOL     OW77398   8.206   0.999   3.555  0.2925 -0.0090  0.6495
25607SOL    HW177399   8.235   0.919   3.599 -0.7029 -0.4581  0.5135
25607SOL    HW277400   8.151   0.968   3.483  0.6177  0.7772  0.0490
25608SOL     OW77401   5.092   3.158   0.374  0.3913  0.6798 -0.0282
25608SOL    HW177402   5.053   3.210   0.445 -1.8485 -0.8189 -0.0570
25608SOL    HW277403   5.084   3.067   0.403  0.6533  0.1195 -1.6022
25609SOL     OW77404   3.022   0.201   6.087 -0.4170 -0.4594 -0.4800
25609SOL    HW177405   3.025   0.297   6.096  0.7713 -0.5837  0.6715
25609SOL    HW277406   2.939   0.176   6.129  0.5036 -0.1376  1.6352
25610SOL     OW77407   7.280   1.947   4.749 -0.1179  0.5729  0.8297
25610SOL    HW177408   7.341   1.879   4.778  0.4367  1.2928  1.4019
25610SOL    HW277409   7.331   2.028   4.754 -0.8316  1.0569  0.3692
25611SOL     OW77410   8.780   7.082   7.282 -0.1684 -0.1971  0.7950
25611SOL    HW177411   8.712   7.144   7.256 -1.5303 -1.5593  0.9485
25611SOL    HW277412   8.833   7.129   7.347 -0.7652  1.0004  0.4349
25612SOL     OW77413   0.361   2.469   4.220  0.0536  0.0370 -0.7477
25612SOL    HW177414   0.355   2.510   4.133 -1.1778  1.3075 -0.1040
25612SOL    HW277415   0.271   2.467   4.252  0.3470 -1.4641  0.0584
25613SOL     OW77416   2.565   8.633   1.018  0.5524 -0.2759  0.1943
25613SOL    HW177417   2.558   8.646   1.113  1.4076  0.2733  0.1892
25613SOL    HW277418   2.557   8.538   1.007  0.0920 -0.3124  0.7837
25614SOL     OW77419   8.229   6.739   6.754 -0.4157 -0.5217 -0.0228
25614SOL    HW177420   8.211   6.741   6.660 -0.9842 -1.5149  0.0537
25614SOL    HW277421   8.320   6.768   6.762 -1.0412  1.7967 -0.6729
25615SOL     OW77422   0.980   8.327   7.461  0.8894  0.3329  0.3787
25615SOL    HW177423   1.015   8.264   7.398  1.0531  0.5285  0.2754
25615SOL    HW277424   0.940   8.395   7.407  1.3361  0.6771  0.4773
25616SOL     OW77425   5.489   6.902   8.540 -0.3750  0.0490 -0.6949
25616SOL    HW177426   5.552   6.839   8.575  0.3963  0.5805 -1.1015
25616SOL    HW277427   5.406   6.854   8.538 -0.1996 -0.3485  0.7662
25617SOL     OW77428   1.893   4.425   3.443  0.1028  0.0128  0.0438
25617SOL    HW177429   1.890   4.520   3.455 -0.4659  0.1076 -0.8205
25617SOL    HW277430   1.821   4.406   3.384 -0.7978 -1.1731  1.4804
25618SOL     OW77431   5.068   1.646   8.731 -0.1960 -0.5445  0.3782
25618SOL    HW177432   5.019   1.627   8.650 -0.6072  1.3753  0.1339
25618SOL    HW277433   5.046   1.737   8.751  3.2074  0.4010  0.3165
25619SOL     OW77434   4.635   1.645   3.581  0.1389 -0.5059 -0.2736
25619SOL    HW177435   4.539   1.642   3.579  0.1641 -1.1889 -1.5531
25619SOL    HW277436   4.661   1.623   3.492  1.4953 -0.1729  0.0218
25620SOL     OW77437   0.167   9.515   3.656 -0.0405  0.3932  0.1702
25620SOL    HW177438   0.080   9.475   3.657  0.2179 -0.3700 -2.1388
25620SOL    HW277439   0.152   9.606   3.679 -1.3132  0.0519  0.7728
25621SOL     OW77440   2.724   4.706   8.127  0.0531 -0.5198  0.4854
25621SOL    HW177441   2.753   4.669   8.210  1.5531 -1.0818 -0.2470
25621SOL    HW277442   2.736   4.801   8.137  0.1931 -0.5798  0.9037
25622SOL     OW77443   3.593   0.306   5.369 -0.4974  0.2705  0.0773
25622SOL    HW177444   3.624   0.262   5.290 -0.5021  2.1262 -1.0185
25622SOL    HW277445   3.506   0.339   5.345 -1.4449 -0.9934  1.6123
25623SOL     OW77446   3.296   6.368   8.384  0.5005 -0.2482  0.6494
25623SOL    HW177447   3.260   6.376   8.295 -0.0652 -1.7378  0.7205
25623SOL    HW277448   3.385   6.336   8.370  1.2680  1.7720  0.5538
25624SOL     OW77449   7.201   1.903   0.393  0.6585  0.3531  0.6199
25624SOL    HW177450   7.202   1.847   0.471 -2.1124  0.6442  0.9877
25624SOL    HW277451   7.136   1.862   0.336  2.9607 -0.1225 -1.8462
25625SOL     OW77452   4.700   4.448   6.098 -0.2765  0.8496  0.7230
25625SOL    HW177453   4.684   4.396   6.176  1.6991 -1.4945 -0.2990
25625SOL    HW277454   4.734   4.531   6.131  0.1068  0.0790  2.3659
25626SOL     OW77455   3.753   2.929   0.493 -0.0682  0.0263  0.3261
25626SOL    HW177456   3.743   2.989   0.568 -0.2991 -0.4156  0.6537
25626SOL    HW277457   3.663   2.903   0.471  0.0739 -0.8573  0.7311
25627SOL     OW77458   0.489   7.973   7.151  0.0120  0.0677 -0.0441
25627SOL    HW177459   0.487   7.954   7.244  0.6621 -0.1644 -0.0740
25627SOL    HW277460   0.571   8.020   7.137 -0.3221  0.5624 -0.4165
25628SOL     OW77461   7.845   3.500   7.035  0.1372  0.4194  0.1678
25628SOL    HW177462   7.751   3.495   7.051  0.1846  2.2778  1.3732
25628SOL    HW277463   7.876   3.410   7.043 -1.4728 -0.1611  0.1637
25629SOL     OW77464   2.622   2.144   2.631 -0.5225  0.4263  0.6295
25629SOL    HW177465   2.684   2.072   2.621 -0.2768  0.3785  2.2976
25629SOL    HW277466   2.591   2.161   2.542  1.9353  0.5116 -0.3014
25630SOL     OW77467   9.412   3.668   1.945  0.2880  0.4848  0.8162
25630SOL    HW177468   9.417   3.583   1.990  0.3397  0.0434 -0.0065
25630SOL    HW277469   9.502   3.697   1.938  0.7329 -1.1311 -2.0919
25631SOL     OW77470   5.094   0.447   3.053 -0.3569 -0.4074  0.1458
25631SOL    HW177471   5.162   0.510   3.030  2.0507 -2.1114  2.0324
25631SOL    HW277472   5.119   0.368   3.004 -2.3417 -0.4616 -0.8663
25632SOL     OW77473   3.511   4.780   2.413 -0.0954  0.3484 -0.0653
25632SOL    HW177474   3.435   4.722   2.413  0.2784 -0.1712  0.9629
25632SOL    HW277475   3.522   4.805   2.322 -2.5605  1.8710 -0.0305
25633SOL     OW77476   6.704   7.335   2.666 -0.1072 -0.1332 -1.4128
25633SOL    HW177477   6.797   7.318   2.680 -0.6556 -1.9462  0.5038
25633SOL    HW277478   6.671   7.254   2.627 -1.2001 -0.2507 -0.2931
25634SOL     OW77479   4.914   7.917   9.383 -0.6872  0.1235 -0.0549
25634SOL    HW177480   4.941   7.939   9.294 -0.6390  1.1411  0.1938
25634SOL    HW277481   4.949   7.830   9.398 -2.1888 -0.8152 -1.6400
25635SOL     OW77482   4.598   8.804   1.944 -0.1730 -0.2247  0.4114
25635SOL    HW177483   4.610   8.877   1.884  0.0598 -1.4496 -1.0756
25635SOL    HW277484   4.582   8.846   2.029 -2.6784  1.6195 -0.8350
25636SOL     OW77485   7.928   2.724   9.676  0.7640 -0.0576  0.1027
25636SOL    HW177486   7.994   2.655   9.669  0.5730 -0.1012 -1.4328
25636SOL    HW277487   7.859   2.699   9.615  0.1660  0.9277  0.3430
25637SOL     OW77488   2.898   2.203   7.076  0.6963  0.6421  0.5896
25637SOL    HW177489   2.946   2.239   7.002  1.6116  1.9406  1.7620
25637SOL    HW277490   2.925   2.111   7.080 -0.7591  0.0204 -1.7295
25638SOL     OW77491   5.887   7.161   4.662 -0.7384 -0.1897 -0.2915
25638SOL    HW177492   5.926   7.160   4.749 -0.1355 -0.4675 -0.5641
25638SOL    HW277493   5.846   7.248   4.656  0.6662  0.4870 -0.3653
25639SOL     OW77494   8.003   3.313   9.213 -0.5786  0.1543 -0.3563
25639SOL    HW177495   7.993   3.299   9.308 -0.8213  2.8026  0.0783
25639SOL    HW277496   8.097   3.318   9.199 -0.5680  1.4780  0.0748
25640SOL     OW77497   6.917   7.310   1.935 -0.1021  0.0587  0.1653
25640SOL    HW177498   7.009   7.308   1.907  0.2977 -0.9216  1.4628
25640SOL    HW277499   6.868   7.283   1.857  0.8601 -1.1681 -0.0534
25641SOL     OW77500   1.270   1.331   1.554 -0.0216  0.0156 -0.0040
25641SOL    HW177501   1.226   1.402   1.507 -1.2745 -0.7057  0.0152
25641SOL    HW277502   1.309   1.373   1.630  1.7399  1.1438 -1.4576
25642SOL     OW77503   3.591   3.961   3.362 -0.0688  0.3551 -0.2451
25642SOL    HW177504   3.560   3.872   3.348  0.9966 -0.1183  0.2496
25642SOL    HW277505   3.512   4.014   3.366 -0.8275 -0.7851  0.9703
25643SOL     OW77506   6.338   8.968   5.073 -0.4100 -0.3491  0.3794
25643SOL    HW177507   6.258   9.016   5.095 -0.2588  1.2463 -2.1193
25643SOL    HW277508   6.312   8.876   5.074 -1.9492  0.0630  0.8234
25644SOL     OW77509   6.525   2.456   0.653  0.6790 -0.4151  0.5234
25644SOL    HW177510   6.492   2.546   0.646  0.9782 -0.3519 -0.1830
25644SOL    HW277511   6.505   2.430   0.743  2.4879  1.1082  1.4461
25645SOL     OW77512   7.046   7.565   6.767  0.1294  0.2598  0.0066
25645SOL    HW177513   7.094   7.564   6.849  0.5789 -1.1987 -0.2364
25645SOL    HW277514   7.037   7.657   6.744  0.3772  0.6579  1.4606
25646SOL     OW77515   6.404   1.709   6.173  0.0527  0.1186 -0.1383
25646SOL    HW177516   6.500   1.711   6.170  0.0682 -0.8799 -0.8025
25646SOL    HW277517   6.382   1.743   6.260  1.0586 -0.8003  0.4996
25647SOL     OW77518   6.918   5.316   4.041  0.1212  0.2702  0.0507
25647SOL    HW177519   7.006   5.322   4.004  0.4314  0.7477  0.8442
25647SOL    HW277520   6.866   5.276   3.972  1.2625 -1.3761  0.0946
25648SOL     OW77521   7.257   2.556   2.968  0.7265  0.6983  0.0708
25648SOL    HW177522   7.224   2.614   2.899  0.7240  2.2437  1.3248
25648SOL    HW277523   7.350   2.547   2.949  0.3821 -0.5244 -1.2419
25649SOL     OW77524   8.985   3.471   5.541 -0.1807  0.1922 -0.0152
25649SOL    HW177525   9.006   3.431   5.457 -0.0183 -0.7950  0.4803
25649SOL    HW277526   9.068   3.476   5.588 -0.6363 -1.9211  1.1791
25650SOL     OW77527   4.515   3.670   5.820  0.5564 -0.6462  0.3225
25650SOL    HW177528   4.553   3.662   5.733  0.1281 -0.0762  0.0737
25650SOL    HW277529   4.519   3.764   5.839 -0.6645 -0.5830  0.3114
25651SOL     OW77530   0.144   2.264   5.950  0.2121  0.1636 -0.3757
25651SOL    HW177531   0.075   2.206   5.917 -0.9484  1.0945  0.3029
25651SOL    HW277532   0.104   2.308   6.025  1.0190  1.8750 -0.9014
25652SOL     OW77533   1.588   9.403   8.490 -0.0048 -0.5005  0.0491
25652SOL    HW177534   1.545   9.488   8.491 -3.8954 -2.2220 -1.1710
25652SOL    HW277535   1.661   9.412   8.552 -1.8167  2.8971  1.9694
25653SOL     OW77536   3.734   8.494   9.879 -0.0663 -0.1439  0.1368
25653SOL    HW177537   3.822   8.528   9.865 -0.3538  0.0781 -1.2467
25653SOL    HW277538   3.694   8.558   9.938  0.2277  0.5770 -0.4176
25654SOL     OW77539   5.134   6.406   6.885  0.0002 -0.1589 -0.1091
25654SOL    HW177540   5.057   6.450   6.849 -0.8272 -1.0404  0.5694
25654SOL    HW277541   5.115   6.396   6.978 -0.3772 -2.9914 -0.4144
25655SOL     OW77542   2.123   0.318   7.938 -0.8326 -0.4952  0.2292
25655SOL    HW177543   2.122   0.325   8.033 -1.9519  0.1916  0.1806
25655SOL    HW277544   2.214   0.296   7.916 -0.6032 -0.8162  1.4562
25656SOL     OW77545   7.545   1.295   6.965 -0.0058 -0.3438  0.0807
25656SOL    HW177546   7.565   1.384   6.937  2.3769 -0.7900  0.1586
25656SOL    HW277547   7.536   1.302   7.060 -1.1572  0.0131 -0.0432
25657SOL     OW77548   5.507   8.399   1.584 -1.2129 -0.2317  0.4467
25657SOL    HW177549   5.578   8.433   1.637  0.3610 -0.5582 -1.3384
25657SOL    HW277550   5.464   8.477   1.549  2.3243  0.2660 -3.5616
25658SOL     OW77551   4.847   2.294   0.152  0.2189 -0.2493  0.1410
25658SOL    HW177552   4.882   2.241   0.080  0.7441  0.6207 -0.2657
25658SOL    HW277553   4.769   2.336   0.115 -1.4267 -2.2906  1.0861
25659SOL     OW77554   6.019   8.278   2.295 -0.0204  0.2680 -0.3199
25659SOL    HW177555   5.969   8.231   2.361  0.8176 -0.9297 -0.5112
25659SOL    HW277556   5.954   8.330   2.248 -1.3538 -2.1655 -1.3691
25660SOL     OW77557   2.254   8.017   8.486 -0.0118  0.2255 -0.6010
25660SOL    HW177558   2.257   7.937   8.538 -1.4409  1.2606  1.1670
25660SOL    HW277559   2.339   8.058   8.499  0.1072 -0.1625 -0.1446
25661SOL     OW77560   2.235   4.031   3.434 -0.0294  0.0181 -0.5336
25661SOL    HW177561   2.187   4.079   3.501 -0.0344  0.4588 -0.8487
25661SOL    HW277562   2.167   3.997   3.375 -0.1364 -1.6377  0.4880
25662SOL     OW77563   7.632   0.842   9.304 -0.1778 -0.0607  0.2108
25662SOL    HW177564   7.559   0.836   9.243  1.0348  1.4092 -1.5028
25662SOL    HW277565   7.665   0.752   9.312  0.4639 -0.1405 -2.4443
25663SOL     OW77566   0.857   2.490   2.374  0.9700 -0.1640 -0.4499
25663SOL    HW177567   0.910   2.469   2.451 -1.2332  1.1227  1.5568
25663SOL    HW277568   0.895   2.571   2.340  3.5039 -1.9806 -2.3985
25664SOL     OW77569   9.729   4.344   0.623 -0.3998 -0.2555 -0.0223
25664SOL    HW177570   9.671   4.277   0.659  1.0870 -2.7058 -1.8647
25664SOL    HW277571   9.693   4.362   0.536  0.0441  0.2746 -0.1001
25665SOL     OW77572   1.998   0.950   6.343  0.3986  0.5081 -0.0140
25665SOL    HW177573   2.066   1.003   6.302  0.6863  1.9135  2.1009
25665SOL    HW277574   1.991   0.985   6.432 -1.0614 -1.5180  0.7445
25666SOL     OW77575   7.724   9.225   7.886  0.4428  0.1019 -0.1672
25666SOL    HW177576   7.652   9.267   7.933 -1.3261 -2.7811 -0.0381
25666SOL    HW277577   7.736   9.280   7.808 -0.1990  1.9956  0.9880
25667SOL     OW77578   5.324   6.395   5.635  0.0523 -0.0179  0.4118
25667SOL    HW177579   5.264   6.386   5.709 -1.3137  1.1212 -0.5056
25667SOL    HW277580   5.280   6.350   5.563  0.1959  0.9787 -0.3157
25668SOL     OW77581   7.627   2.648   7.315 -0.0633  0.0855  0.2177
25668SOL    HW177582   7.710   2.601   7.326 -0.2626  0.0064  1.6559
25668SOL    HW277583   7.651   2.727   7.266  0.7027 -0.3435 -0.1224
25669SOL     OW77584   6.910   5.244   6.948  0.1685  0.4442  0.1214
25669SOL    HW177585   6.980   5.197   6.904  1.4577  0.4594  2.0258
25669SOL    HW277586   6.845   5.177   6.969  0.2431  0.1887 -0.4327
25670SOL     OW77587   8.893   6.757   8.330  0.6555 -0.4906 -0.2561
25670SOL    HW177588   8.923   6.840   8.292 -0.5135 -0.5350 -1.3333
25670SOL    HW277589   8.805   6.744   8.293  0.1268 -1.3592  1.2293
25671SOL     OW77590   1.672   3.275   7.388  0.2626 -0.2363 -0.2765
25671SOL    HW177591   1.691   3.231   7.471  1.2656  0.5363 -0.0936
25671SOL    HW277592   1.668   3.203   7.324  0.1089 -0.7690  0.3164
25672SOL     OW77593   5.344   3.456   4.368  0.4324 -0.7504  0.3621
25672SOL    HW177594   5.316   3.367   4.389 -1.8791  0.1287  1.2706
25672SOL    HW277595   5.428   3.444   4.322  0.5280 -3.3277  1.0439
25673SOL     OW77596   1.230   1.835   3.190  0.3883  0.2645 -0.5251
25673SOL    HW177597   1.291   1.841   3.116  0.0628  1.6415 -0.7075
25673SOL    HW277598   1.280   1.866   3.265 -0.0040  1.1744 -0.6319
25674SOL     OW77599   0.140   7.704   8.547 -0.3927  0.2147 -0.2346
25674SOL    HW177600   0.231   7.674   8.547 -0.5268 -0.2231  0.5712
25674SOL    HW277601   0.090   7.629   8.580 -1.0092  0.5632 -0.3613
25675SOL     OW77602   7.520   5.028   2.347  0.1739 -0.3036  0.5198
25675SOL    HW177603   7.493   5.039   2.256 -0.4160  3.2371  1.0019
25675SOL    HW277604   7.599   4.974   2.342  0.7129  0.6077 -2.1676
25676SOL     OW77605   5.635   8.888   7.224  0.1336  0.1293 -1.0564
25676SOL    HW177606   5.645   8.931   7.309  1.4535 -0.6587 -0.7875
25676SOL    HW277607   5.599   8.956   7.166  0.7103  1.1219 -0.2676
25677SOL     OW77608   5.448   2.321   7.013  0.4832  0.1894 -0.3474
25677SOL    HW177609   5.397   2.397   7.040 -0.8797 -1.0014  0.6011
25677SOL    HW277610   5.475   2.340   6.923  1.4734  2.4126  0.3714
25678SOL     OW77611   7.009   9.800   7.708 -0.0394  0.5932  0.1047
25678SOL    HW177612   6.996   9.885   7.751  4.5341  1.2968  0.5289
25678SOL    HW277613   6.975   9.736   7.771  0.3346  1.9437  1.7485
25679SOL     OW77614   7.410   0.151   5.092  0.1282  0.5859  0.1585
25679SOL    HW177615   7.428   0.149   5.186  0.7026 -1.5733  0.0604
25679SOL    HW277616   7.383   0.062   5.071 -1.9501  1.4828 -1.4089
25680SOL     OW77617   7.577   7.101   0.803  0.0647  0.0706 -0.1205
25680SOL    HW177618   7.566   7.092   0.708 -0.8352 -1.8558  0.1028
25680SOL    HW277619   7.632   7.026   0.828 -1.2580 -0.5579  1.0785
25681SOL     OW77620   5.000   0.108   4.706  0.5389  0.1272  0.1613
25681SOL    HW177621   5.018   0.201   4.718  2.8926 -0.0319 -1.4456
25681SOL    HW277622   4.945   0.104   4.628  0.0122  0.1792  0.5246
25682SOL     OW77623   5.892   9.947   8.840  0.2707  0.1212 -0.4630
25682SOL    HW177624   5.873  10.035   8.807  0.9140 -0.3013 -2.0642
25682SOL    HW277625   5.830   9.891   8.793  0.0501 -0.3189  0.3452
25683SOL     OW77626   7.643   3.954   5.265 -0.1632  0.0958 -0.0408
25683SOL    HW177627   7.630   4.011   5.189  1.9620  2.5382  1.2962
25683SOL    HW277628   7.596   3.997   5.336  0.4140 -0.5081  0.7243
25684SOL     OW77629   4.202   2.440   2.996  0.0861  0.2835 -0.1801
25684SOL    HW177630   4.117   2.436   3.038  0.0326 -0.1294 -0.3226
25684SOL    HW277631   4.203   2.365   2.936  1.3826 -1.0259  1.3908
25685SOL     OW77632   5.200   2.825   6.989 -1.1263 -0.7854  0.0579
25685SOL    HW177633   5.267   2.859   7.048 -0.3168 -1.9362 -0.1686
25685SOL    HW277634   5.117   2.856   7.026 -0.5890 -0.8624  1.3548
25686SOL     OW77635   8.108   1.410   8.347  0.5579  0.2010  0.4719
25686SOL    HW177636   8.137   1.484   8.400 -1.4880 -0.1409  2.2112
25686SOL    HW277637   8.129   1.333   8.401  1.2565 -0.4063 -0.6240
25687SOL     OW77638   7.086   1.408   9.306  0.2562  0.0717 -0.1902
25687SOL    HW177639   7.112   1.316   9.300  1.0054  0.2410  0.3176
25687SOL    HW277640   7.019   1.410   9.374  0.3289 -0.0865 -0.1142
25688SOL     OW77641   6.537   0.796   0.502  0.0658 -0.3373  0.7345
25688SOL    HW177642   6.586   0.819   0.423 -0.6430  0.4797  0.5215
25688SOL    HW277643   6.603   0.796   0.572  0.8221 -1.7369  0.0466
25689SOL     OW77644   0.560   3.875   7.621  0.2192 -0.0971 -0.0587
25689SOL    HW177645   0.552   3.821   7.700 -1.5904 -0.2386 -0.3096
25689SOL    HW277646   0.503   3.834   7.557 -1.4913  2.2557 -0.1758
25690SOL     OW77647   7.407   3.934   7.489 -0.0741 -0.3612 -1.0368
25690SOL    HW177648   7.385   4.027   7.488  0.4963 -0.1924  0.0449
25690SOL    HW277649   7.397   3.905   7.399 -3.2743  0.0060 -0.9113
25691SOL     OW77650   5.866   5.763   4.048 -0.7327  0.1881  0.3917
25691SOL    HW177651   5.841   5.671   4.039  0.5610 -0.1182 -0.3471
25691SOL    HW277652   5.785   5.807   4.074 -1.5662 -1.0295 -0.0227
25692SOL     OW77653   4.683   7.646   2.222  0.0547 -0.0783 -0.2393
25692SOL    HW177654   4.596   7.686   2.225  0.0773 -0.0806  0.6319
25692SOL    HW277655   4.732   7.689   2.293  0.3056 -1.1259  0.2397
25693SOL     OW77656   9.540   5.949   8.346 -0.0913  0.0007 -0.0173
25693SOL    HW177657   9.625   5.992   8.346 -0.4904  0.8036  0.1171
25693SOL    HW277658   9.482   6.010   8.300 -0.6057 -0.5232 -0.0766
25694SOL     OW77659   3.939   1.937   9.276  0.4780 -0.6534  0.4194
25694SOL    HW177660   3.949   1.864   9.215  2.6746  0.1575 -0.2425
25694SOL    HW277661   3.947   2.016   9.223 -0.2341  0.1088  1.3803
25695SOL     OW77662   8.351   4.621   6.421  0.0046  0.1046  0.0217
25695SOL    HW177663   8.259   4.639   6.439  0.4281  1.8228  0.6550
25695SOL    HW277664   8.357   4.617   6.326 -0.5966  0.6603 -0.0436
25696SOL     OW77665   9.084   2.391   4.634  0.6158  0.3456  0.6875
25696SOL    HW177666   9.048   2.351   4.554  2.6860 -0.4583  0.1030
25696SOL    HW277667   9.039   2.346   4.705  0.6333 -0.8115 -0.0089
25697SOL     OW77668   6.608   1.245   1.754  0.6243 -0.7592  0.3702
25697SOL    HW177669   6.630   1.333   1.724  1.1339 -1.3904 -1.1899
25697SOL    HW277670   6.592   1.195   1.674 -0.2130 -1.9588  1.2388
25698SOL     OW77671   0.231   2.731   1.418  0.5489  0.2610 -0.0547
25698SOL    HW177672   0.144   2.691   1.429 -1.2961  3.9683  0.5845
25698SOL    HW277673   0.249   2.771   1.503  2.7016 -0.0120 -0.3426
25699SOL     OW77674   4.298   1.332   1.997  0.1108 -0.3496  0.1892
25699SOL    HW177675   4.310   1.313   1.904  1.9227 -0.6697  0.4554
25699SOL    HW277676   4.288   1.246   2.038  3.6629 -0.5874  0.7967
25700SOL     OW77677   5.718   3.505   0.040 -0.0748 -0.1469 -0.2615
25700SOL    HW177678   5.664   3.440  -0.004  1.4493 -1.0494 -0.8943
25700SOL    HW277679   5.685   3.506   0.130 -0.3222 -1.6084 -0.3016
25701SOL     OW77680   0.949   9.136   9.655  0.4969 -0.0067 -0.3194
25701SOL    HW177681   0.931   9.113   9.564 -1.9272  1.2512 -0.2285
25701SOL    HW277682   0.916   9.062   9.706 -1.1291  0.6746 -0.3435
25702SOL     OW77683   8.278   7.598   6.478  0.1385  0.0509  0.4846
25702SOL    HW177684   8.372   7.614   6.469 -0.1314  1.7779  0.3784
25702SOL    HW277685   8.239   7.686   6.483 -1.5970 -0.5689 -0.8664
25703SOL     OW77686   2.062   6.423   2.531 -0.2314 -0.4946 -0.6391
25703SOL    HW177687   2.000   6.393   2.599  0.6356 -2.0232 -0.4615
25703SOL    HW277688   2.144   6.435   2.578  0.8347 -3.2197 -1.5999
25704SOL     OW77689   8.657   4.664   0.538 -0.3720 -0.4785  0.2199
25704SOL    HW177690   8.568   4.654   0.502 -0.0793  0.9706 -1.0197
25704SOL    HW277691   8.711   4.608   0.483 -0.3520 -0.4613  0.2226
25705SOL     OW77692   1.563   1.746   2.419  0.2234 -0.2509  0.4271
25705SOL    HW177693   1.572   1.841   2.419 -0.6171 -0.1444 -0.8022
25705SOL    HW277694   1.650   1.714   2.392  0.5440  0.1568  0.9625
25706SOL     OW77695   9.505   5.557   1.962 -0.1520  0.7819  0.0242
25706SOL    HW177696   9.524   5.568   2.055  2.5517  1.4044 -0.5286
25706SOL    HW277697   9.552   5.478   1.937 -0.7997  0.6576 -0.8527
25707SOL     OW77698   6.332   4.977   0.818  0.0830  0.0048 -0.0896
25707SOL    HW177699   6.265   5.031   0.776  1.6016  2.0024 -0.0729
25707SOL    HW277700   6.414   5.003   0.776  0.9061 -2.3698 -0.1145
25708SOL     OW77701   0.835   7.295   0.312 -0.0596  0.2152  0.0318
25708SOL    HW177702   0.789   7.293   0.397 -0.8955  2.0003 -0.3391
25708SOL    HW277703   0.882   7.212   0.309  0.9571  0.5871  2.7707
25709SOL     OW77704   8.107   6.722   7.302 -0.4333 -0.7043  1.0453
25709SOL    HW177705   8.132   6.800   7.351  0.0025 -0.0823 -0.1428
25709SOL    HW277706   8.178   6.709   7.239 -0.3601 -2.2303  1.4077
25710SOL     OW77707   6.874   4.947   4.922 -0.1413 -0.0509 -0.0210
25710SOL    HW177708   6.961   4.941   4.882  0.1685 -0.5348  0.6983
25710SOL    HW277709   6.874   4.877   4.988  0.7088  2.8365  3.3532
25711SOL     OW77710   0.971   1.405   0.187  0.2238  0.0251 -0.0169
25711SOL    HW177711   0.895   1.445   0.143 -0.9292 -1.3318  0.6623
25711SOL    HW277712   0.940   1.389   0.276  0.8160 -1.8568 -0.1183
25712SOL     OW77713   9.640   5.847   0.230  0.1850  0.6036  0.0065
25712SOL    HW177714   9.589   5.922   0.260  0.3205  0.2711  1.1127
25712SOL    HW277715   9.644   5.789   0.306  0.0311 -0.5534 -0.8392
25713SOL     OW77716   0.234   0.478   5.504  0.3135 -0.3407  0.1440
25713SOL    HW177717   0.259   0.565   5.536 -0.5218  0.1846 -0.5894
25713SOL    HW277718   0.318   0.433   5.489  0.7431 -0.0480  1.4907
25714SOL     OW77719   7.033   2.097   7.377  0.3730 -0.0516 -0.7774
25714SOL    HW177720   6.970   2.153   7.332 -0.2764  1.7175  2.0182
25714SOL    HW277721   7.117   2.142   7.366  0.9486 -1.5937 -3.2092
25715SOL     OW77722   3.815   9.923   8.905  0.0473  0.4291  0.0851
25715SOL    HW177723   3.790   9.860   8.838 -1.8816  0.8655  0.3345
25715SOL    HW277724   3.807   9.874   8.987  2.0197  0.0103  0.0735
25716SOL     OW77725   7.242   9.923   5.903 -0.1779  0.3038 -0.0106
25716SOL    HW177726   7.234   9.993   5.969  2.3383  0.1782  0.5203
25716SOL    HW277727   7.272   9.847   5.953  0.5263 -0.1559 -1.1011
25717SOL     OW77728   3.210   6.835   4.116 -0.3673  0.5872  0.2163
25717SOL    HW177729   3.193   6.799   4.203 -1.9720 -2.2298 -1.1231
25717SOL    HW277730   3.165   6.920   4.116 -0.2647  0.6834  2.1298
25718SOL     OW77731   5.216   3.242   7.051 -0.3127  0.0909 -0.4516
25718SOL    HW177732   5.309   3.251   7.032 -0.3420 -0.8035 -1.0697
25718SOL    HW277733   5.188   3.331   7.072  0.7064  0.3490 -0.1015
25719SOL     OW77734   0.502   9.620   0.780  0.0291  0.4339  0.4524
25719SOL    HW177735   0.579   9.639   0.725  0.6571 -1.8162  0.4402
25719SOL    HW277736   0.502   9.525   0.788 -2.4100  0.4225  1.0190
25720SOL     OW77737   9.824   3.846   5.299 -0.0937 -0.0958 -0.3096
25720SOL    HW177738   9.888   3.815   5.362  0.1056 -0.6374 -0.7666
25720SOL    HW277739   9.799   3.933   5.330  0.2660 -0.2080  0.3079
25721SOL     OW77740   4.104   6.833   3.994  0.0642  0.1242  0.1154
25721SOL    HW177741   4.173   6.820   4.059  0.5604 -1.1298 -0.6449
25721SOL    HW277742   4.035   6.879   4.042  1.6166  1.8953  0.7470
25722SOL     OW77743   2.075   4.671   7.813  0.1376  0.1593  0.6595
25722SOL    HW177744   2.001   4.732   7.812  0.1990  0.2467 -0.7665
25722SOL    HW277745   2.046   4.598   7.868 -0.4628  0.8301  1.2516
25723SOL     OW77746   7.713   8.073   7.137  0.3936 -0.3207  0.4681
25723SOL    HW177747   7.727   8.032   7.051 -4.3522 -0.5096 -0.4691
25723SOL    HW277748   7.711   8.167   7.117 -0.2964 -0.3445  0.3838
25724SOL     OW77749   1.699   0.893   7.403 -0.4268 -0.0136 -0.1030
25724SOL    HW177750   1.661   0.911   7.489 -2.2962 -0.0550 -0.8790
25724SOL    HW277751   1.678   0.971   7.351  1.4136  0.3835 -0.3339
25725SOL     OW77752   8.347   9.057   2.935 -0.0583 -0.4234  0.1093
25725SOL    HW177753   8.326   8.976   2.887  1.3473 -1.1135  0.6175
25725SOL    HW277754   8.355   9.124   2.866 -1.4101 -0.6551 -0.3012
25726SOL     OW77755   2.893   6.759   8.272 -0.1028  0.4660  0.1033
25726SOL    HW177756   2.857   6.739   8.359  0.7201 -0.7855  0.1863
25726SOL    HW277757   2.860   6.688   8.216 -0.7140  1.3214 -0.6438
25727SOL     OW77758   3.967   8.269   8.925 -0.0287 -0.3747 -0.0285
25727SOL    HW177759   3.889   8.227   8.961 -1.9034  1.8957 -1.1851
25727SOL    HW277760   3.988   8.338   8.987 -0.1461  0.2795 -0.7070
25728SOL     OW77761   2.032   5.651   0.451 -0.1363  0.2562  0.5142
25728SOL    HW177762   1.984   5.630   0.371 -0.2514 -1.7009  1.0459
25728SOL    HW277763   1.965   5.680   0.512 -0.1903  0.7316  0.2310
25729SOL     OW77764   9.949   4.704   4.091  0.0348 -0.0597  0.1350
25729SOL    HW177765   9.969   4.780   4.037  0.2250  0.1133  0.4436
25729SOL    HW277766   9.966   4.733   4.181  1.5547 -0.8956  0.1565
25730SOL     OW77767   7.606   4.882   7.182  0.3193  0.0600 -0.3928
25730SOL    HW177768   7.518   4.916   7.200  0.0610 -0.8522  0.1381
25730SOL    HW277769   7.592   4.791   7.156  1.1267 -0.2222  0.1141
25731SOL     OW77770   3.205   4.518   0.100  0.4261 -0.3724  0.1955
25731SOL    HW177771   3.268   4.466   0.149  2.6323  0.2417 -1.8013
25731SOL    HW277772   3.135   4.457   0.078  1.3020 -1.6238  0.7686
25732SOL     OW77773   2.034   3.490   9.265 -0.0482  0.2714  0.5371
25732SOL    HW177774   1.988   3.418   9.221  0.9142  1.4855 -2.8142
25732SOL    HW277775   1.965   3.543   9.304 -1.2088 -0.0549 -0.9709
25733SOL     OW77776   2.746   1.131   8.964 -0.2871  0.1996 -0.7809
25733SOL    HW177777   2.761   1.039   8.988 -1.7814 -0.1978 -1.2395
25733SOL    HW277778   2.707   1.170   9.043  2.7942  1.2087  0.3890
25734SOL     OW77779   1.681   7.145   9.569 -0.4737 -0.0344 -0.1581
25734SOL    HW177780   1.641   7.080   9.512  0.0829 -1.7833  1.3402
25734SOL    HW277781   1.680   7.226   9.518 -2.0339 -0.9827 -1.7464
25735SOL     OW77782   7.013   8.100   3.214 -0.2526  0.4810  0.2956
25735SOL    HW177783   7.001   8.057   3.129 -1.5354  1.5817 -0.1257
25735SOL    HW277784   7.052   8.185   3.193  5.1026 -1.3489  1.3339
25736SOL     OW77785   8.144   8.534   8.861  0.6711  0.3020 -0.0320
25736SOL    HW177786   8.086   8.605   8.833  0.3185  0.2573  0.5675
25736SOL    HW277787   8.129   8.465   8.797  0.1067  0.3177  0.0786
25737SOL     OW77788   1.747   0.175   1.008 -0.1324  0.3082 -0.4214
25737SOL    HW177789   1.798   0.223   0.943  2.6781  0.9684  2.0696
25737SOL    HW277790   1.697   0.243   1.054  0.8480  0.4031  0.5483
25738SOL     OW77791   3.225   6.287   5.268 -0.3689  0.3573 -0.1402
25738SOL    HW177792   3.185   6.245   5.191  0.3848  0.6126 -0.6798
25738SOL    HW277793   3.155   6.342   5.303 -0.7795  0.1001 -0.5372
25739SOL     OW77794   2.366   7.668   2.714  0.2837 -0.5795 -0.4261
25739SOL    HW177795   2.303   7.726   2.671 -2.0666 -1.0113  2.1285
25739SOL    HW277796   2.450   7.690   2.674 -0.8526  2.8402 -1.2973
25740SOL     OW77797   7.243   1.536   5.572 -0.0574  0.1140 -0.1309
25740SOL    HW177798   7.324   1.494   5.600 -0.7755 -0.6153  0.9600
25740SOL    HW277799   7.200   1.562   5.653 -1.2609 -0.2100 -0.6338
25741SOL     OW77800   3.759   0.678   3.902 -0.2147 -0.4347 -0.3327
25741SOL    HW177801   3.694   0.636   3.957  0.9170 -1.5511  0.2023
25741SOL    HW277802   3.745   0.772   3.915 -2.3165 -0.6069 -0.9946
25742SOL     OW77803   6.721   6.572   2.817 -0.4361  0.3742  0.2681
25742SOL    HW177804   6.811   6.589   2.846 -0.2782 -1.3569  0.8759
25742SOL    HW277805   6.689   6.658   2.790  1.5768  0.9457 -0.5084
25743SOL     OW77806   1.980   7.227   1.800  0.4858  0.4206 -0.8326
25743SOL    HW177807   1.915   7.164   1.768 -0.0888  0.7851 -0.3914
25743SOL    HW277808   1.962   7.307   1.751  0.1136  0.7466 -0.1629
25744SOL     OW77809   2.671   9.954   4.460 -0.0549  0.1402  0.0873
25744SOL    HW177810   2.590   9.997   4.488 -1.3791 -1.9920 -0.2737
25744SOL    HW277811   2.678   9.975   4.367 -0.0931  0.4754  0.1587
25745SOL     OW77812   3.337   1.187   7.149  0.1700  0.2686 -0.1919
25745SOL    HW177813   3.261   1.219   7.197 -0.5782 -1.6443  0.0222
25745SOL    HW277814   3.301   1.155   7.066  1.2183  2.0843 -1.3990
25746SOL     OW77815   9.497   8.566   6.227  0.1086  0.1235  0.1032
25746SOL    HW177816   9.511   8.505   6.154  2.0702  0.8386 -0.1559
25746SOL    HW277817   9.493   8.652   6.185  0.9481  0.5088  0.8024
25747SOL     OW77818   5.428   5.446   0.145 -0.3820  0.4400  0.5142
25747SOL    HW177819   5.385   5.490   0.072  0.2512 -0.6937 -0.5980
25747SOL    HW277820   5.365   5.380   0.174 -0.8516  1.2547  1.3728
25748SOL     OW77821   3.224   8.357   3.228  0.5203 -0.0855  0.5844
25748SOL    HW177822   3.183   8.374   3.313 -2.1589 -4.0551  0.3490
25748SOL    HW277823   3.151   8.337   3.169  2.4882 -1.4550 -1.5781
25749SOL     OW77824   5.707   7.692   7.195  0.1091 -0.7702  0.6235
25749SOL    HW177825   5.658   7.728   7.121 -1.0382 -0.1655  1.6147
25749SOL    HW277826   5.641   7.644   7.245  0.4076  0.3976  2.2196
25750SOL     OW77827   7.698   1.438   5.447  0.2332 -0.4037  0.1457
25750SOL    HW177828   7.734   1.510   5.498 -1.0032 -0.6877  1.4949
25750SOL    HW277829   7.663   1.480   5.368  2.3322  0.0201 -0.6145
25751SOL     OW77830   0.361   4.827   3.478  0.1686  0.5527  0.2732
25751SOL    HW177831   0.390   4.848   3.389  0.7628 -1.1606  0.0181
25751SOL    HW277832   0.303   4.899   3.502  1.7108  2.1868 -0.6359
25752SOL     OW77833   3.875   4.206   5.131 -0.0423 -0.3376 -0.9049
25752SOL    HW177834   3.950   4.180   5.078 -0.1447  0.5112 -1.4833
25752SOL    HW277835   3.810   4.236   5.067 -1.1258 -1.6383 -0.4732
25753SOL     OW77836   5.445   4.534   9.624  0.3297  0.5097  0.4520
25753SOL    HW177837   5.506   4.597   9.585  0.4179 -0.4516 -1.0438
25753SOL    HW277838   5.502   4.471   9.669  0.4822 -0.4349 -1.0152
25754SOL     OW77839   9.123   7.009   7.104  0.0394  0.2917  0.2738
25754SOL    HW177840   9.208   7.001   7.062 -0.1246  1.7092 -0.3928
25754SOL    HW277841   9.140   7.059   7.184  0.3524 -2.4071  2.0252
25755SOL     OW77842   8.129   6.561   8.805 -0.2150  0.3951  0.3548
25755SOL    HW177843   8.222   6.547   8.785 -0.1975  1.9239 -0.8248
25755SOL    HW277844   8.128   6.584   8.898  0.8382  2.1757 -0.0266
25756SOL     OW77845   1.109   4.345   6.519  0.3008  0.4484  0.2144
25756SOL    HW177846   1.072   4.268   6.563  0.4262  0.3619  0.1700
25756SOL    HW277847   1.106   4.414   6.585 -1.9809  1.0699 -0.4281
25757SOL     OW77848   8.648   8.912   1.997 -0.2011  0.2300  0.4989
25757SOL    HW177849   8.738   8.889   1.974 -0.6785  0.1863 -1.5111
25757SOL    HW277850   8.626   8.852   2.068  0.1085 -2.5403 -1.5655
25758SOL     OW77851   3.863   8.837   8.565 -0.0182 -0.0374 -0.2555
25758SOL    HW177852   3.840   8.916   8.518  0.9248  0.8072  0.6453
25758SOL    HW277853   3.789   8.778   8.553 -0.6461  0.9102 -1.0931
25759SOL     OW77854   6.162   7.705   1.933  0.4714 -0.2828  0.6633
25759SOL    HW177855   6.120   7.791   1.937 -0.3899 -0.5999 -0.9220
25759SOL    HW277856   6.095   7.644   1.962  0.3010 -0.6532 -0.4966
25760SOL     OW77857   2.907   5.116   1.775  0.0563  0.3006  0.3610
25760SOL    HW177858   2.835   5.132   1.714  0.3549 -0.5809 -0.2531
25760SOL    HW277859   2.973   5.181   1.753 -0.2741  0.6714  0.4640
25761SOL     OW77860   3.824   0.576   6.581  0.1010  0.0324 -0.0034
25761SOL    HW177861   3.802   0.587   6.674 -1.1692  0.1622 -0.2965
25761SOL    HW277862   3.811   0.482   6.565 -2.7687  0.4681 -0.7399
25762SOL     OW77863   0.850   2.983   7.717 -0.5496  0.4274  0.4526
25762SOL    HW177864   0.765   2.947   7.740 -0.7891  1.0001  0.4923
25762SOL    HW277865   0.850   3.071   7.755 -0.3895  0.8544 -0.4921
25763SOL     OW77866   4.719   0.265   4.696 -0.3427 -0.1859 -0.1444
25763SOL    HW177867   4.744   0.271   4.604  1.2796 -1.1855  0.2067
25763SOL    HW277868   4.777   0.326   4.741  0.8413 -1.7682  0.5502
25764SOL     OW77869   1.317   3.591   7.985  0.1190  0.2378  0.3208
25764SOL    HW177870   1.360   3.673   8.009  1.7374 -0.4517 -0.0359
25764SOL    HW277871   1.307   3.544   8.067 -0.5061  0.6422  0.4817
25765SOL     OW77872   2.452   0.088   4.595 -0.1817  0.2902 -0.1861
25765SOL    HW177873   2.415   0.037   4.667 -1.2579 -1.3293 -1.7727
25765SOL    HW277874   2.401   0.168   4.592 -0.2242  0.2983  0.7526
25766SOL     OW77875   5.750   6.223   4.555 -0.3381  0.2294  0.2380
25766SOL    HW177876   5.711   6.310   4.569  0.7917  1.1935 -2.0582
25766SOL    HW277877   5.701   6.187   4.480 -1.2073 -1.4281  1.5447
25767SOL     OW77878   6.419   3.083   6.756  0.0081 -0.2228  0.3318
25767SOL    HW177879   6.327   3.081   6.781 -0.2947 -0.2803 -0.7708
25767SOL    HW277880   6.439   2.993   6.731 -0.1164  0.1341 -1.1112
25768SOL     OW77881   0.276   3.023   2.195  0.7387 -0.0208  0.5895
25768SOL    HW177882   0.310   3.069   2.119  1.4763  1.5904  1.8287
25768SOL    HW277883   0.190   3.062   2.210  0.6505 -0.2400  0.6513
25769SOL     OW77884   1.286   2.177   3.513 -0.5078  0.0180  0.0078
25769SOL    HW177885   1.276   2.257   3.566 -1.4112  0.4062 -0.7103
25769SOL    HW277886   1.379   2.171   3.496 -0.5702  1.7821 -1.1981
25770SOL     OW77887   8.818   5.991   8.722 -0.0668  0.2712 -0.0892
25770SOL    HW177888   8.817   5.921   8.657  0.0779  0.9356 -0.8346
25770SOL    HW277889   8.865   6.063   8.678  0.4946  0.5559  0.9480
25771SOL     OW77890   7.682   0.378   5.445  0.3163 -0.4193  0.2632
25771SOL    HW177891   7.742   0.395   5.517  1.1578 -1.2620 -0.2301
25771SOL    HW277892   7.685   0.284   5.432 -0.2163 -0.3351 -0.5530
25772SOL     OW77893   2.389   4.833   2.749 -0.3044  0.0947  0.0219
25772SOL    HW177894   2.445   4.770   2.795 -0.1830  0.4008  0.2992
25772SOL    HW277895   2.384   4.801   2.660 -2.1305 -1.6138  0.6548
25773SOL     OW77896   2.388   6.645   9.219  0.5021  0.3887 -0.0058
25773SOL    HW177897   2.304   6.679   9.186  0.8383  0.1527 -1.1382
25773SOL    HW277898   2.453   6.679   9.158  1.2287  0.4659  0.7990
25774SOL     OW77899   9.596   5.311   5.959 -0.5116 -0.0154  0.2204
25774SOL    HW177900   9.646   5.317   5.877  2.8441  3.4829  2.2003
25774SOL    HW277901   9.643   5.245   6.010 -1.1797 -0.4930  0.2264
25775SOL     OW77902   5.292   2.767   0.875  0.7393  0.0087  0.4549
25775SOL    HW177903   5.317   2.830   0.943  0.5712  3.4379 -2.3935
25775SOL    HW277904   5.363   2.771   0.811 -1.2808  0.6900 -1.9010
25776SOL     OW77905   3.260   4.477   5.702 -0.1754  0.3182  0.0415
25776SOL    HW177906   3.280   4.403   5.645  0.8079  0.1305  0.6135
25776SOL    HW277907   3.328   4.474   5.770 -1.6969  0.1228  1.6179
25777SOL     OW77908   5.773   6.798   8.901 -0.2947 -0.3258  0.1431
25777SOL    HW177909   5.865   6.806   8.928 -0.6084 -1.4595  1.7082
25777SOL    HW277910   5.728   6.866   8.950 -0.1392  1.2574 -1.7739
25778SOL     OW77911   5.859   9.780   9.446  0.1676 -0.0096  0.2955
25778SOL    HW177912   5.951   9.755   9.446  0.1773  0.0257  0.4945
25778SOL    HW277913   5.859   9.872   9.418  0.0604 -0.4726 -1.3764
25779SOL     OW77914   4.435   1.137   2.219  0.4249  0.0387  0.4577
25779SOL    HW177915   4.403   1.100   2.301  3.3484  0.0908  1.7344
25779SOL    HW277916   4.401   1.227   2.218 -2.1680 -0.8616  0.0141
25780SOL     OW77917   9.472   5.313   5.391  0.1990  0.6220  0.0678
25780SOL    HW177918   9.454   5.367   5.468 -0.8409 -0.8538  0.9072
25780SOL    HW277919   9.392   5.262   5.378  0.9409 -0.3124 -1.0229
25781SOL     OW77920   0.811   5.571   4.968 -0.7856  0.3767  0.4677
25781SOL    HW177921   0.740   5.601   5.025  0.1924 -0.9675  2.4857
25781SOL    HW277922   0.888   5.572   5.023  0.4883  0.2533 -1.2303
25782SOL     OW77923   9.613   7.513   3.798  0.2749  0.0854  0.1162
25782SOL    HW177924   9.704   7.525   3.770  0.7698  0.9089  1.9504
25782SOL    HW277925   9.588   7.598   3.834 -1.2556 -0.1222 -0.3906
25783SOL     OW77926   1.257   1.952   9.907  0.2764  0.1667 -0.4824
25783SOL    HW177927   1.289   1.903   9.984  0.7881 -0.8431 -1.3110
25783SOL    HW277928   1.334   1.999   9.875  0.0456  0.6418 -0.3525
25784SOL     OW77929   3.905   6.128   5.561  0.1496 -0.0798  0.0506
25784SOL    HW177930   3.924   6.035   5.552  1.8137  0.2671 -0.3579
25784SOL    HW277931   3.879   6.156   5.473  1.8971  0.2807 -0.3843
25785SOL     OW77932   1.655   0.184   8.216  0.4421 -0.1988  0.4579
25785SOL    HW177933   1.606   0.241   8.157  1.1851  0.0756  0.0872
25785SOL    HW277934   1.589   0.126   8.254 -0.2139  0.4025  0.2574
25786SOL     OW77935   6.915   8.125   8.019 -0.5936 -0.0232  0.6235
25786SOL    HW177936   6.923   8.098   7.928  0.3210 -0.7668  0.9098
25786SOL    HW277937   6.921   8.220   8.017  0.1985 -0.0759 -0.0253
25787SOL     OW77938   4.852   0.384   2.875  0.3872 -0.3720 -0.4228
25787SOL    HW177939   4.887   0.398   2.963  1.0402 -1.0635 -0.5547
25787SOL    HW277940   4.832   0.290   2.873 -1.4970 -0.0231 -0.3649
25788SOL     OW77941   3.125   6.952   0.793 -0.2126 -0.2101  0.4837
25788SOL    HW177942   3.033   6.978   0.783 -0.7296 -1.6207  1.2403
25788SOL    HW277943   3.122   6.857   0.801  1.3831 -0.3252 -0.0065
25789SOL     OW77944   4.957   4.932   6.051  0.0522  0.1286  0.6718
25789SOL    HW177945   5.042   4.905   6.088  0.5610  1.2486  0.3741
25789SOL    HW277946   4.954   5.026   6.065 -1.0195  0.1479  0.3916
25790SOL     OW77947   6.370   3.554   2.132 -0.1191 -0.4912 -0.4353
25790SOL    HW177948   6.308   3.583   2.199 -0.5558 -2.3025 -0.0078
25790SOL    HW277949   6.342   3.600   2.053 -2.4379 -1.6824 -0.3994
25791SOL     OW77950   4.231   1.980   7.677 -0.1534 -0.4707  0.0907
25791SOL    HW177951   4.289   1.905   7.692  0.7210  0.2889  0.5985
25791SOL    HW277952   4.252   2.010   7.589  0.1294 -0.2972  0.2132
25792SOL     OW77953   4.271   9.366   1.563 -0.4052 -0.2799 -0.3614
25792SOL    HW177954   4.208   9.437   1.571 -2.3980 -1.8462 -1.0668
25792SOL    HW277955   4.244   9.302   1.629  1.0847 -0.5562  0.0016
25793SOL     OW77956   8.616   0.657   2.984  1.0162 -0.0548 -0.3213
25793SOL    HW177957   8.683   0.590   2.969  1.1288  0.6266 -3.3367
25793SOL    HW277958   8.533   0.611   2.971  0.9786 -0.1578  0.2249
25794SOL     OW77959   3.930   6.186   0.174 -0.3834 -0.0117  0.6425
25794SOL    HW177960   3.966   6.098   0.184  0.1832  0.0664 -0.5863
25794SOL    HW277961   3.847   6.183   0.221 -0.1587 -1.0606  1.0054
25795SOL     OW77962   2.514   5.768   9.627  0.1813  0.1982 -0.3320
25795SOL    HW177963   2.533   5.710   9.553  0.3815  0.4328 -0.4615
25795SOL    HW277964   2.531   5.713   9.704  1.6156  0.4586 -0.4312
25796SOL     OW77965   5.731   4.556   3.016  0.4640 -0.2636 -0.9178
25796SOL    HW177966   5.696   4.637   3.052  0.0103 -0.7585 -0.2371
25796SOL    HW277967   5.826   4.568   3.017  0.5355 -0.5723  1.2386
25797SOL     OW77968   3.823   7.374   2.199  0.2609 -0.0823 -0.3129
25797SOL    HW177969   3.859   7.440   2.258  0.2191 -0.8056  0.5392
25797SOL    HW277970   3.768   7.319   2.255 -1.1841  0.2472 -1.3508
25798SOL     OW77971   8.446   7.280   5.546 -0.2098  0.4141  0.0724
25798SOL    HW177972   8.478   7.240   5.627  0.8516  0.0192 -0.5279
25798SOL    HW277973   8.510   7.347   5.525 -0.7881  0.9110 -0.1500
25799SOL     OW77974   3.140   1.779   9.649  0.0276  0.1120  0.0984
25799SOL    HW177975   3.226   1.810   9.678 -1.2541  1.6510  2.6768
25799SOL    HW277976   3.141   1.788   9.554  3.3191 -1.7024 -0.1508
25800SOL     OW77977   9.978   5.269   0.324  0.2796 -0.0951  0.1589
25800SOL    HW177978   9.996   5.327   0.250  0.3760 -2.0246 -1.4184
25800SOL    HW277979   9.924   5.199   0.287  1.2047 -1.6810  1.6515
25801SOL     OW77980   2.256   8.910   6.801 -0.6492  0.7423  0.1545
25801SOL    HW177981   2.206   8.978   6.755 -2.2758 -0.2093  0.4245
25801SOL    HW277982   2.346   8.943   6.802 -1.2162  2.4498 -0.5348
25802SOL     OW77983   2.474   2.584   1.742 -0.2244  0.2743  0.2976
25802SOL    HW177984   2.416   2.540   1.803 -0.1738  0.9318  0.8266
25802SOL    HW277985   2.419   2.604   1.666 -0.5714  0.4747  0.6011
25803SOL     OW77986   2.785   5.186   6.385 -0.3152 -0.6055 -0.0455
25803SOL    HW177987   2.857   5.124   6.401 -0.7382 -1.2055 -0.4173
25803SOL    HW277988   2.774   5.186   6.290 -0.1688  0.2304 -0.0704
25804SOL     OW77989   5.260   8.661   2.891 -0.2560 -0.3154 -0.5356
25804SOL    HW177990   5.211   8.671   2.809  0.9506 -1.7301 -1.4940
25804SOL    HW277991   5.329   8.727   2.886 -1.4699  1.0697  0.3952
25805SOL     OW77992   1.116   6.035   4.280 -0.1649  0.2873  0.1660
25805SOL    HW177993   1.026   6.069   4.282 -0.3568 -0.2082  0.2760
25805SOL    HW277994   1.165   6.100   4.230 -0.9441 -0.2617 -1.3931
25806SOL     OW77995   7.042   8.238   0.919 -0.3354  0.0625 -0.1812
25806SOL    HW177996   7.010   8.227   0.829  0.3022 -1.5813 -0.2502
25806SOL    HW277997   7.129   8.276   0.909  0.1415 -1.0225 -0.3491
25807SOL     OW77998   7.413   5.195   8.167 -0.0947 -0.7406 -0.1510
25807SOL    HW177999   7.499   5.238   8.167  0.6624 -2.2006 -0.0821
25807SOL    HW278000   7.391   5.185   8.074 -0.4598  0.1237 -0.1667
25808SOL     OW78001   3.730   8.964   0.989  0.1947 -0.0453 -0.0770
25808SOL    HW178002   3.660   8.943   0.926  1.7322 -0.2837 -1.8126
25808SOL    HW278003   3.733   8.888   1.048 -1.0789  0.0314  0.1077
25809SOL     OW78004   2.807   9.536   0.961 -0.0424  0.6396  0.2380
25809SOL    HW178005   2.851   9.465   1.007 -2.5782 -1.5757 -0.4983
25809SOL    HW278006   2.878   9.583   0.916  1.9813  0.1427  2.6988
25810SOL     OW78007   0.051   2.598   4.695  0.0869 -0.0032  0.5261
25810SOL    HW178008  -0.009   2.670   4.714 -0.3686 -0.3694  0.5002
25810SOL    HW278009   0.119   2.605   4.761 -0.5645 -0.2325  1.2361
25811SOL     OW78010   8.000   7.912   2.324  0.9215 -0.2219 -0.1733
25811SOL    HW178011   8.092   7.890   2.340  0.8774 -2.9238 -2.8729
25811SOL    HW278012   7.956   7.828   2.313 -1.5379  1.0301 -0.7673
25812SOL     OW78013   9.435   7.891   4.549 -0.3257  0.2291  0.1811
25812SOL    HW178014   9.434   7.885   4.453 -0.1773 -1.1160  0.2565
25812SOL    HW278015   9.387   7.814   4.579  0.0443  0.3823  1.2051
25813SOL     OW78016   5.100   9.614   8.553  0.0233  0.0249  0.4361
25813SOL    HW178017   5.119   9.636   8.644 -1.9271  0.1567  0.8418
25813SOL    HW278018   5.034   9.544   8.557  0.1259 -0.1908 -0.8753
25814SOL     OW78019   5.462   3.215   2.602  0.6394 -0.3919  0.2545
25814SOL    HW178020   5.485   3.299   2.641  3.0129 -0.5534 -0.5992
25814SOL    HW278021   5.410   3.237   2.525  1.5137  0.3658 -0.1491
25815SOL     OW78022   5.439   4.988   7.482 -0.5000  0.2135 -0.1972
25815SOL    HW178023   5.384   5.050   7.531  0.8466  1.3092 -0.0203
25815SOL    HW278024   5.457   5.033   7.399 -1.7423 -1.1152 -1.2267
25816SOL     OW78025   2.782   0.963   3.346 -0.2806  0.0891  0.1064
25816SOL    HW178026   2.688   0.975   3.333 -0.1436  0.1776 -0.9081
25816SOL    HW278027   2.789   0.877   3.387 -0.8808  0.6800  1.4938
25817SOL     OW78028   5.234   8.323   5.809 -0.3205 -0.2385 -0.1497
25817SOL    HW178029   5.160   8.263   5.798 -0.5952  0.3841 -1.9472
25817SOL    HW278030   5.251   8.323   5.903 -4.2123  1.5000  0.7308
25818SOL     OW78031   2.314   0.105   6.912  0.0275  0.1294 -0.0300
25818SOL    HW178032   2.225   0.120   6.944  0.4523 -1.3702  2.0709
25818SOL    HW278033   2.368   0.168   6.960  0.3161 -0.1558  0.0246
25819SOL     OW78034   4.198   4.469   3.501  0.0666 -0.1023  0.3371
25819SOL    HW178035   4.157   4.414   3.434 -0.8190 -0.4469  1.1406
25819SOL    HW278036   4.268   4.416   3.536  1.5367  0.6364 -1.3213
25820SOL     OW78037   2.614   8.327   8.540  0.6047 -0.0218  0.3234
25820SOL    HW178038   2.680   8.324   8.470  2.4772  3.4110  1.6893
25820SOL    HW278039   2.530   8.326   8.493  1.6746 -1.2243 -1.6993
25821SOL     OW78040   5.100   5.395   1.577 -0.0504 -0.0507  0.2248
25821SOL    HW178041   5.136   5.403   1.665 -2.8293 -0.6739  1.5390
25821SOL    HW278042   5.079   5.485   1.552 -2.4177 -0.0813  1.7540
25822SOL     OW78043   5.831   6.046   3.064  0.3052 -0.2491 -0.2829
25822SOL    HW178044   5.926   6.048   3.066  0.3275 -0.5163 -1.1134
25822SOL    HW278045   5.808   6.026   2.974 -0.5126 -2.3496  0.3284
25823SOL     OW78046   3.990   2.189   9.064  0.3427  0.0024 -0.1999
25823SOL    HW178047   4.077   2.219   9.037 -0.2476  1.9726 -0.0534
25823SOL    HW278048   3.943   2.173   8.982  0.0573  1.3722 -0.3123
25824SOL     OW78049   0.419   4.041   3.438 -0.1102 -0.1775 -0.4318
25824SOL    HW178050   0.405   4.130   3.471  1.7122  0.4788 -1.3149
25824SOL    HW278051   0.493   4.049   3.378 -0.6233 -2.1027 -1.3954
25825SOL     OW78052   0.774   7.117   9.695 -0.6397 -0.5167  0.1949
25825SOL    HW178053   0.779   7.200   9.647 -0.9489 -1.4965 -1.5993
25825SOL    HW278054   0.833   7.129   9.769  1.7944  0.2177 -1.7381
25826SOL     OW78055   1.182   5.857   4.788 -0.0636 -0.2503 -0.0264
25826SOL    HW178056   1.264   5.874   4.835 -0.0713 -0.1379 -0.0557
25826SOL    HW278057   1.159   5.940   4.747 -1.6120  0.4928  2.1785
25827SOL     OW78058   1.020   5.062   6.684  0.2956  0.1949 -0.1812
25827SOL    HW178059   0.960   4.992   6.657  0.1343 -0.5186  1.8182
25827SOL    HW278060   0.993   5.084   6.773  1.2788  1.8086 -0.2354
25828SOL     OW78061   9.440   6.098   4.900 -0.4210 -0.1222  0.3603
25828SOL    HW178062   9.465   6.176   4.850 -0.4419 -0.7364 -0.6416
25828SOL    HW278063   9.357   6.122   4.942 -0.7489  0.1880 -0.4478
25829SOL     OW78064   3.965   4.800   1.919 -0.2707  0.7828  0.0899
25829SOL    HW178065   4.054   4.766   1.915 -0.9921 -1.1483 -0.9611
25829SOL    HW278066   3.939   4.788   2.010  0.4193  1.0390  0.3270
25830SOL     OW78067   4.268   2.876   3.516 -0.5684  0.0043  0.0084
25830SOL    HW178068   4.198   2.926   3.558  0.3684  0.2871  1.2725
25830SOL    HW278069   4.223   2.802   3.475 -1.8055  1.1178 -0.7235
25831SOL     OW78070   7.915   1.269   6.774 -0.0312  0.0500  0.5906
25831SOL    HW178071   7.957   1.350   6.802 -1.8507  1.6192 -0.9416
25831SOL    HW278072   7.930   1.265   6.680 -0.6335 -0.9842  0.5219
25832SOL     OW78073   9.484   1.734   2.500 -0.4239  0.2153 -0.0279
25832SOL    HW178074   9.444   1.670   2.443  0.9738  0.1194 -0.9400
25832SOL    HW278075   9.574   1.741   2.470 -0.1101  1.4297  1.0726
25833SOL     OW78076   6.969   5.118   3.394  0.4868  0.0632 -0.1636
25833SOL    HW178077   6.909   5.122   3.319 -0.3250 -1.6107  0.3626
25833SOL    HW278078   6.932   5.179   3.457  0.1517  0.1219 -0.4117
25834SOL     OW78079   3.217   7.783   9.296 -0.1024 -0.4656 -0.4125
25834SOL    HW178080   3.214   7.738   9.211 -1.1381  0.0225 -0.6465
25834SOL    HW278081   3.194   7.873   9.276  2.9935  0.5257 -0.1211
25835SOL     OW78082   6.267   2.461   1.530  0.3112 -0.4185  0.4000
25835SOL    HW178083   6.250   2.387   1.472  0.0842 -2.3973  2.8038
25835SOL    HW278084   6.189   2.516   1.523 -1.2917 -2.4508  1.3612
25836SOL     OW78085   9.486   9.918   5.501 -0.5367  0.3752 -0.6089
25836SOL    HW178086   9.538   9.855   5.552 -0.8544  1.1693  0.7268
25836SOL    HW278087   9.542   9.939   5.426  0.6251  0.3891  0.2328
25837SOL     OW78088   4.016   1.488   8.126  0.0138  0.4504  0.4391
25837SOL    HW178089   4.097   1.465   8.081 -1.1480 -0.7264 -1.1405
25837SOL    HW278090   3.989   1.407   8.171 -1.3822  0.1695 -0.8386
25838SOL     OW78091   6.679   0.962   7.684  0.1228  0.0083  0.0372
25838SOL    HW178092   6.633   0.946   7.602  1.1143  0.9764 -0.7320
25838SOL    HW278093   6.719   1.049   7.674 -1.8696  1.3703  2.5386
25839SOL     OW78094   0.759   3.390   0.457 -0.2534 -0.2027  0.2524
25839SOL    HW178095   0.715   3.311   0.426 -0.0195 -0.0040 -0.6024
25839SOL    HW278096   0.845   3.360   0.487 -0.5916 -0.4406  1.0226
25840SOL     OW78097   8.019   1.571   9.021 -0.5249 -0.1687 -0.2270
25840SOL    HW178098   7.960   1.645   9.008  0.0929  0.1141 -1.5799
25840SOL    HW278099   8.078   1.599   9.091 -2.0327 -0.5092  1.2415
25841SOL     OW78100   7.932   8.649   0.179  0.0599  0.2285  0.3145
25841SOL    HW178101   7.995   8.644   0.107 -0.0224 -2.7354  0.3538
25841SOL    HW278102   7.968   8.591   0.246 -1.3898  0.5775  1.4392
25842SOL     OW78103   1.132   6.577   3.836 -0.6297 -0.0550 -0.0731
25842SOL    HW178104   1.041   6.547   3.837 -0.4448 -0.6677  1.5899
25842SOL    HW278105   1.160   6.566   3.746 -1.3244 -2.6599 -0.0469
25843SOL     OW78106   7.124   3.247   3.361  0.7009 -0.2182  0.7066
25843SOL    HW178107   7.030   3.237   3.378  0.1689  2.0930 -0.5317
25843SOL    HW278108   7.141   3.186   3.289  0.6899 -2.2704  2.3600
25844SOL     OW78109   7.310   6.439   7.104 -0.2480 -0.1875  0.0892
25844SOL    HW178110   7.280   6.383   7.032  1.0997 -2.7876  1.3837
25844SOL    HW278111   7.393   6.475   7.074 -1.0234  1.0466 -0.6731
25845SOL     OW78112   3.255   8.457   8.289 -0.6210 -0.4950  0.0595
25845SOL    HW178113   3.304   8.409   8.355 -1.4387 -0.4506  0.7203
25845SOL    HW278114   3.321   8.488   8.227  0.2448 -0.0325  1.1753
25846SOL     OW78115   8.077   5.507   5.835 -0.6407  0.1742 -0.2621
25846SOL    HW178116   8.047   5.555   5.913  0.6266  1.5578 -0.5687
25846SOL    HW278117   8.105   5.422   5.869 -0.9873  0.4030  0.6414
25847SOL     OW78118   3.170   1.517   1.428 -0.1876 -0.8332 -0.3289
25847SOL    HW178119   3.188   1.567   1.348 -0.6207 -0.3320 -0.1233
25847SOL    HW278120   3.210   1.568   1.498  0.9777 -1.7324 -0.3111
25848SOL     OW78121   7.331   4.923   0.292  0.4950  0.0620  0.5405
25848SOL    HW178122   7.388   4.996   0.267  0.2048  0.7279  1.7174
25848SOL    HW278123   7.243   4.952   0.269  0.6076 -0.9923 -1.3304
25849SOL     OW78124   6.899   1.665   4.499 -0.0640  0.0843 -0.0611
25849SOL    HW178125   6.978   1.682   4.551 -0.1278  1.3320 -0.3445
25849SOL    HW278126   6.889   1.743   4.444 -0.9725 -0.4644 -0.7042
25850SOL     OW78127   5.334   9.998   6.368  0.1435  0.2664 -0.1707
25850SOL    HW178128   5.405  10.022   6.310  1.0139  2.7429  1.7557
25850SOL    HW278129   5.363   9.915   6.408  1.4640  0.6866 -0.2148
25851SOL     OW78130   5.583   9.327   7.037 -0.2694  0.1508 -0.4205
25851SOL    HW178131   5.663   9.351   7.083  0.2362 -1.2168 -0.5344
25851SOL    HW278132   5.575   9.391   6.967  0.3380  0.7260  0.0271
25852SOL     OW78133   8.006   0.664   9.816 -0.2407  0.0026 -0.3222
25852SOL    HW178134   7.912   0.671   9.802 -0.4013 -0.1942  0.6427
25852SOL    HW278135   8.038   0.612   9.742 -0.9047 -0.0614 -0.5664
25853SOL     OW78136   2.602   1.760   9.962  0.2473  0.3513 -0.2914
25853SOL    HW178137   2.641   1.844   9.941 -0.3432  0.4465 -1.0537
25853SOL    HW278138   2.673   1.696   9.947  0.5288  0.6523 -0.2538
25854SOL     OW78139   5.773   2.407   1.560  0.2172  0.0620 -0.0773
25854SOL    HW178140   5.715   2.467   1.606  0.5859 -1.7813  3.0713
25854SOL    HW278141   5.857   2.452   1.556  0.2108  0.2363  1.2823
25855SOL     OW78142   8.563   3.549   2.260 -0.1577  0.3988 -0.1961
25855SOL    HW178143   8.546   3.570   2.168 -0.8086 -0.1573 -0.2096
25855SOL    HW278144   8.595   3.459   2.259  1.1258  0.8301  0.0067
25856SOL     OW78145   8.009   3.696   7.026 -0.1496 -0.0379 -0.0294
25856SOL    HW178146   8.091   3.652   7.005 -0.0378  0.7687 -1.3929
25856SOL    HW278147   7.944   3.626   7.027  0.7287 -0.9655  2.7066
25857SOL     OW78148   4.587   6.946   7.504 -0.0247  0.1378  0.1474
25857SOL    HW178149   4.651   6.951   7.433  0.9362  1.2770  1.0469
25857SOL    HW278150   4.535   6.868   7.484  0.0657  0.5570 -1.9099
25858SOL     OW78151   4.798   7.503   3.975 -0.2892  0.1081  0.2851
25858SOL    HW178152   4.757   7.465   3.898 -1.1561  0.9721  0.3003
25858SOL    HW278153   4.803   7.597   3.956  1.8834  0.0327  0.2054
25859SOL     OW78154   8.903   8.286   7.624 -0.2523  0.5937 -0.2856
25859SOL    HW178155   8.969   8.356   7.624  1.5992 -1.0362 -1.5447
25859SOL    HW278156   8.837   8.316   7.562  1.7404  0.2464 -2.7291
25860SOL     OW78157   0.008   6.492   5.959 -0.2396  0.4001  0.3081
25860SOL    HW178158   0.039   6.564   6.015 -0.9025  1.1488 -0.2526
25860SOL    HW278159   0.022   6.523   5.870  2.4590 -1.5011 -0.0364
25861SOL     OW78160   8.670   0.877   6.393 -0.2281  0.4378  0.9235
25861SOL    HW178161   8.619   0.806   6.431  2.0450 -1.0970  1.3275
25861SOL    HW278162   8.676   0.943   6.462 -2.9643  1.4869  0.3059
25862SOL     OW78163   1.322   2.841   8.815 -0.4325 -0.7199  0.1238
25862SOL    HW178164   1.303   2.897   8.890  1.0478 -0.3387  0.2424
25862SOL    HW278165   1.417   2.839   8.810 -0.4113 -3.4270  0.2506
25863SOL     OW78166   4.291   0.052   5.602  0.0256 -0.3850 -0.3629
25863SOL    HW178167   4.348  -0.001   5.658 -0.5336 -1.2226 -0.5692
25863SOL    HW278168   4.343   0.068   5.523  0.1825 -0.6577 -0.3165
25864SOL     OW78169   4.514   1.549   4.533  0.7154 -0.5789  0.0156
25864SOL    HW178170   4.419   1.561   4.523  0.5655 -2.4885 -1.5294
25864SOL    HW278171   4.524   1.511   4.620 -0.0823 -1.3500 -0.2083
25865SOL     OW78172   3.483   3.587   5.878 -0.1941 -0.3960  0.2257
25865SOL    HW178173   3.441   3.603   5.963  0.2596 -2.1589  0.8326
25865SOL    HW278174   3.568   3.631   5.885 -0.9891  1.2586 -0.1472
25866SOL     OW78175   9.339   4.684   0.876  0.9741 -0.7828  0.5088
25866SOL    HW178176   9.422   4.696   0.922  0.9315 -0.1435  0.4300
25866SOL    HW278177   9.363   4.689   0.783  0.4679  2.5581  0.4440
25867SOL     OW78178   2.503   9.251   9.956 -0.1584  0.1336  0.1572
25867SOL    HW178179   2.457   9.172   9.984 -0.2130 -0.1648 -0.7274
25867SOL    HW278180   2.587   9.219   9.923 -0.6267  0.2952 -1.2672
25868SOL     OW78181   2.121   9.066   5.658 -0.0608  0.3636 -0.1683
25868SOL    HW178182   2.193   9.123   5.628  0.3008  0.1367  0.2531
25868SOL    HW278183   2.151   8.977   5.639  1.1555  0.0404  2.7575
25869SOL     OW78184   6.914   7.279   5.526 -0.0938 -0.0524  0.3551
25869SOL    HW178185   6.856   7.204   5.515 -0.0915  0.0911 -0.7005
25869SOL    HW278186   6.870   7.334   5.591 -0.1677 -0.8842  1.0200
25870SOL     OW78187   2.218   2.939   8.728  0.2692  0.5147 -0.4031
25870SOL    HW178188   2.279   2.922   8.656 -0.0992 -0.1408 -0.5721
25870SOL    HW278189   2.273   2.944   8.806  0.5964  0.4636 -0.6278
25871SOL     OW78190   0.236   0.087   4.660 -0.0313  0.0508  0.0972
25871SOL    HW178191   0.147   0.113   4.636  0.0092 -0.1760 -0.3181
25871SOL    HW278192   0.247   0.001   4.620 -0.0926 -0.5198  1.2749
25872SOL     OW78193   7.146   2.408   9.202 -0.5876 -0.2641 -0.3134
25872SOL    HW178194   7.126   2.328   9.250 -2.1234  0.2400 -0.0677
25872SOL    HW278195   7.140   2.383   9.110  0.8191 -0.8547 -0.2752
25873SOL     OW78196   2.660   4.918   4.878  0.2471  0.0362  0.5114
25873SOL    HW178197   2.609   4.843   4.910 -3.6347  2.3310  0.3665
25873SOL    HW278198   2.681   4.968   4.957  1.2996 -0.2994  0.4540
25874SOL     OW78199   2.679   1.992   8.577  0.6263 -0.4199  0.1832
25874SOL    HW178200   2.700   2.036   8.495  0.8899  0.1698  0.5589
25874SOL    HW278201   2.735   1.914   8.577  1.2398  0.0096  0.1786
25875SOL     OW78202   4.291   6.063   5.584 -0.3182 -0.0658 -0.1319
25875SOL    HW178203   4.222   6.112   5.629 -0.2425  0.1496 -0.2491
25875SOL    HW278204   4.250   5.981   5.559 -0.0789 -0.6428  1.2640
25876SOL     OW78205   3.256   4.127   9.285 -0.5915  0.4168  0.3534
25876SOL    HW178206   3.263   4.037   9.253  1.4245  0.9038 -0.7771
25876SOL    HW278207   3.341   4.143   9.328 -1.5726  1.2359  2.0873
25877SOL     OW78208   1.898   4.146   0.675 -0.3434  0.1754  0.2724
25877SOL    HW178209   1.816   4.098   0.684  0.3538 -1.0127  0.6420
25877SOL    HW278210   1.909   4.190   0.760 -0.3517 -0.0896  0.4134
25878SOL     OW78211   6.805   6.906   0.958  0.0215  0.1757  0.1587
25878SOL    HW178212   6.845   6.953   1.031 -1.5009  1.0383  0.4737
25878SOL    HW278213   6.850   6.822   0.957  1.2164  0.7624  1.0374
25879SOL     OW78214   3.384   2.301   4.239  0.0691 -0.0222  0.0259
25879SOL    HW178215   3.372   2.291   4.333  0.9966  2.7656  0.5356
25879SOL    HW278216   3.307   2.349   4.210 -0.6344 -1.6110 -0.8480
25880SOL     OW78217   4.612   7.571   7.239  0.3570 -0.3954 -0.1591
25880SOL    HW178218   4.636   7.540   7.152 -2.3669 -1.3217 -0.6910
25880SOL    HW278219   4.525   7.533   7.255  1.5083 -1.8774  3.7674
25881SOL     OW78220   7.873   1.684   5.190  0.0196 -0.5087 -0.1373
25881SOL    HW178221   7.852   1.770   5.224  3.1549 -0.2980  1.6437
25881SOL    HW278222   7.931   1.646   5.256 -0.4443 -3.6040 -1.3472
25882SOL     OW78223   6.054   4.509   1.780  0.0784 -0.3294 -0.1556
25882SOL    HW178224   6.050   4.418   1.752 -0.0518  0.2123 -2.0103
25882SOL    HW278225   5.979   4.551   1.738  1.5743  1.1605 -1.4924
25883SOL     OW78226   9.800   5.072   5.599 -0.6174 -0.7762  0.2988
25883SOL    HW178227   9.747   4.995   5.577 -1.8322  0.1751 -0.2581
25883SOL    HW278228   9.827   5.057   5.689  0.0314 -2.3179 -0.1208
25884SOL     OW78229   2.874   2.661   4.018 -0.2753 -1.1829 -0.0675
25884SOL    HW178230   2.909   2.749   4.034 -2.5460 -0.3533  0.8707
25884SOL    HW278231   2.942   2.602   4.050  0.9041  0.2438  0.1997
25885SOL     OW78232   4.502   2.358   3.431 -0.0881  0.6084  0.3000
25885SOL    HW178233   4.589   2.320   3.443 -0.2830 -0.5789 -1.6120
25885SOL    HW278234   4.494   2.371   3.336 -1.6248  1.6395  0.5240
25886SOL     OW78235   7.586   9.949   4.627 -0.0885 -0.1494 -0.5885
25886SOL    HW178236   7.581  10.006   4.704 -0.1608 -1.2312  0.2378
25886SOL    HW278237   7.499   9.911   4.619 -0.7350  1.6162 -2.5593
25887SOL     OW78238   2.079   1.338   2.252 -0.6577  0.2411  0.0141
25887SOL    HW178239   2.028   1.409   2.291 -0.1017  1.6246 -1.6331
25887SOL    HW278240   2.016   1.266   2.242 -1.2039  0.4339  1.8180
25888SOL     OW78241   4.951   1.983   2.066 -0.2667  0.8219 -0.3373
25888SOL    HW178242   4.976   1.969   1.975 -1.8388  0.5658 -0.7684
25888SOL    HW278243   5.033   2.003   2.111  0.6921 -0.1420 -1.5868
25889SOL     OW78244   8.208   3.477   8.139 -0.2372 -0.3083  0.3968
25889SOL    HW178245   8.216   3.481   8.044 -1.4444 -0.7399  0.2563
25889SOL    HW278246   8.251   3.556   8.171 -0.9108  0.4848 -0.5985
25890SOL     OW78247   6.889   5.928   7.083 -0.7048 -0.3522  0.4197
25890SOL    HW178248   6.803   5.899   7.112 -1.0584 -0.4037 -0.6590
25890SOL    HW278249   6.950   5.877   7.136 -1.3223 -0.3711  1.1358
25891SOL     OW78250   7.942   0.585   0.678 -0.1547 -0.4504  0.4096
25891SOL    HW178251   7.944   0.490   0.694  0.9608 -0.5158 -0.0238
25891SOL    HW278252   7.856   0.612   0.708 -0.2565 -1.5008  1.1223
25892SOL     OW78253   1.804   4.804   3.750 -0.4798 -0.1962 -0.5215
25892SOL    HW178254   1.806   4.780   3.843  0.3705  0.4430 -0.3592
25892SOL    HW278255   1.775   4.725   3.705 -0.2089 -0.7336  0.2298
25893SOL     OW78256   8.546   9.392   1.248 -0.5258 -0.3920 -0.1867
25893SOL    HW178257   8.463   9.347   1.233 -1.3253  0.9985 -0.1388
25893SOL    HW278258   8.556   9.451   1.173  0.9425 -1.2318 -0.7074
25894SOL     OW78259   3.772   3.677   5.672  0.0411 -0.2965 -0.3369
25894SOL    HW178260   3.703   3.646   5.614  0.3916  1.1351 -1.5830
25894SOL    HW278261   3.845   3.618   5.656  0.0407 -0.0858 -1.1715
25895SOL     OW78262   3.204   4.027   9.912  0.3459  0.4424  0.4566
25895SOL    HW178263   3.158   3.987   9.986 -0.0907 -0.4131 -0.2696
25895SOL    HW278264   3.135   4.062   9.857  0.5530 -0.6484 -0.5265
25896SOL     OW78265   3.438   7.723   5.376  0.3182  0.2918  0.5571
25896SOL    HW178266   3.385   7.802   5.386  0.7814  0.9153 -1.4028
25896SOL    HW278267   3.380   7.661   5.332  0.6356  0.3567  0.0320
25897SOL     OW78268   0.489   4.489   7.222  0.7932  0.2751  0.2251
25897SOL    HW178269   0.434   4.421   7.184  1.7172  0.0770 -0.8058
25897SOL    HW278270   0.506   4.549   7.149  1.8482  0.3787  0.5366
25898SOL     OW78271   0.796   8.750   1.746 -0.5357 -0.6953 -0.3889
25898SOL    HW178272   0.868   8.813   1.740  1.2465 -2.6984 -1.1087
25898SOL    HW278273   0.738   8.773   1.673  0.3963 -0.2447 -1.0079
25899SOL     OW78274   6.625   9.369   9.248 -0.3048 -0.4393 -0.5653
25899SOL    HW178275   6.598   9.372   9.156 -1.3185  0.2917 -0.2637
25899SOL    HW278276   6.653   9.459   9.268 -1.2284 -0.2867  0.1430
25900SOL     OW78277   0.047   6.261   2.926  0.2098  0.1138 -0.3070
25900SOL    HW178278   0.138   6.258   2.954 -0.1085 -1.2400  0.6729
25900SOL    HW278279  -0.003   6.234   3.003 -1.2427  3.0865 -0.0250
25901SOL     OW78280   9.646   2.504   6.530 -0.1808  0.0588  0.1297
25901SOL    HW178281   9.647   2.565   6.603 -0.0430  0.5572 -0.2783
25901SOL    HW278282   9.553   2.483   6.518 -0.2198  0.1101  0.3352
25902SOL     OW78283   6.416   7.626   7.067 -0.4291 -1.0314  0.1357
25902SOL    HW178284   6.494   7.571   7.079  1.2362  1.1970  0.2468
25902SOL    HW278285   6.391   7.651   7.156  0.7043  0.7680 -0.0053
25903SOL     OW78286   2.060   6.111   1.515  0.6854 -0.3026  0.5528
25903SOL    HW178287   1.988   6.094   1.455  1.4259  1.6064 -0.9982
25903SOL    HW278288   2.126   6.045   1.493 -0.2142 -1.5596  1.4514
25904SOL     OW78289   3.697   0.776   9.871 -0.8627  0.9197  0.0916
25904SOL    HW178290   3.633   0.720   9.827 -1.1324  1.1759  0.1546
25904SOL    HW278291   3.659   0.864   9.867 -1.9445  0.6633  2.7438
25905SOL     OW78292   2.592   2.943   6.030 -0.2698 -0.2919  0.2780
25905SOL    HW178293   2.638   2.866   6.063  0.4792 -0.6310 -1.4579
25905SOL    HW278294   2.502   2.932   6.062 -0.6992 -2.9254 -1.4320
25906SOL     OW78295   5.979   0.374   6.653 -0.5626  0.4945  0.1427
25906SOL    HW178296   5.997   0.466   6.634  0.8573  0.6058  1.7901
25906SOL    HW278297   6.061   0.341   6.690 -1.0868 -1.4163 -0.2858
25907SOL     OW78298   2.592   2.730   5.406 -0.1442 -0.2620 -0.6992
25907SOL    HW178299   2.573   2.818   5.438  1.1339 -0.6090  1.1840
25907SOL    HW278300   2.683   2.735   5.375 -0.0054 -0.9408 -0.4229
25908SOL     OW78301   0.372   7.523   1.455 -0.0038 -0.3102  0.0328
25908SOL    HW178302   0.347   7.435   1.481  0.4130 -0.1420  1.0536
25908SOL    HW278303   0.339   7.532   1.365 -0.8864 -1.1598  0.2551
25909SOL     OW78304   3.946   3.366   1.585  0.4240 -0.0732 -0.4312
25909SOL    HW178305   3.870   3.395   1.636  0.0463 -1.6274 -0.0552
25909SOL    HW278306   3.943   3.418   1.505 -1.2866 -0.4024 -0.6101
25910SOL     OW78307   1.914   6.393   8.536  0.0725 -0.3313 -0.0547
25910SOL    HW178308   1.838   6.419   8.589  0.6076 -0.4371  0.7883
25910SOL    HW278309   1.896   6.429   8.449 -0.1703  1.0740  0.5513
25911SOL     OW78310   3.113   8.074   9.556  0.3303  0.0425 -0.1339
25911SOL    HW178311   3.077   8.001   9.506  1.5552  0.2604 -1.3841
25911SOL    HW278312   3.065   8.151   9.526  0.4108  0.0351 -0.2817
25912SOL     OW78313   7.730   8.065   5.822  0.5508 -0.0136  0.0412
25912SOL    HW178314   7.666   8.102   5.760  0.4446  0.0667  0.1992
25912SOL    HW278315   7.764   8.141   5.869 -0.0118 -0.1627  0.6961
25913SOL     OW78316   7.236   0.632   6.659  0.1034  0.2577  0.7825
25913SOL    HW178317   7.175   0.609   6.589  0.8437 -0.7670  0.4363
25913SOL    HW278318   7.260   0.548   6.699  3.6004  0.1347 -1.0984
25914SOL     OW78319   5.986   1.083   5.754  0.0577  0.1740  0.2257
25914SOL    HW178320   5.934   1.032   5.692 -1.0234  1.8789 -0.3412
25914SOL    HW278321   6.072   1.041   5.754 -0.5321 -1.0893 -0.8759
25915SOL     OW78322   9.432   3.225   9.617  0.0563 -0.2506 -0.1575
25915SOL    HW178323   9.491   3.297   9.592  0.0857 -0.5051 -0.8321
25915SOL    HW278324   9.458   3.152   9.561 -0.4205 -0.5861  0.0546
25916SOL     OW78325   3.809   6.691   9.727  0.2405  0.5462 -0.2157
25916SOL    HW178326   3.897   6.727   9.736  0.5967 -0.2368 -0.5669
25916SOL    HW278327   3.765   6.750   9.665  0.7886  0.4421 -0.7087
25917SOL     OW78328   2.577   6.675   8.191  0.3653 -0.3759  0.2678
25917SOL    HW178329   2.564   6.685   8.096 -2.8777 -0.4143  0.5708
25917SOL    HW278330   2.655   6.621   8.200  0.2161 -1.1792 -2.4364
25918SOL     OW78331   0.991   5.482   1.461  0.2703 -0.5554  0.2163
25918SOL    HW178332   0.980   5.453   1.370  0.0182  0.0182  0.0634
25918SOL    HW278333   0.940   5.563   1.467  3.1065  1.3956 -0.1142
25919SOL     OW78334   1.822   3.791  10.001 -0.2590 -0.4063 -0.1349
25919SOL    HW178335   1.774   3.873  10.010 -0.3664 -0.3924 -0.8077
25919SOL    HW278336   1.791   3.754   9.918 -0.4709 -1.2976  0.3278
25920SOL     OW78337   4.841   1.917   9.636  0.2533  0.1998 -0.0841
25920SOL    HW178338   4.833   1.829   9.599  0.1705  0.2852 -0.2719
25920SOL    HW278339   4.924   1.950   9.602  0.9455 -0.3064  1.0611
25921SOL     OW78340   1.360   7.634   0.309 -0.3983 -0.0196 -0.7256
25921SOL    HW178341   1.269   7.607   0.304  0.2687 -2.2535 -3.1741
25921SOL    HW278342   1.373   7.689   0.231  0.4757 -0.3123 -0.8024
25922SOL     OW78343   8.040   9.971   9.320  0.1827  0.4370 -0.0248
25922SOL    HW178344   8.089   9.889   9.326 -0.5902 -0.0616 -0.4187
25922SOL    HW278345   7.967   9.951   9.262 -0.4002  1.2130  0.4301
25923SOL     OW78346   2.309   9.648   1.947 -0.2734 -0.4678  0.0610
25923SOL    HW178347   2.296   9.730   1.993 -1.2337 -0.3564 -0.3774
25923SOL    HW278348   2.366   9.670   1.873 -0.5991 -0.1724 -0.1031
25924SOL     OW78349   1.361   0.008   6.943  0.1058  0.5186 -0.5600
25924SOL    HW178350   1.295  -0.047   6.900 -1.2923 -0.3387  2.3790
25924SOL    HW278351   1.379   0.078   6.880 -1.1684 -1.0172 -2.7689
25925SOL     OW78352   4.094   8.765   4.552  0.2783  0.1662 -0.3483
25925SOL    HW178353   4.022   8.805   4.602 -0.1966  0.0325 -0.9125
25925SOL    HW278354   4.157   8.836   4.541  0.2449  0.2850  0.1668
25926SOL     OW78355   9.753   9.729   1.686 -0.3224 -0.2928 -0.0705
25926SOL    HW178356   9.752   9.760   1.596  0.6800 -0.1579 -0.0466
25926SOL    HW278357   9.839   9.689   1.697 -0.1942  0.2401  0.9958
25927SOL     OW78358   1.322   7.381   3.174 -0.3848 -0.1737  0.1797
25927SOL    HW178359   1.383   7.423   3.235 -0.4274 -1.3893  1.0938
25927SOL    HW278360   1.357   7.401   3.087 -0.1710  1.3642  0.5788
25928SOL     OW78361   8.931   1.442   9.858 -0.3503 -0.0647  0.0351
25928SOL    HW178362   8.887   1.420   9.940 -0.6988 -0.3227 -0.2180
25928SOL    HW278363   8.928   1.538   9.855  0.5952 -0.0001  0.8264
25929SOL     OW78364   0.119   0.250   0.624  0.5194 -0.1891  0.3185
25929SOL    HW178365   0.044   0.220   0.573  1.9516 -2.5060 -0.6040
25929SOL    HW278366   0.084   0.318   0.681 -1.3726  1.9753 -3.1205
25930SOL     OW78367   8.427   4.742   9.360 -0.3708  0.1161  0.1000
25930SOL    HW178368   8.390   4.722   9.446  0.4810  0.8557  0.6694
25930SOL    HW278369   8.354   4.733   9.299 -1.6209  1.9506  1.2330
25931SOL     OW78370   2.482   1.646   0.719  0.0145 -0.1689 -0.0953
25931SOL    HW178371   2.498   1.606   0.634  0.1699 -1.8597  0.6978
25931SOL    HW278372   2.549   1.714   0.727  1.0272 -1.0777 -0.6629
25932SOL     OW78373   8.859   0.683   6.050 -0.0091 -0.2296 -0.0982
25932SOL    HW178374   8.888   0.764   6.093  0.5670 -0.6530  0.3362
25932SOL    HW278375   8.777   0.706   6.007 -1.0531  0.0122  1.9348
25933SOL     OW78376   6.088   3.978   8.494  0.2759 -0.2246 -0.3601
25933SOL    HW178377   6.171   4.017   8.521  0.0764 -0.2872  0.3577
25933SOL    HW278378   6.046   4.045   8.441  1.2769 -0.6066 -1.6896
25934SOL     OW78379   9.068   5.234   3.702  0.7021  0.1209  0.5208
25934SOL    HW178380   9.158   5.203   3.709  1.0515  1.1853  0.9220
25934SOL    HW278381   9.062   5.273   3.615  0.9725  1.0728  0.9191
25935SOL     OW78382   4.666   3.055   9.129 -0.2903  0.4018 -0.1148
25935SOL    HW178383   4.613   2.979   9.105 -0.8680  0.6476  0.3846
25935SOL    HW278384   4.639   3.124   9.068 -1.0218  0.7202  0.5564
25936SOL     OW78385   6.155   4.466   4.844 -0.1372  0.6455  1.0458
25936SOL    HW178386   6.094   4.422   4.785  1.3427  1.7285 -1.4448
25936SOL    HW278387   6.224   4.401   4.858 -0.3429  0.4936  1.3744
25937SOL     OW78388   7.421   5.424   0.190 -0.7888  0.1179  0.7079
25937SOL    HW178389   7.480   5.408   0.263 -1.5475 -1.8369  0.9609
25937SOL    HW278390   7.419   5.520   0.181  3.1708  0.3090 -0.0238
25938SOL     OW78391   8.041   2.371   5.381  0.0576 -0.0466  0.3265
25938SOL    HW178392   8.021   2.462   5.359  0.0443 -0.4790 -1.6335
25938SOL    HW278393   8.128   2.373   5.418  0.0910  0.7652  0.2089
25939SOL     OW78394   1.470   0.310   3.704  0.6012 -0.4733  0.2512
25939SOL    HW178395   1.423   0.385   3.739  1.1349 -0.3210  0.6556
25939SOL    HW278396   1.559   0.342   3.689  1.2318 -1.3896  1.7926
25940SOL     OW78397   4.347   1.560   2.532  0.5003 -0.4023 -0.5239
25940SOL    HW178398   4.346   1.544   2.438 -2.0206  1.1831 -0.8522
25940SOL    HW278399   4.285   1.497   2.568 -1.6112  1.5628 -0.5220
25941SOL     OW78400   9.333   3.192   6.379  0.0327 -0.3265  0.5821
25941SOL    HW178401   9.304   3.143   6.302 -0.9007  0.4772  0.3986
25941SOL    HW278402   9.340   3.282   6.349  1.5991 -0.3000  0.9479
25942SOL     OW78403   7.024   4.975   8.477 -0.4219 -0.8455 -0.4186
25942SOL    HW178404   7.111   4.995   8.442 -1.1810  1.2784 -1.2586
25942SOL    HW278405   7.041   4.940   8.565  1.2747 -0.0546 -0.3999
25943SOL     OW78406   2.493   5.502   5.696  0.3892 -0.7027 -0.1880
25943SOL    HW178407   2.545   5.582   5.686  1.1448 -1.2827 -1.0389
25943SOL    HW278408   2.408   5.533   5.727  0.5017  0.4882 -0.9983
25944SOL     OW78409   6.603   6.302   8.395 -0.2421  0.2115 -0.4760
25944SOL    HW178410   6.521   6.270   8.433 -0.7507  1.5709 -0.3826
25944SOL    HW278411   6.583   6.390   8.364  1.3953  0.8961  0.2806
25945SOL     OW78412   3.546   6.237   8.675 -0.2877 -0.0466  0.5614
25945SOL    HW178413   3.495   6.224   8.755  0.8903 -0.0899  1.3214
25945SOL    HW278414   3.603   6.311   8.695  0.1737 -0.1971 -0.1692
25946SOL     OW78415   7.475   8.527   0.728 -0.2256 -0.1167  0.1645
25946SOL    HW178416   7.454   8.617   0.753  0.4199  0.2345 -0.5191
25946SOL    HW278417   7.407   8.504   0.665 -0.6784 -0.2881  0.7102
25947SOL     OW78418   2.683   7.499   0.736 -0.1319  0.1125  0.3212
25947SOL    HW178419   2.631   7.507   0.656 -1.1496  1.2234  1.0639
25947SOL    HW278420   2.690   7.405   0.750 -3.5155 -0.1409  1.1366
25948SOL     OW78421   5.596   5.519   6.092 -0.2449 -0.5284  1.1116
25948SOL    HW178422   5.545   5.567   6.026  1.2719 -0.8802 -0.3822
25948SOL    HW278423   5.638   5.448   6.043  0.8070 -0.9051  2.4976
25949SOL     OW78424   3.582   6.719   6.444 -0.8117 -0.2327 -0.0575
25949SOL    HW178425   3.584   6.741   6.537  0.0188 -1.4985  0.2420
25949SOL    HW278426   3.597   6.625   6.441 -1.0292 -0.2403 -1.4653
25950SOL     OW78427   7.124   9.565   8.906  1.0063  0.8457  1.2876
25950SOL    HW178428   7.032   9.589   8.907  0.1880 -1.7668 -0.7882
25950SOL    HW278429   7.164   9.622   8.973 -1.6451  3.5090  0.8189
25951SOL     OW78430   8.610   5.638   8.124  0.1610  0.0601 -0.6805
25951SOL    HW178431   8.696   5.596   8.119 -0.0711 -0.3217 -1.5768
25951SOL    HW278432   8.613   5.707   8.057  0.3840  1.2171  0.4818
25952SOL     OW78433   9.270   2.646   7.392 -0.1329  0.0073  0.1635
25952SOL    HW178434   9.304   2.608   7.311 -1.5925 -1.0376 -0.0058
25952SOL    HW278435   9.331   2.616   7.459  0.0243 -0.7356 -0.2936
25953SOL     OW78436   8.555   6.153   0.799  0.1189 -0.3166 -0.4328
25953SOL    HW178437   8.514   6.148   0.713 -2.1554  1.7353  0.4207
25953SOL    HW278438   8.617   6.225   0.792 -1.2902  0.9886  0.0401
25954SOL     OW78439   3.042   4.898   9.108 -0.7400  0.7060 -0.3067
25954SOL    HW178440   3.007   4.864   9.191  0.8784 -1.0761 -0.2852
25954SOL    HW278441   3.082   4.981   9.132 -3.2643  1.9264 -0.0137
25955SOL     OW78442   2.769   9.120   3.540  0.0705  0.2069 -0.2417
25955SOL    HW178443   2.769   9.032   3.502 -1.6285 -0.9551  2.1361
25955SOL    HW278444   2.837   9.118   3.608 -0.3121  0.5246  0.1647
25956SOL     OW78445   9.552   2.787   5.986 -0.1803 -0.0783 -0.2030
25956SOL    HW178446   9.640   2.802   6.021 -0.1030  1.9169 -1.0998
25956SOL    HW278447   9.507   2.871   5.999 -1.2577 -0.3983 -1.6873
25957SOL     OW78448   4.223   3.411   1.068 -0.0402 -0.4678  0.4520
25957SOL    HW178449   4.189   3.475   1.005  1.5763 -1.1503 -1.2038
25957SOL    HW278450   4.252   3.465   1.142  0.1606  0.6132 -0.3787
25958SOL     OW78451   2.417   7.693   3.280 -0.4244  0.0035 -0.3085
25958SOL    HW178452   2.444   7.780   3.307 -2.0761  0.5356 -0.2211
25958SOL    HW278453   2.495   7.639   3.288  0.4067  1.2854  0.4816
25959SOL     OW78454   8.705   2.288   7.834 -0.3581  0.5555  0.1185
25959SOL    HW178455   8.703   2.357   7.901  2.9668  0.3939  0.5663
25959SOL    HW278456   8.755   2.217   7.874 -2.1620 -1.4456 -0.9926
25960SOL     OW78457   9.278   5.685   4.123 -0.3988  0.2128 -0.4211
25960SOL    HW178458   9.276   5.737   4.043  3.5686  1.2657 -0.0246
25960SOL    HW278459   9.311   5.599   4.095 -1.3929 -0.2568 -0.2135
25961SOL     OW78460   0.002   7.494   8.021  0.2969  0.1041  0.0743
25961SOL    HW178461   0.024   7.557   8.089  1.2233 -0.9338  0.7768
25961SOL    HW278462   0.069   7.505   7.954 -0.6188  1.1307 -0.7128
25962SOL     OW78463   9.888   3.522   4.820  0.2500  0.5628 -0.1842
25962SOL    HW178464   9.860   3.482   4.738  0.2703  0.8704 -0.3419
25962SOL    HW278465   9.901   3.614   4.798 -2.0441  1.1737  0.7039
25963SOL     OW78466   8.563   8.256   6.904 -0.4038 -0.5562  0.4580
25963SOL    HW178467   8.514   8.175   6.916 -0.7107 -0.1406  2.2843
25963SOL    HW278468   8.496   8.323   6.888 -0.1113 -0.7410 -1.9464
25964SOL     OW78469   3.027   5.287   5.274  0.1879  0.2445 -0.0696
25964SOL    HW178470   3.110   5.331   5.289  1.0705 -1.3415 -0.0063
25964SOL    HW278471   3.012   5.294   5.179  1.5470 -1.2872 -0.4537
25965SOL     OW78472   2.530   8.106   8.733 -1.2001 -0.1646 -0.1186
25965SOL    HW178473   2.514   8.187   8.684 -0.1953 -0.5408 -1.1226
25965SOL    HW278474   2.625   8.100   8.739 -1.2796 -0.9252  0.5449
25966SOL     OW78475   7.432   9.905   2.872 -0.0548  0.5312 -0.3251
25966SOL    HW178476   7.391   9.840   2.929 -1.0753  1.5110  0.1047
25966SOL    HW278477   7.470   9.969   2.932  1.1836  0.2066 -0.7393
25967SOL     OW78478   0.478   8.622   8.863 -0.3451  0.2947  0.0457
25967SOL    HW178479   0.458   8.715   8.864 -2.2632 -0.0134 -2.0163
25967SOL    HW278480   0.552   8.614   8.802  0.7642  0.5529  1.2995
25968SOL     OW78481   1.053   7.671  -0.004 -0.6973 -0.2943  0.0584
25968SOL    HW178482   1.099   7.742   0.040  1.8558 -1.8754  0.1195
25968SOL    HW278483   0.991   7.638   0.061 -0.2945  0.4081  0.8118
25969SOL     OW78484   9.043   8.062   5.532 -0.0905  0.2679  0.2478
25969SOL    HW178485   9.012   8.012   5.456  3.4846  0.1849 -1.3876
25969SOL    HW278486   9.017   8.152   5.514 -1.7487 -0.1565  0.4091
25970SOL     OW78487   8.490   4.895   3.147 -0.5508 -0.4531 -0.4199
25970SOL    HW178488   8.538   4.910   3.228 -0.9128  0.8575 -0.4145
25970SOL    HW278489   8.556   4.867   3.083 -0.2101 -1.1413  0.2266
25971SOL     OW78490   0.860   1.114   1.939  0.0705  0.4662  0.6189
25971SOL    HW178491   0.844   1.045   1.874 -2.8542  0.5435  1.1514
25971SOL    HW278492   0.904   1.070   2.011  1.6079 -0.0162 -0.5584
25972SOL     OW78493   9.833   4.088   8.328 -0.2995 -0.1033  0.3498
25972SOL    HW178494   9.911   4.045   8.364 -1.0594  0.2317  2.5424
25972SOL    HW278495   9.851   4.095   8.234  1.6316 -1.4138  0.5615
25973SOL     OW78496   2.071   1.165   5.117 -0.3707  0.0481  0.1141
25973SOL    HW178497   2.016   1.217   5.174 -1.9922 -0.6423 -0.7679
25973SOL    HW278498   2.096   1.224   5.046 -1.3807 -0.0787 -0.3616
25974SOL     OW78499   4.300   4.450   5.740 -0.0467 -0.0708 -0.2969
25974SOL    HW178500   4.341   4.486   5.662  0.1584  1.1144  0.3242
25974SOL    HW278501   4.364   4.465   5.810 -0.3729 -0.7810  0.1649
25975SOL     OW78502   8.216   0.715   5.627  0.1972  0.6309  0.6520
25975SOL    HW178503   8.141   0.698   5.569 -0.4745  1.5733  1.1969
25975SOL    HW278504   8.267   0.782   5.581  1.9332 -1.5261 -0.7272
25976SOL     OW78505   9.450   2.921   6.239 -0.0226  0.4159 -0.6999
25976SOL    HW178506   9.535   2.883   6.259  0.3036  1.5247  0.0950
25976SOL    HW278507   9.391   2.846   6.230  0.5623 -0.2970  1.0142
25977SOL     OW78508   3.458   2.247   7.598  0.5103 -0.7930 -0.4978
25977SOL    HW178509   3.504   2.175   7.643  1.4750 -1.3226 -2.2209
25977SOL    HW278510   3.392   2.276   7.660  1.2672 -2.0009  0.9382
25978SOL     OW78511   8.164   6.140   2.910  0.6174  0.5587  0.0157
25978SOL    HW178512   8.074   6.146   2.942  0.3383 -0.8668 -0.4521
25978SOL    HW278513   8.216   6.181   2.979 -0.5728  4.0937 -0.9657
25979SOL     OW78514   2.564   8.307   1.972 -0.4512  0.2451 -0.2197
25979SOL    HW178515   2.602   8.394   1.987 -0.6993  0.4619 -0.8196
25979SOL    HW278516   2.605   8.277   1.891 -2.2273  0.8917 -1.4301
25980SOL     OW78517   1.592   4.824   1.219 -0.3591  0.0719 -0.6305
25980SOL    HW178518   1.559   4.738   1.245 -1.4617  0.8273  0.5918
25980SOL    HW278519   1.687   4.811   1.209 -0.4848 -1.2424 -0.2923
25981SOL     OW78520   6.929   2.063   7.027 -0.1650 -0.0609  0.1147
25981SOL    HW178521   6.863   2.003   7.061  0.6729 -0.0244  1.9239
25981SOL    HW278522   7.007   2.009   7.014 -0.3337  0.0208 -1.3992
25982SOL     OW78523   9.110   3.398   0.665  0.3804 -0.2735  0.3280
25982SOL    HW178524   9.060   3.403   0.747 -0.5024 -0.6677 -0.1708
25982SOL    HW278525   9.197   3.429   0.689  0.5815 -1.7770  1.7631
25983SOL     OW78526   8.702   2.499   8.049  0.2773 -0.4686 -0.0688
25983SOL    HW178527   8.675   2.432   8.112 -1.2855 -0.1179 -0.3237
25983SOL    HW278528   8.745   2.565   8.102 -1.2604 -0.0479  0.7074
25984SOL     OW78529   9.960   0.276   8.187 -0.6558  0.0016  0.1660
25984SOL    HW178530   9.913   0.253   8.267 -1.0792 -1.0406 -0.3564
25984SOL    HW278531   9.916   0.225   8.119 -0.9836  1.6500 -0.9141
25985SOL     OW78532   7.528   0.694   8.343 -0.1494 -0.1523 -0.3897
25985SOL    HW178533   7.518   0.726   8.253 -1.5386  0.9364  0.1128
25985SOL    HW278534   7.440   0.697   8.379  0.5940  0.8882  1.4711
25986SOL     OW78535   9.691   5.648   8.192  0.3252  0.4996  0.8635
25986SOL    HW178536   9.663   5.655   8.283 -1.3576 -0.5149  0.4720
25986SOL    HW278537   9.663   5.561   8.165 -1.2759  1.5773 -1.2499
25987SOL     OW78538   2.729   0.731   2.854  0.1192  0.3609  0.2976
25987SOL    HW178539   2.748   0.731   2.948  0.1946  0.4232  0.2821
25987SOL    HW278540   2.757   0.644   2.824  1.6005  0.9093  0.0248
25988SOL     OW78541   8.319   2.041   8.351 -0.0273  0.0368  0.0771
25988SOL    HW178542   8.333   2.004   8.263 -0.6373 -0.5440  0.2122
25988SOL    HW278543   8.305   1.964   8.407  0.5260  0.3950  0.7198
25989SOL     OW78544   2.827   5.863   8.695 -0.6034  0.3114 -0.7047
25989SOL    HW178545   2.886   5.938   8.695 -0.5578  0.2754 -0.7284
25989SOL    HW278546   2.877   5.793   8.738  0.4233 -0.5209 -3.0575
25990SOL     OW78547   6.759   5.546   5.906  0.1288  0.1552  0.1366
25990SOL    HW178548   6.688   5.484   5.889  0.4848  0.3770 -2.5386
25990SOL    HW278549   6.714   5.627   5.928 -0.4117 -0.1682  0.2437
25991SOL     OW78550   5.607   7.087   7.010  0.4247  0.3723 -0.0974
25991SOL    HW178551   5.665   7.146   6.961  0.6727  0.0997 -0.1359
25991SOL    HW278552   5.573   7.026   6.945  1.9217 -0.9364  0.2805
25992SOL     OW78553   2.596   7.238   9.093 -0.3287 -0.3200 -0.0105
25992SOL    HW178554   2.621   7.247   9.185  0.4911 -1.6511 -0.0772
25992SOL    HW278555   2.679   7.248   9.045 -0.6043 -0.5750 -0.5466
25993SOL     OW78556   4.977   7.436   9.428  0.0270 -0.1822  0.1216
25993SOL    HW178557   5.040   7.506   9.449 -1.5824  1.6336 -0.8190
25993SOL    HW278558   4.997   7.414   9.337  0.0329 -0.4170  0.1803
25994SOL     OW78559   6.430   0.953   5.552  0.0614  0.6748  0.5927
25994SOL    HW178560   6.431   1.036   5.503  0.8712 -0.8895 -2.2445
25994SOL    HW278561   6.405   0.887   5.488 -1.4061 -1.2722  2.9527
25995SOL     OW78562   7.282   6.028   5.610  0.2758 -0.6702  0.0765
25995SOL    HW178563   7.225   6.066   5.543  1.9786 -1.0524 -1.6735
25995SOL    HW278564   7.224   6.016   5.686 -1.6457  0.1293 -1.1665
25996SOL     OW78565   3.669   0.149   7.351 -0.3628 -0.3254 -0.4043
25996SOL    HW178566   3.681   0.217   7.284  0.0294 -0.1903 -0.2026
25996SOL    HW278567   3.635   0.197   7.427  0.2477 -0.2884 -0.1459
25997SOL     OW78568   3.031   3.522   7.033 -0.0977 -0.1694  0.0159
25997SOL    HW178569   3.053   3.434   7.064 -1.5457 -0.2297  0.9926
25997SOL    HW278570   3.114   3.569   7.034  0.9391 -1.8149 -1.6603
25998SOL     OW78571   0.768   5.389   8.533 -0.2226  0.3016  0.1376
25998SOL    HW178572   0.834   5.321   8.548 -2.4309 -2.3218 -1.1804
25998SOL    HW278573   0.819   5.469   8.522  2.4588 -0.7276  3.3016
25999SOL     OW78574   5.727   1.532   7.245  0.5355  0.3875  0.4742
25999SOL    HW178575   5.692   1.442   7.244 -1.3028  1.0487  1.1693
25999SOL    HW278576   5.703   1.565   7.332  2.9126  0.9379  0.9675
26000SOL     OW78577   0.859   2.282   8.784  0.4866 -0.2274  0.3898
26000SOL    HW178578   0.836   2.266   8.692 -2.3561 -2.4148  1.3481
26000SOL    HW278579   0.840   2.375   8.797 -1.5214 -0.4274 -0.6700
26001SOL     OW78580   1.370   7.500   6.393 -0.7197 -0.1943  0.3322
26001SOL    HW178581   1.324   7.582   6.409 -0.9008 -0.3253  0.5035
26001SOL    HW278582   1.462   7.521   6.404 -0.8315 -0.2897  1.6758
26002SOL     OW78583   3.320   6.040   8.566 -0.1520  0.4662 -0.6121
26002SOL    HW178584   3.367   5.970   8.611 -0.9090  0.6988  0.5774
26002SOL    HW278585   3.342   6.119   8.615 -2.6383  0.4175  0.7138
26003SOL     OW78586   9.758   2.623   9.885 -0.1959  0.0595 -0.0437
26003SOL    HW178587   9.751   2.564   9.960 -2.4625 -1.1097 -1.0577
26003SOL    HW278588   9.728   2.570   9.811  0.7263  1.5712 -1.5420
26004SOL     OW78589   6.674   8.748   9.589  0.2699 -0.0165  0.5093
26004SOL    HW178590   6.694   8.666   9.545  0.4263  0.4634 -0.3320
26004SOL    HW278591   6.756   8.798   9.587  0.2028  0.1337  1.0941
26005SOL     OW78592   5.539   6.970   7.273 -0.3717 -0.6723  0.4026
26005SOL    HW178593   5.450   7.004   7.283 -0.8971 -0.6447 -3.1199
26005SOL    HW278594   5.566   6.998   7.186  3.4438 -0.0890  1.5956
26006SOL     OW78595   9.407   3.995   7.206 -0.2001 -0.1224  0.0250
26006SOL    HW178596   9.471   4.046   7.256  2.0679 -0.1555 -2.6170
26006SOL    HW278597   9.389   4.048   7.128  0.0548 -2.0820 -1.4372
26007SOL     OW78598   2.784   4.509   7.950 -0.6221 -0.1408 -0.5263
26007SOL    HW178599   2.850   4.565   7.909  0.6308 -0.6548  0.7125
26007SOL    HW278600   2.717   4.570   7.980 -0.0995  0.5328 -0.6832
26008SOL     OW78601   6.947   1.548   1.341 -0.3255 -0.0425  0.3211
26008SOL    HW178602   6.959   1.490   1.265 -0.2070 -0.8028  0.9041
26008SOL    HW278603   6.880   1.610   1.313  0.4900  0.3831 -0.7915
26009SOL     OW78604   5.953   9.189   6.223 -0.1867 -0.5107  0.5970
26009SOL    HW178605   5.958   9.094   6.212  1.5544 -0.3154 -0.9884
26009SOL    HW278606   5.860   9.210   6.217 -0.4594 -1.9532 -1.1545
26010SOL     OW78607   0.154   3.189   5.341 -0.5287  0.2892  0.0169
26010SOL    HW178608   0.215   3.256   5.372 -1.3113  0.2666  1.7209
26010SOL    HW278609   0.074   3.205   5.392 -1.5265 -0.4591 -1.2682
26011SOL     OW78610   3.526   9.972   3.917 -0.0026 -0.9456 -0.1480
26011SOL    HW178611   3.513   9.877   3.908 -1.4831 -0.9823  1.7461
26011SOL    HW278612   3.555  10.001   3.831  0.6665 -3.1387 -0.7233
26012SOL     OW78613   8.829   8.802   6.547 -0.0148 -0.0083 -0.3716
26012SOL    HW178614   8.896   8.741   6.516  0.7720  1.6321 -2.1341
26012SOL    HW278615   8.805   8.851   6.468 -1.1839  1.4069  0.8291
26013SOL     OW78616   3.826   6.379   4.919  0.0524  0.0726 -0.0723
26013SOL    HW178617   3.735   6.390   4.889 -0.1030  0.0419  0.3823
26013SOL    HW278618   3.827   6.293   4.961  0.0933  0.4095  0.6359
26014SOL     OW78619   1.167   9.949   2.658  0.2430  0.4478  0.0977
26014SOL    HW178620   1.159   9.904   2.742 -1.3252  0.5820  0.0668
26014SOL    HW278621   1.182   9.879   2.595 -0.2620  0.1484  0.2956
26015SOL     OW78622   1.426   6.525   0.565  0.0629  0.0965 -0.2508
26015SOL    HW178623   1.369   6.526   0.641  0.2460 -1.9870 -0.0157
26015SOL    HW278624   1.503   6.575   0.591 -1.2950  2.3802 -0.3475
26016SOL     OW78625   0.890   7.465   7.676 -0.1348 -0.4100  0.3216
26016SOL    HW178626   0.936   7.429   7.752  0.2845 -0.6244 -0.0322
26016SOL    HW278627   0.918   7.410   7.603 -1.6352 -1.1149  0.2444
26017SOL     OW78628   4.586   8.810   1.533 -0.4623  0.7856 -0.0059
26017SOL    HW178629   4.641   8.769   1.465 -1.2033 -1.0335  0.4203
26017SOL    HW278630   4.648   8.846   1.596  0.2374  0.9702 -0.7872
26018SOL     OW78631   2.056   3.371   5.221  0.6916  0.8997  0.2584
26018SOL    HW178632   1.988   3.316   5.260  1.3861 -0.4089 -0.2985
26018SOL    HW278633   2.061   3.447   5.278  0.2253  0.0241  1.5077
26019SOL     OW78634   5.670   2.057   7.583  0.2217 -0.0313  0.0873
26019SOL    HW178635   5.678   1.977   7.532  0.8939 -0.4225  0.7925
26019SOL    HW278636   5.760   2.086   7.597  0.0531  0.0545  1.0620
26020SOL     OW78637   0.539   7.245   7.723  0.0012  0.1678 -0.1656
26020SOL    HW178638   0.619   7.234   7.671  1.3270  1.8604  1.3507
26020SOL    HW278639   0.484   7.303   7.670  0.2825 -0.0570 -0.7119
26021SOL     OW78640   5.527   9.934   3.829  0.2591  0.3516 -0.9874
26021SOL    HW178641   5.471   9.947   3.752 -0.8997 -0.4729 -0.3172
26021SOL    HW278642   5.465   9.925   3.902  1.2701 -0.4781 -0.2082
26022SOL     OW78643   1.733   6.744   5.891 -0.3641 -0.6751  0.6327
26022SOL    HW178644   1.701   6.834   5.888 -0.6941 -0.8038  0.0566
26022SOL    HW278645   1.790   6.736   5.814 -0.3088 -0.9512  0.6994
26023SOL     OW78646   6.480   6.115   8.024  0.3576  0.0336 -0.0999
26023SOL    HW178647   6.484   6.060   7.946  0.5335  0.4145 -0.3604
26023SOL    HW278648   6.561   6.166   8.022 -0.6841  1.7264 -0.9258
26024SOL     OW78649   0.884   6.291   6.849 -0.1849  0.4066  0.0613
26024SOL    HW178650   0.940   6.361   6.816  1.5144  0.0178  1.9506
26024SOL    HW278651   0.943   6.233   6.896 -1.5350 -2.3040 -1.3353
26025SOL     OW78652   6.443   1.479   6.820 -0.3432  0.3063  0.5576
26025SOL    HW178653   6.479   1.393   6.840 -1.1924 -0.1227  0.3110
26025SOL    HW278654   6.355   1.477   6.858 -1.6271 -0.1374 -2.1601
26026SOL     OW78655   7.975   1.217   4.175 -0.1420  0.2706  0.7605
26026SOL    HW178656   8.050   1.261   4.133 -0.6405 -0.0583 -0.5356
26026SOL    HW278657   8.005   1.128   4.191 -0.3050  0.0810  0.0535
26027SOL     OW78658   1.032   1.119   0.903  0.4027  0.7729 -0.5648
26027SOL    HW178659   1.084   1.050   0.862 -0.8913 -0.4076 -0.2997
26027SOL    HW278660   1.075   1.133   0.988  0.0404 -0.5595 -0.1255
26028SOL     OW78661   7.430   2.508   1.879 -0.3835  0.0829  0.1763
26028SOL    HW178662   7.398   2.509   1.789 -0.3988  1.6005  0.1733
26028SOL    HW278663   7.516   2.467   1.874 -0.6891 -0.5030 -0.4053
26029SOL     OW78664   5.333   2.153   9.832  0.3318  0.0259 -0.0243
26029SOL    HW178665   5.325   2.061   9.854 -0.5878 -0.3715 -1.8221
26029SOL    HW278666   5.376   2.154   9.746  0.1944  1.2588 -0.1057
26030SOL     OW78667   5.318   1.514   3.399  0.0847 -0.2482  0.1252
26030SOL    HW178668   5.224   1.520   3.414  0.0658  0.9228 -0.3449
26030SOL    HW278669   5.350   1.457   3.469 -0.9770 -0.7146  0.2483
26031SOL     OW78670   3.575   8.771   0.516  0.0626 -0.7173 -0.2271
26031SOL    HW178671   3.557   8.824   0.593  1.9377 -0.9543  0.4378
26031SOL    HW278672   3.489   8.744   0.484 -0.8314  0.9630  0.6492
26032SOL     OW78673   3.553   1.184   7.661 -0.2204 -0.5640  0.6316
26032SOL    HW178674   3.462   1.177   7.688  0.0640 -0.2689  1.7180
26032SOL    HW278675   3.562   1.122   7.589 -0.6680 -2.5408  2.1751
26033SOL     OW78676   3.716   1.552   9.524 -0.0554 -0.4233  0.0503
26033SOL    HW178677   3.721   1.461   9.552 -1.5895  0.3687  3.2990
26033SOL    HW278678   3.771   1.600   9.587 -0.6582  1.0972 -0.5219
26034SOL     OW78679   5.072   8.867   8.073 -0.3925  0.0011  0.5837
26034SOL    HW178680   5.028   8.814   8.007 -0.2077  0.3122  0.2110
26034SOL    HW278681   5.129   8.805   8.119  0.4790  0.0399 -0.4283
26035SOL     OW78682   9.392   1.288   1.652  0.0554 -0.1188 -0.0273
26035SOL    HW178683   9.321   1.255   1.707  0.3795  0.4252  0.7311
26035SOL    HW278684   9.376   1.383   1.646 -0.2462 -0.2266 -1.2789
26036SOL     OW78685   9.956   5.647   0.493  0.0813 -0.5886  0.0416
26036SOL    HW178686   9.867   5.644   0.527 -0.1481  0.9792 -0.3522
26036SOL    HW278687  10.009   5.680   0.566 -0.0363  0.5583 -0.3711
26037SOL     OW78688   5.372   5.810   3.171  0.8642  0.2665 -0.1047
26037SOL    HW178689   5.404   5.720   3.167 -0.7217 -0.2827 -1.1644
26037SOL    HW278690   5.404   5.851   3.091  0.6577  0.3162 -0.1624
26038SOL     OW78691   8.438   7.130   8.360  0.0979 -0.6214 -0.6168
26038SOL    HW178692   8.516   7.089   8.395 -0.5779 -2.4294 -1.1533
26038SOL    HW278693   8.467   7.175   8.280  1.0413  0.9353  0.5448
26039SOL     OW78694   6.985   1.053   8.727  0.2855  0.1194 -0.3222
26039SOL    HW178695   7.017   1.115   8.793 -0.4076 -2.3646  2.5580
26039SOL    HW278696   7.064   1.013   8.691  0.6541  1.2271 -0.7977
26040SOL     OW78697   2.949   1.561   7.673  0.1630 -0.0040 -0.5342
26040SOL    HW178698   2.929   1.631   7.612  2.7722 -0.9841 -2.7090
26040SOL    HW278699   2.981   1.489   7.618 -1.1966 -2.4939  1.6823
26041SOL     OW78700   2.536   5.366   3.877  0.1080 -0.7952 -0.0366
26041SOL    HW178701   2.500   5.367   3.788  0.5330  0.1648 -0.2151
26041SOL    HW278702   2.465   5.401   3.932  0.2404 -0.3072 -0.1708
26042SOL     OW78703   8.576   9.379   3.429  0.1738 -0.0075 -0.0246
26042SOL    HW178704   8.570   9.307   3.491 -1.2242  0.2129  0.1475
26042SOL    HW278705   8.530   9.347   3.351  0.4666  0.3119 -0.3328
26043SOL     OW78706   0.978   0.610   9.627 -0.3732 -0.1857 -0.6883
26043SOL    HW178707   1.006   0.701   9.615  0.4805 -0.3828 -0.2026
26043SOL    HW278708   0.884   0.612   9.607 -0.0260  0.4664 -2.4189
26044SOL     OW78709   2.921   9.886   6.583  1.0537  0.1618  0.0586
26044SOL    HW178710   2.946   9.889   6.675 -0.7567  0.6004  0.5692
26044SOL    HW278711   2.866   9.808   6.575  1.3375  0.0289 -0.7029
26045SOL     OW78712   5.308   0.234   9.896 -0.0781  0.8071 -0.0090
26045SOL    HW178713   5.255   0.310   9.872  0.3607  0.9249 -0.6294
26045SOL    HW278714   5.290   0.170   9.827  1.6080  1.3435 -0.9936
26046SOL     OW78715   4.882   4.005   8.917  0.0801  0.2926 -0.3596
26046SOL    HW178716   4.918   4.072   8.976 -1.1790  2.0844 -1.5162
26046SOL    HW278717   4.883   4.047   8.831  0.1366 -1.5698 -1.3148
26047SOL     OW78718   4.742   6.807   6.820 -0.5596  0.3744 -0.2143
26047SOL    HW178719   4.762   6.723   6.777 -1.5525 -0.5517  1.0412
26047SOL    HW278720   4.744   6.871   6.749 -0.9454 -0.9071 -1.4348
26048SOL     OW78721   5.938   0.699   0.958  0.8296 -0.5421 -0.2508
26048SOL    HW178722   6.023   0.697   0.915  1.1874 -0.4442  0.4479
26048SOL    HW278723   5.883   0.642   0.905  1.7427 -1.8504  0.1578
26049SOL     OW78724   4.880   5.354   4.660 -0.4404  0.3362  0.1190
26049SOL    HW178725   4.829   5.285   4.703  0.2591  0.2360  0.8018
26049SOL    HW278726   4.838   5.365   4.574  0.1969 -1.8623 -0.5419
26050SOL     OW78727   7.365   7.058   6.977  0.3226  0.0311 -0.2206
26050SOL    HW178728   7.385   6.978   6.928 -0.0689  0.5591 -1.2702
26050SOL    HW278729   7.271   7.050   6.996  0.5467 -0.3373  0.7686
26051SOL     OW78730   3.847   1.012   8.143 -0.0350  0.2149  0.4230
26051SOL    HW178731   3.914   0.961   8.189 -0.1296  0.5480  0.9360
26051SOL    HW278732   3.897   1.066   8.082  0.2017  0.6745  1.0069
26052SOL     OW78733   5.393   8.181   4.475 -0.5753 -0.9102 -0.2367
26052SOL    HW178734   5.325   8.249   4.477 -1.9242 -1.9829 -3.1868
26052SOL    HW278735   5.347   8.101   4.498 -0.1398 -1.5045 -1.3627
26053SOL     OW78736   5.442   1.040   5.257  0.2914  0.0678  1.0294
26053SOL    HW178737   5.479   0.969   5.204  0.6772 -0.8817  2.5125
26053SOL    HW278738   5.348   1.035   5.240  0.1194 -1.8099  2.2236
26054SOL     OW78739   6.553   2.773   9.092  0.1154 -0.1874  0.2255
26054SOL    HW178740   6.521   2.832   9.024  0.6830  3.0002  2.4950
26054SOL    HW278741   6.639   2.744   9.061  0.5064  1.4688 -0.3297
26055SOL     OW78742   4.237   1.068   3.458 -0.0447  0.2066  1.0363
26055SOL    HW178743   4.239   1.022   3.541 -0.6472  0.1397  1.0219
26055SOL    HW278744   4.175   1.018   3.404 -0.0721  0.5546  0.7377
26056SOL     OW78745   6.988   9.240   3.052 -0.0157 -0.0857 -0.2238
26056SOL    HW178746   6.921   9.207   3.112 -0.7915  3.3917  1.0188
26056SOL    HW278747   6.989   9.176   2.981 -1.9559 -2.2262  1.5038
26057SOL     OW78748   0.876   6.526   0.819  0.2783  0.2345  0.0458
26057SOL    HW178749   0.790   6.522   0.862  0.1472 -0.8902 -0.2849
26057SOL    HW278750   0.881   6.445   0.768  1.2817  0.5846 -0.4347
26058SOL     OW78751   7.838   9.743   9.887 -0.8062 -0.7615 -0.2140
26058SOL    HW178752   7.867   9.742   9.796 -1.5995 -1.0462 -0.4715
26058SOL    HW278753   7.915   9.773   9.936 -0.4341 -0.3983 -0.9932
26059SOL     OW78754   0.858   8.170   2.418  0.1653 -0.0855  0.1617
26059SOL    HW178755   0.788   8.171   2.484  1.0221  3.1540  1.1825
26059SOL    HW278756   0.843   8.249   2.366  1.5295 -0.7771 -1.3827
26060SOL     OW78757   1.834   0.748   6.210  0.0434 -0.2471 -0.3280
26060SOL    HW178758   1.802   0.764   6.121 -2.4813 -0.1889  0.4990
26060SOL    HW278759   1.848   0.835   6.246 -1.1776 -0.1684  0.0214
26061SOL     OW78760   1.634   8.439   6.369 -0.6027 -0.2509  0.7202
26061SOL    HW178761   1.631   8.509   6.304 -3.1375  0.1860  1.1933
26061SOL    HW278762   1.712   8.458   6.421 -0.3104  1.2485 -0.2052
26062SOL     OW78763   4.859   7.002   2.155  0.4364 -0.2855 -0.1561
26062SOL    HW178764   4.797   6.967   2.092  0.0477 -1.1746  0.7061
26062SOL    HW278765   4.904   6.925   2.190  0.4214  0.1613  0.8771
26063SOL     OW78766   4.056   3.258   2.266 -0.8535 -0.1072 -0.8218
26063SOL    HW178767   4.129   3.220   2.315 -0.1955  0.4208 -1.3735
26063SOL    HW278768   4.032   3.191   2.202  0.4081  0.4294 -1.8985
26064SOL     OW78769   6.939   0.806   8.405 -0.0815  0.2776  0.5037
26064SOL    HW178770   6.893   0.879   8.448 -1.2001  0.9030 -1.6509
26064SOL    HW278771   6.884   0.730   8.422 -0.4505  0.4968  0.3059
26065SOL     OW78772   8.980   9.356   8.071 -0.1752 -0.1157  0.3139
26065SOL    HW178773   8.923   9.431   8.053  0.3535  0.2385  0.0918
26065SOL    HW278774   9.037   9.351   7.994  0.9309  0.3078  1.0911
26066SOL     OW78775   5.626   2.210   5.820 -0.1031  0.1408 -0.2753
26066SOL    HW178776   5.689   2.155   5.866 -1.7948 -0.6997  1.1417
26066SOL    HW278777   5.678   2.282   5.784  1.8877 -1.4076 -0.6251
26067SOL     OW78778   3.274   0.496   2.576  0.3657  0.0540 -0.5552
26067SOL    HW178779   3.301   0.433   2.509 -0.9178  1.1616 -2.1980
26067SOL    HW278780   3.276   0.581   2.532 -0.5834  0.8206  0.7986
26068SOL     OW78781   8.081   4.913   1.694 -0.0495  0.2141  0.0375
26068SOL    HW178782   8.023   4.850   1.738  0.5031  0.1172  0.6499
26068SOL    HW278783   8.169   4.876   1.706  0.1451  0.3833 -0.8362
26069SOL     OW78784   1.205   5.342   2.705  0.1040 -0.3820 -0.4988
26069SOL    HW178785   1.301   5.336   2.709 -0.0173 -2.4683  0.8346
26069SOL    HW278786   1.181   5.288   2.630 -0.0488 -0.3555 -0.4691
26070SOL     OW78787   7.422   1.456   9.369 -0.4736  0.3219 -0.6918
26070SOL    HW178788   7.327   1.459   9.367 -0.4284  2.0943 -1.5526
26070SOL    HW278789   7.449   1.547   9.379  1.1557 -0.0484 -1.4214
26071SOL     OW78790   5.882   9.925   1.409 -0.1693  0.2899 -0.0542
26071SOL    HW178791   5.794   9.935   1.445 -0.4800  1.0949 -0.9715
26071SOL    HW278792   5.867   9.902   1.317  0.5689 -3.5996  0.6140
26072SOL     OW78793   0.312   4.091   6.343  0.3626  0.0010  0.1235
26072SOL    HW178794   0.285   4.148   6.415  0.6268 -0.5219  0.6466
26072SOL    HW278795   0.298   4.002   6.376  2.4300 -0.3004  0.3189
26073SOL     OW78796   7.791   7.686   0.845 -0.0679  0.1386 -0.1580
26073SOL    HW178797   7.824   7.724   0.926 -0.4517 -0.2515  0.1889
26073SOL    HW278798   7.868   7.672   0.791  0.3574 -0.9465  0.7139
26074SOL     OW78799   6.985   9.849   5.537 -0.3406  0.2255 -0.2494
26074SOL    HW178800   6.992   9.871   5.444  1.3926  1.4529  0.1240
26074SOL    HW278801   6.987   9.753   5.539  0.8625  0.1917 -1.4254
26075SOL     OW78802   4.492   1.254   9.791  0.0841  0.0562  0.4960
26075SOL    HW178803   4.516   1.324   9.731 -0.7668  1.5975  1.8690
26075SOL    HW278804   4.452   1.187   9.736  0.4193  0.8816 -0.7840
26076SOL     OW78805   2.507   6.229   4.158  0.0710  1.4138 -0.8572
26076SOL    HW178806   2.484   6.136   4.152  1.4287  0.9621  0.2671
26076SOL    HW278807   2.541   6.250   4.072  3.6512 -0.3275 -0.0561
26077SOL     OW78808   5.496   1.913   5.265  0.3971  0.1607 -0.4665
26077SOL    HW178809   5.470   1.839   5.320 -1.4273  0.7233 -0.4890
26077SOL    HW278810   5.517   1.983   5.328  2.7236 -0.4967 -0.4264
26078SOL     OW78811   8.998   5.237   3.137  0.5238 -0.1287  0.6110
26078SOL    HW178812   9.030   5.205   3.052  0.7018 -2.1417  1.3868
26078SOL    HW278813   9.050   5.316   3.153 -1.2655  1.8054 -2.2672
26079SOL     OW78814   1.658   4.851   7.342  0.6265  0.8372 -0.5442
26079SOL    HW178815   1.702   4.908   7.404 -0.1818  0.2565  0.5982
26079SOL    HW278816   1.581   4.901   7.315 -0.4702  0.0701  1.0011
26080SOL     OW78817   9.423   6.973   8.373  0.2337 -0.2129 -0.2288
26080SOL    HW178818   9.492   7.035   8.395 -0.4667  0.1190  1.2263
26080SOL    HW278819   9.463   6.887   8.386  0.2900 -0.0223  0.9761
26081SOL     OW78820   9.800   7.485   4.202  0.2002 -0.7308 -0.7782
26081SOL    HW178821   9.862   7.525   4.141  0.6394 -0.8010 -0.3800
26081SOL    HW278822   9.841   7.403   4.229 -0.3484 -1.0871 -0.9883
26082SOL     OW78823   7.340   2.640   8.326  0.1717 -0.7052 -0.4065
26082SOL    HW178824   7.316   2.732   8.323 -1.0958 -0.9764  0.2516
26082SOL    HW278825   7.406   2.629   8.258 -1.1105  0.2874 -1.8915
26083SOL     OW78826   3.201   7.032   7.287  0.0736  0.2630  0.2688
26083SOL    HW178827   3.156   7.057   7.207  0.6402 -2.0478 -0.8728
26083SOL    HW278828   3.166   6.945   7.308  1.1593  0.0985  1.5707
26084SOL     OW78829   9.469   0.268   2.820 -0.1607 -0.6251 -0.3471
26084SOL    HW178830   9.464   0.230   2.908  0.6111 -2.0187 -0.8757
26084SOL    HW278831   9.532   0.339   2.828 -1.8976  0.8704  0.7503
26085SOL     OW78832   0.277   7.345   5.088 -0.0349  0.0970  0.3199
26085SOL    HW178833   0.325   7.400   5.150  2.1939 -0.4525 -0.8170
26085SOL    HW278834   0.218   7.293   5.143 -0.8626  2.2605  1.5694
26086SOL     OW78835   6.356   3.469   7.231 -0.0370 -0.3643  0.4892
26086SOL    HW178836   6.317   3.383   7.245  0.0024 -0.0284  3.0137
26086SOL    HW278837   6.317   3.525   7.298  2.3474  0.7914  1.0206
26087SOL     OW78838   6.837   3.547   3.961  0.2627 -0.0377  0.0289
26087SOL    HW178839   6.744   3.564   3.978 -0.3196 -0.2857 -2.3747
26087SOL    HW278840   6.859   3.606   3.889  1.9473 -0.0980  0.4617
26088SOL     OW78841   4.441   4.166   5.673  0.5644  0.0750  0.4462
26088SOL    HW178842   4.363   4.213   5.642  0.7754 -0.1007 -0.3599
26088SOL    HW278843   4.475   4.221   5.743  0.9640  1.2920 -0.6654
26089SOL     OW78844   0.199   7.950   7.277  0.0692 -0.0400 -0.1715
26089SOL    HW178845   0.121   7.914   7.236 -0.5504  0.4127  0.5786
26089SOL    HW278846   0.214   8.033   7.231 -0.0258 -0.0247 -0.1757
26090SOL     OW78847   2.111   0.247   3.534 -0.2843 -0.1329 -0.1405
26090SOL    HW178848   2.126   0.261   3.627  0.0383  0.4626 -0.2829
26090SOL    HW278849   2.175   0.181   3.509  0.5624  0.7099 -0.2377
26091SOL     OW78850   9.311   3.438   2.083 -0.0254  0.0691  0.5120
26091SOL    HW178851   9.248   3.507   2.103  0.1178 -0.5409  3.4211
26091SOL    HW278852   9.266   3.357   2.106  0.5991 -0.6820 -0.7792
26092SOL     OW78853   1.475   4.290   1.938 -0.7243  0.0475 -0.0386
26092SOL    HW178854   1.437   4.373   1.966 -3.6743 -0.3335 -2.4180
26092SOL    HW278855   1.547   4.315   1.880  0.8106  0.8084  2.0564
26093SOL     OW78856   7.784   9.568   4.874 -0.1926 -0.1041 -0.0944
26093SOL    HW178857   7.863   9.544   4.922  0.6096  0.1410 -1.2320
26093SOL    HW278858   7.802   9.539   4.784 -0.6713  1.4937 -0.7417
26094SOL     OW78859   1.874   7.559   2.653  0.2783 -0.4766  0.2512
26094SOL    HW178860   1.963   7.552   2.618 -0.0868  0.8942 -1.0684
26094SOL    HW278861   1.818   7.526   2.582 -0.3074 -0.6998  0.8124
26095SOL     OW78862   3.480   4.056   6.365  0.2510  0.0815  0.0942
26095SOL    HW178863   3.448   4.114   6.434  1.5495  0.3399  0.5123
26095SOL    HW278864   3.428   3.976   6.375 -2.5087  1.5885 -1.3438
26096SOL     OW78865   4.627   3.984   1.754 -0.4521 -0.2739 -0.7175
26096SOL    HW178866   4.598   4.009   1.666 -2.3696 -2.4698 -0.8124
26096SOL    HW278867   4.631   3.889   1.751  1.4259 -0.3020  1.0479
26097SOL     OW78868   8.419   9.612   9.493 -0.0903  0.1903  0.1577
26097SOL    HW178869   8.338   9.661   9.493  0.8607  1.8548  1.3940
26097SOL    HW278870   8.463   9.637   9.574  2.9179  1.5277 -1.7057
26098SOL     OW78871   5.575   8.295   3.211 -0.0065  0.2729  0.5085
26098SOL    HW178872   5.525   8.347   3.149 -1.6683 -0.4530  1.1805
26098SOL    HW278873   5.626   8.359   3.261  0.4949  0.9498 -0.8384
26099SOL     OW78874   1.255   4.249   5.791  0.6594 -0.0397  0.1872
26099SOL    HW178875   1.254   4.323   5.852  2.4779  0.1390  0.0585
26099SOL    HW278876   1.329   4.266   5.733  0.9502 -1.7954 -0.0331
26100SOL     OW78877   7.164   2.233   0.350  0.0382 -0.0654 -0.1930
26100SOL    HW178878   7.198   2.308   0.302 -2.0940  2.2853  1.6425
26100SOL    HW278879   7.092   2.201   0.295  0.4108 -0.2307 -0.5905
26101SOL     OW78880   2.070   8.301   3.926  0.6538 -0.4009  0.6000
26101SOL    HW178881   2.160   8.328   3.943  0.2348  0.2941  1.8339
26101SOL    HW278882   2.041   8.356   3.854  0.5275  0.9526  1.6458
26102SOL     OW78883   3.781   8.606   5.546 -0.1093  0.0165  0.1444
26102SOL    HW178884   3.744   8.564   5.624  2.3707 -0.2642  1.2663
26102SOL    HW278885   3.774   8.700   5.564  0.0085 -0.0381  0.4920
26103SOL     OW78886   7.118   7.786   5.337 -0.1321  0.0197 -0.2747
26103SOL    HW178887   7.209   7.782   5.366  0.2022  0.6401 -1.2223
26103SOL    HW278888   7.068   7.789   5.419  0.5759 -1.9010  0.3095
26104SOL     OW78889   6.130   3.027   6.713  0.3534  0.1095  0.3633
26104SOL    HW178890   6.057   3.054   6.769  0.1067 -1.1788  0.7055
26104SOL    HW278891   6.120   2.932   6.706  1.0732  0.1131 -0.9088
26105SOL     OW78892   1.210   1.692   5.785  0.2550  0.3900 -0.6715
26105SOL    HW178893   1.218   1.719   5.693  2.8696  0.2552 -0.5611
26105SOL    HW278894   1.226   1.598   5.783 -0.0357  0.3293 -0.1117
26106SOL     OW78895   8.533   7.023   6.238  0.0717  0.0857  0.3441
26106SOL    HW178896   8.444   7.016   6.272  1.1709 -0.5125  3.4501
26106SOL    HW278897   8.556   6.933   6.214  0.2417  0.0247  0.7278
26107SOL     OW78898   1.074   6.352   0.966  0.4117 -0.5583 -0.0120
26107SOL    HW178899   1.116   6.267   0.954 -0.7109 -1.2826  0.9398
26107SOL    HW278900   0.989   6.342   0.923 -0.4426 -0.5513  1.5954
26108SOL     OW78901   3.321   9.381   9.535 -0.4205  0.1472 -1.2722
26108SOL    HW178902   3.333   9.287   9.525  1.2111  0.0381  0.9924
26108SOL    HW278903   3.403   9.420   9.504 -1.1901  0.9009 -2.4691
26109SOL     OW78904   7.765   3.558   6.759 -0.0480 -0.7060 -0.2276
26109SOL    HW178905   7.747   3.542   6.852  0.9026  0.2276  0.1424
26109SOL    HW278906   7.781   3.471   6.722 -1.4617 -1.1931  0.2333
26110SOL     OW78907   7.851   9.246   7.317 -0.3343 -0.0718 -0.5428
26110SOL    HW178908   7.838   9.217   7.227 -0.5407  0.9260 -0.8393
26110SOL    HW278909   7.907   9.323   7.310  0.1143 -0.3098  0.2307
26111SOL     OW78910   7.362   7.273   6.767 -0.8062  0.0442 -1.0704
26111SOL    HW178911   7.290   7.211   6.756 -1.2454  0.5426 -0.9987
26111SOL    HW278912   7.387   7.297   6.678  2.5511 -3.8261 -1.4689
26112SOL     OW78913   0.703   9.937   3.449  0.1829 -0.4032  0.1736
26112SOL    HW178914   0.776   9.875   3.452  0.6873  0.1465 -0.5084
26112SOL    HW278915   0.629   9.886   3.417  1.3215 -0.0302 -3.4931
26113SOL     OW78916   2.274   0.031   8.180 -0.4260 -0.3900  0.2284
26113SOL    HW178917   2.184   0.005   8.203  0.4777 -0.4226  4.4630
26113SOL    HW278918   2.283   0.120   8.215  0.8261  0.1822 -1.4168
26114SOL     OW78919   1.050   0.836   9.841 -0.0920  0.2228  0.3183
26114SOL    HW178920   1.062   0.862   9.750  0.3456  0.8804  0.5579
26114SOL    HW278921   1.022   0.916   9.886  2.7947  0.7379  1.3743
26115SOL     OW78922   6.735   4.804   3.321  0.1866  0.2031 -0.2073
26115SOL    HW178923   6.822   4.814   3.282 -0.1352  1.0041 -0.7406
26115SOL    HW278924   6.688   4.747   3.260 -0.5313  1.9841 -1.4136
26116SOL     OW78925   9.685   8.167   5.916 -0.3539 -0.0044 -0.3092
26116SOL    HW178926   9.658   8.245   5.964 -0.8445  1.5680 -2.9386
26116SOL    HW278927   9.605   8.116   5.906 -0.0131 -0.9776  1.5011
26117SOL     OW78928   7.965   6.258   5.560  0.4158 -0.4041 -0.3169
26117SOL    HW178929   7.945   6.295   5.473 -0.0341 -0.7967 -0.3822
26117SOL    HW278930   8.061   6.250   5.560  0.6954  1.9896  0.1981
26118SOL     OW78931   5.681   3.386   0.448  0.6804  0.6919  1.1870
26118SOL    HW178932   5.761   3.334   0.454  0.0156 -0.5095 -0.0111
26118SOL    HW278933   5.680   3.437   0.529  2.2742  0.1972  1.5581
26119SOL     OW78934   5.919   2.938   6.483  0.2403 -1.4244  0.3867
26119SOL    HW178935   5.863   2.983   6.420 -2.9801 -2.5820  2.1652
26119SOL    HW278936   5.951   2.861   6.436 -0.0851 -1.0071 -0.5452
26120SOL     OW78937   5.424   6.441   7.238  0.1139  0.0312  0.3217
26120SOL    HW178938   5.486   6.514   7.232 -0.4428  0.5919  1.2333
26120SOL    HW278939   5.361   6.468   7.304  1.1419 -2.2307  2.3656
26121SOL     OW78940   2.915   8.380   3.590  0.6379  0.1037  0.3519
26121SOL    HW178941   2.976   8.308   3.579  0.6797  0.5476 -4.1916
26121SOL    HW278942   2.859   8.353   3.663  3.3069 -2.3958  1.6846
26122SOL     OW78943   9.748   2.182   2.325 -0.1737  0.0012 -0.0417
26122SOL    HW178944   9.780   2.256   2.376  1.9087 -0.8486 -0.0159
26122SOL    HW278945   9.700   2.127   2.388  0.0621  0.2942  0.3953
26123SOL     OW78946   5.243   9.496   4.169  0.4134 -0.4154  0.6852
26123SOL    HW178947   5.264   9.524   4.080  1.8968 -0.7479  0.9017
26123SOL    HW278948   5.219   9.404   4.161 -0.0234 -0.2920  0.5603
26124SOL     OW78949   6.446   6.871   3.840 -0.3898 -0.2030 -0.5981
26124SOL    HW178950   6.360   6.896   3.874 -0.5732 -0.9019 -0.5183
26124SOL    HW278951   6.491   6.834   3.916 -0.0915 -0.0083 -0.6825
26125SOL     OW78952   4.051   5.047   5.438  0.2186 -0.0158  0.4135
26125SOL    HW178953   4.060   5.049   5.343  0.8465 -1.7161  0.4052
26125SOL    HW278954   4.140   5.064   5.470  0.5860 -2.0164  0.6070
26126SOL     OW78955   4.962   2.487   0.372 -0.1456  0.1481 -0.2719
26126SOL    HW178956   4.929   2.401   0.345 -1.2152  0.3771  0.2538
26126SOL    HW278957   4.954   2.486   0.468  0.8551  0.4350 -0.1775
26127SOL     OW78958   4.930   0.778   8.032  0.3998  0.5015  0.3011
26127SOL    HW178959   4.977   0.697   8.049  1.7378  0.9123 -1.1969
26127SOL    HW278960   4.950   0.833   8.108  0.5344 -0.1102  0.7168
26128SOL     OW78961   3.725   1.383   0.508  0.0224 -0.5298  0.1011
26128SOL    HW178962   3.744   1.462   0.458  0.6990  0.4103  1.7822
26128SOL    HW278963   3.632   1.390   0.529 -0.0476 -0.4711 -0.2166
26129SOL     OW78964   9.906   5.819   6.505 -0.0819  0.1223  0.3211
26129SOL    HW178965   9.851   5.888   6.467 -1.1552 -0.1628  1.3113
26129SOL    HW278966   9.976   5.867   6.550  0.9367  0.4712 -1.5248
26130SOL     OW78967   9.716   2.381   2.572 -0.3825 -0.1334 -0.0772
26130SOL    HW178968   9.680   2.435   2.642 -0.6479  0.9299 -1.0040
26130SOL    HW278969   9.642   2.327   2.543  0.3240 -2.4683  2.1064
26131SOL     OW78970   1.874   6.727   1.261 -0.2171  0.2427  0.2001
26131SOL    HW178971   1.923   6.761   1.336 -2.2593  1.0072  1.2788
26131SOL    HW278972   1.938   6.678   1.210  1.0833 -1.0998  2.9099
26132SOL     OW78973   5.685   5.714   2.264  0.3478  0.2440 -0.0032
26132SOL    HW178974   5.753   5.773   2.233  1.6679 -0.2367  1.8665
26132SOL    HW278975   5.603   5.761   2.248  0.9656  0.4687 -3.1205
26133SOL     OW78976   4.053   3.654   0.592  0.1942 -0.5750  0.2595
26133SOL    HW178977   4.115   3.581   0.587  1.3588  0.3418  0.7427
26133SOL    HW278978   4.099   3.727   0.549 -0.1640  0.3684  1.4406
26134SOL     OW78979   3.490   1.773   3.316 -0.4681 -0.8957 -0.7383
26134SOL    HW178980   3.506   1.689   3.358  0.5760 -1.3339 -1.9555
26134SOL    HW278981   3.569   1.790   3.265 -0.9617  0.4803 -1.0934
26135SOL     OW78982   8.693   4.973   0.537 -0.5765 -0.2562 -0.0689
26135SOL    HW178983   8.695   4.880   0.515 -2.3160 -0.2676 -0.2588
26135SOL    HW278984   8.713   4.976   0.631  0.9406 -0.6710 -0.3463
26136SOL     OW78985   2.790   7.080   8.293  0.2535 -0.1069  0.0258
26136SOL    HW178986   2.830   7.096   8.208  0.8776  0.7754  0.4566
26136SOL    HW278987   2.710   7.032   8.275  1.8366 -2.6002 -0.8359
26137SOL     OW78988   7.253   1.703   7.181 -0.0040  0.3227  0.3087
26137SOL    HW178989   7.242   1.612   7.155 -2.4094  0.5308  0.3618
26137SOL    HW278990   7.347   1.716   7.185  0.4174 -2.3541  1.0137
26138SOL     OW78991   6.950   3.617   0.887 -0.0198 -0.2656  0.1084
26138SOL    HW178992   6.863   3.656   0.893 -0.5954 -1.6918  2.1428
26138SOL    HW278993   6.935   3.523   0.898  1.5136 -0.9393 -2.6363
26139SOL     OW78994   6.376   8.018   4.991  0.2829 -0.2822 -0.1496
26139SOL    HW178995   6.398   7.939   4.943  1.0144  0.2042 -0.6334
26139SOL    HW278996   6.458   8.047   5.030 -0.3245 -0.7346  1.5181
26140SOL     OW78997   4.895   8.740   1.213 -0.0583 -0.3642 -0.4622
26140SOL    HW178998   4.863   8.830   1.221  0.2480 -0.3624  0.9064
26140SOL    HW278999   4.990   8.747   1.226 -0.2532 -1.0941  1.6023
26141SOL     OW79000   2.008   9.225   9.483  0.4089 -0.0572  0.6719
26141SOL    HW179001   1.979   9.263   9.400 -0.0675  0.8674  1.2487
26141SOL    HW279002   1.971   9.282   9.550  1.3402 -0.4093  1.5106
26142SOL     OW79003   3.640   1.998   5.383  0.5832  0.6028 -0.2031
26142SOL    HW179004   3.604   2.086   5.380  0.6503  0.6376  0.0237
26142SOL    HW279005   3.567   1.941   5.358  1.0457  0.8589 -2.3229
26143SOL     OW79006   0.373   1.958   3.771 -0.1486 -0.1344 -0.1481
26143SOL    HW179007   0.384   1.882   3.714 -1.2449 -1.6005  1.4922
26143SOL    HW279008   0.458   1.967   3.814  0.2474  0.1054 -0.9641
26144SOL     OW79009   7.811   5.225   2.863  0.0485 -0.0325 -0.2287
26144SOL    HW179010   7.723   5.260   2.854  0.3662  0.7595 -0.3181
26144SOL    HW279011   7.825   5.175   2.782 -0.0726  0.3876 -0.5097
26145SOL     OW79012   9.115   0.080   8.468  0.1202  0.5671 -0.2505
26145SOL    HW179013   9.129  -0.013   8.451 -0.3601  0.1977  1.1811
26145SOL    HW279014   9.161   0.096   8.551  0.4160  1.6685 -0.6109
26146SOL     OW79015   9.897   1.903   1.014 -0.0576  0.5299  0.1299
26146SOL    HW179016   9.919   1.980   1.067  2.3475  0.2435 -0.3264
26146SOL    HW279017   9.886   1.938   0.925  1.4566  0.3575 -0.1583
26147SOL     OW79018   5.940   2.852   6.142  0.1863  0.2463  0.5904
26147SOL    HW179019   5.905   2.885   6.059 -0.3698  1.0231  1.1164
26147SOL    HW279020   6.034   2.864   6.135  0.0362  1.5204  0.5693
26148SOL     OW79021   0.232   4.665   2.524 -0.2140  0.4551 -0.0906
26148SOL    HW179022   0.161   4.643   2.584  0.9649 -3.1548  0.2146
26148SOL    HW279023   0.199   4.638   2.438  0.6371 -0.9792  0.0136
26149SOL     OW79024   2.243   1.317   2.906  0.2356  0.3424 -0.4672
26149SOL    HW179025   2.300   1.385   2.870  1.1984 -0.3840 -0.3425
26149SOL    HW279026   2.260   1.318   3.000  1.2799 -0.9612 -0.6122
26150SOL     OW79027   9.742   8.065   9.456 -0.6069 -0.3136 -0.1328
26150SOL    HW179028   9.698   8.144   9.426 -0.9475  0.5100  2.3303
26150SOL    HW279029   9.671   8.006   9.481 -0.3636 -1.5797 -2.2419
26151SOL     OW79030   5.405   2.800   3.618 -0.2501  0.0531  0.2250
26151SOL    HW179031   5.346   2.860   3.662 -0.8701  1.1919 -2.0033
26151SOL    HW279032   5.386   2.811   3.525  3.3222  0.3777 -0.6257
26152SOL     OW79033   8.155   8.779   8.371 -0.5639  0.1511  0.4487
26152SOL    HW179034   8.190   8.770   8.460 -0.1038 -1.0288  0.1682
26152SOL    HW279035   8.197   8.708   8.322 -0.2273  1.2335 -0.8950
26153SOL     OW79036   5.707   9.824   6.887  0.1156 -0.7157 -0.6718
26153SOL    HW179037   5.699   9.907   6.935 -1.3160 -1.8808  1.2366
26153SOL    HW279038   5.787   9.784   6.922  1.3862  0.2400 -2.3318
26154SOL     OW79039   7.640   4.923   2.908  0.0825  0.0553 -0.5618
26154SOL    HW179040   7.574   4.975   2.953 -0.6949 -1.2139 -0.1630
26154SOL    HW279041   7.724   4.959   2.938 -0.4197 -0.1900  1.2675
26155SOL     OW79042   6.257   0.722   6.308 -0.1238  0.3135 -0.2551
26155SOL    HW179043   6.302   0.674   6.239 -0.3775  0.8868 -0.8312
26155SOL    HW279044   6.312   0.711   6.385 -0.9221 -2.1669  0.0398
26156SOL     OW79045   3.718   8.554   5.227  0.6793  0.0462 -0.4057
26156SOL    HW179046   3.782   8.538   5.296  2.9526 -1.6833 -2.7568
26156SOL    HW279047   3.747   8.634   5.185 -0.3035  0.7094  0.1181
26157SOL     OW79048   2.552   8.112   1.621 -0.1654  0.2647 -0.2713
26157SOL    HW179049   2.618   8.170   1.658  0.3947  1.3200 -2.7070
26157SOL    HW279050   2.469   8.148   1.652  0.3050 -1.0111  2.7250
26158SOL     OW79051   3.220   8.573  -0.006  0.8196  0.2131 -0.2183
26158SOL    HW179052   3.141   8.618   0.023  1.2036  0.5368  0.3582
26158SOL    HW279053   3.226   8.496   0.051  0.4936 -0.2464 -0.7939
26159SOL     OW79054   1.661   9.836   0.455  0.2004 -0.5374 -0.3051
26159SOL    HW179055   1.575   9.878   0.461 -0.4089 -1.6520 -0.7583
26159SOL    HW279056   1.721   9.905   0.429 -0.5340  0.2941  0.1664
26160SOL     OW79057   4.719   5.836   6.453 -0.2844  0.2370  0.0749
26160SOL    HW179058   4.701   5.924   6.419  2.6951  1.5732  1.5458
26160SOL    HW279059   4.648   5.820   6.516 -1.0356  1.4740 -0.4044
26161SOL     OW79060   2.262   6.507   5.108  0.0502  0.5021 -0.3241
26161SOL    HW179061   2.283   6.435   5.167  2.0398  2.4920  1.6286
26161SOL    HW279062   2.167   6.515   5.113 -0.0459 -0.9181  0.7287
26162SOL     OW79063   1.235   2.639   9.221 -0.3947  0.1960 -0.0375
26162SOL    HW179064   1.216   2.636   9.127 -1.3365  0.8944  0.1158
26162SOL    HW279065   1.323   2.677   9.227 -0.1601 -0.2334 -0.6382
26163SOL     OW79066   7.837   6.322   1.786  0.5047 -0.4334  0.0430
26163SOL    HW179067   7.856   6.403   1.738  2.4112 -1.6184 -1.3402
26163SOL    HW279068   7.749   6.297   1.758  0.1171  0.8173  0.0554
26164SOL     OW79069   1.730   8.305   5.217  0.0894 -0.2575 -0.2144
26164SOL    HW179070   1.761   8.243   5.283  0.2930  1.3746  1.2714
26164SOL    HW279071   1.776   8.279   5.137  0.9613 -1.3757  0.6132
26165SOL     OW79072   8.449   1.677   8.360 -0.1089 -0.1907 -0.8823
26165SOL    HW179073   8.488   1.609   8.305  2.4873  0.3727  0.1260
26165SOL    HW279074   8.482   1.658   8.448 -1.0434  1.1415 -0.2117
26166SOL     OW79075   5.808   6.693   0.817 -0.4509 -0.3079 -0.4287
26166SOL    HW179076   5.871   6.734   0.876  0.3954 -0.3007 -1.3104
26166SOL    HW279077   5.824   6.600   0.825 -0.0222 -0.2826 -0.9874
26167SOL     OW79078   8.302   4.130   5.924 -0.4855 -0.3184  0.5021
26167SOL    HW179079   8.298   4.115   6.019  1.9217 -0.9169  0.5785
26167SOL    HW279080   8.284   4.044   5.886 -0.3589 -0.3262  0.4598
26168SOL     OW79081   1.151   8.946   4.458 -0.4754  0.1213 -0.6085
26168SOL    HW179082   1.124   8.944   4.366  0.4098  0.6162 -0.9024
26168SOL    HW279083   1.204   9.026   4.465  1.6059 -1.1975 -0.3095
26169SOL     OW79084   4.547   0.863   3.784 -0.1509  0.5039 -0.8581
26169SOL    HW179085   4.570   0.779   3.746  0.2663  0.1979  0.0529
26169SOL    HW279086   4.623   0.889   3.836 -1.5435 -0.2730  1.7888
26170SOL     OW79087   5.935   2.058   9.449 -0.3369 -0.3821 -0.1039
26170SOL    HW179088   5.950   1.978   9.398 -1.2965 -0.8791  0.3572
26170SOL    HW279089   6.018   2.105   9.444 -0.3852 -0.4091 -2.0985
26171SOL     OW79090   8.610   1.837   0.332  0.0675  0.2001 -0.1929
26171SOL    HW179091   8.634   1.922   0.367 -0.9449  0.3523  0.1850
26171SOL    HW279092   8.661   1.774   0.382  0.1772  0.5408  0.1242
26172SOL     OW79093   7.082   8.751   7.635 -0.0914 -0.1835  0.2574
26172SOL    HW179094   7.141   8.822   7.612 -0.3302  0.7678  2.4303
26172SOL    HW279095   6.995   8.784   7.612 -0.1101 -0.2057  0.2985
26173SOL     OW79096   4.674   5.439   4.887  0.8370 -0.4322 -0.2472
26173SOL    HW179097   4.757   5.480   4.910  0.6166 -0.3582  0.4651
26173SOL    HW279098   4.634   5.499   4.824  0.3291  0.6934  1.1014
26174SOL     OW79099   7.231   4.090   2.882  0.4489 -0.4864  0.0231
26174SOL    HW179100   7.257   4.040   2.959  0.8860  1.7632  1.4117
26174SOL    HW279101   7.312   4.100   2.831  0.5575 -0.3856  0.2164
26175SOL     OW79102   4.972   0.733   0.707 -0.0442  0.6758  0.1093
26175SOL    HW179103   4.921   0.717   0.786  2.6955 -0.2216  1.8142
26175SOL    HW279104   5.003   0.823   0.716 -0.8494  1.0513 -0.6784
26176SOL     OW79105   2.458   5.258   4.991 -0.4106  0.2149 -0.2797
26176SOL    HW179106   2.538   5.296   5.026  0.3874 -1.3242 -0.3433
26176SOL    HW279107   2.395   5.263   5.063  0.8296 -1.7400  1.0432
26177SOL     OW79108   2.061   7.775   4.973  0.6103 -0.0572  0.2740
26177SOL    HW179109   1.974   7.750   4.941  1.1768 -1.2711 -0.4057
26177SOL    HW279110   2.109   7.801   4.894  0.8804  0.5616  0.6385
26178SOL     OW79111   6.946   8.843   1.879 -0.2720  0.1324  0.7207
26178SOL    HW179112   6.909   8.763   1.841  0.8677  0.1884 -0.5845
26178SOL    HW279113   6.998   8.881   1.808 -0.5745  1.8962  1.4063
26179SOL     OW79114   9.438   7.459   4.494 -0.0577 -0.4136 -0.7050
26179SOL    HW179115   9.437   7.383   4.436  0.5400 -0.5914 -0.4881
26179SOL    HW279116   9.515   7.509   4.467 -1.9014  1.6078 -2.7082
26180SOL     OW79117   4.816   1.523   5.140  0.2679 -0.3379  0.5088
26180SOL    HW179118   4.829   1.583   5.066  0.8048 -0.9558  0.0904
26180SOL    HW279119   4.891   1.541   5.197  0.4949 -0.6878  0.3244
26181SOL     OW79120   9.003   2.345   3.940 -0.6206  0.3458 -0.1173
26181SOL    HW179121   9.027   2.434   3.966 -0.6384  0.4361 -0.4155
26181SOL    HW279122   8.909   2.350   3.920 -0.6252  0.2564 -0.1187
26182SOL     OW79123   1.418   5.976   2.821 -0.2820  0.1589 -0.0940
26182SOL    HW179124   1.390   5.934   2.902 -0.8634  0.8779  0.0859
26182SOL    HW279125   1.355   5.946   2.755 -1.2987  1.4737  0.2323
26183SOL     OW79126   9.615   5.003   0.089 -0.3785 -0.5368 -0.7192
26183SOL    HW179127   9.599   5.073   0.025 -1.1792 -0.9394 -0.9659
26183SOL    HW279128   9.529   4.983   0.125 -0.0412 -0.8479 -0.0646
26184SOL     OW79129   0.764   1.711   3.944  0.2655  0.5717  0.1912
26184SOL    HW179130   0.799   1.735   3.858 -0.2754  0.4544 -0.0646
26184SOL    HW279131   0.714   1.631   3.928  1.2075 -0.1650  0.8456
26185SOL     OW79132   4.057   8.380   4.363 -0.0290  0.4020 -0.0677
26185SOL    HW179133   4.107   8.401   4.442 -0.7308  0.6065  0.3268
26185SOL    HW279134   4.034   8.465   4.325  0.0861  0.3067 -0.3593
26186SOL     OW79135   7.791   3.119   6.263 -0.3719  0.0117 -0.2588
26186SOL    HW179136   7.772   3.117   6.356 -1.5394 -1.1716 -0.5004
26186SOL    HW279137   7.883   3.145   6.258 -0.6255  1.3405  1.1487
26187SOL     OW79138   7.693   8.557   8.873  0.6319 -0.3432  0.5560
26187SOL    HW179139   7.783   8.553   8.905  1.4230 -1.5760 -1.6408
26187SOL    HW279140   7.689   8.638   8.823  1.1980 -1.3058 -1.1090
26188SOL     OW79141   9.755   6.248   2.032 -0.0929  0.3939  0.3055
26188SOL    HW179142   9.714   6.331   2.007 -0.7275  0.0577  0.2068
26188SOL    HW279143   9.699   6.181   1.993  0.3671 -0.0851  0.4547
26189SOL     OW79144   2.559   9.835   2.808  0.3295 -0.0531 -0.5643
26189SOL    HW179145   2.522   9.748   2.822  0.1609  0.1770  0.5180
26189SOL    HW279146   2.506   9.893   2.863  1.1575  0.5569 -0.3900
26190SOL     OW79147   7.746   3.834   8.603  0.0528  0.1243  0.4041
26190SOL    HW179148   7.659   3.818   8.639  0.0925 -1.8830 -0.2649
26190SOL    HW279149   7.796   3.869   8.676 -1.1595  0.8478  0.9329
26191SOL     OW79150   3.604   9.534   6.016 -0.4354 -0.2233 -0.3253
26191SOL    HW179151   3.548   9.480   6.072  0.6365 -1.2217 -0.1682
26191SOL    HW279152   3.567   9.622   6.022 -0.1824 -0.2146  2.2289
26192SOL     OW79153   5.638   9.195   8.184 -0.1150 -0.0455 -0.2170
26192SOL    HW179154   5.705   9.174   8.119 -0.7558  0.3022 -1.0093
26192SOL    HW279155   5.682   9.186   8.268  1.7220  2.7409 -0.7601
26193SOL     OW79156   3.292   9.067   4.669  0.4896  0.0644  0.3496
26193SOL    HW179157   3.278   9.136   4.734  0.0642 -0.4588  0.8280
26193SOL    HW279158   3.241   8.992   4.702  0.8447 -0.4378 -0.2187
26194SOL     OW79159   3.032   9.475   5.506 -0.5747  0.0960 -0.4837
26194SOL    HW179160   3.062   9.390   5.537 -1.0657  0.7237  1.9197
26194SOL    HW279161   2.969   9.455   5.437  0.9194 -1.3767 -1.4799
26195SOL     OW79162   2.748   1.221   5.088 -0.6693  0.1793  0.1927
26195SOL    HW179163   2.811   1.286   5.057 -0.3670  0.0468  0.5328
26195SOL    HW279164   2.669   1.272   5.107 -0.1135  0.6169  1.4504
26196SOL     OW79165   5.435   6.344   7.872  0.1593 -0.5969  0.5080
26196SOL    HW179166   5.439   6.381   7.960  0.4968 -0.2162  0.3394
26196SOL    HW279167   5.512   6.288   7.866  1.8458  1.6507 -0.5187
26197SOL     OW79168   3.014   5.548   1.471  0.0498 -0.0232 -0.1671
26197SOL    HW179169   2.921   5.548   1.494  0.1836 -1.1616  0.4742
26197SOL    HW279170   3.017   5.520   1.380 -0.1515 -2.5287  0.5107
26198SOL     OW79171   7.874   1.647   7.743  0.3923  0.5357  0.1322
26198SOL    HW179172   7.949   1.653   7.802  1.3957  0.0934 -1.0631
26198SOL    HW279173   7.912   1.648   7.655 -0.9665 -0.0822 -0.4932
26199SOL     OW79174   8.000   3.369   1.887  0.4242  0.6708  0.7347
26199SOL    HW179175   7.967   3.421   1.961 -2.8899  0.6062 -0.5173
26199SOL    HW279176   7.999   3.279   1.919 -1.2413  0.6144  0.5960
26200SOL     OW79177   5.801   2.211   6.778 -0.2600  0.2747  0.2006
26200SOL    HW179178   5.738   2.264   6.826 -1.8783 -0.0983 -1.4026
26200SOL    HW279179   5.849   2.273   6.723  1.6535  0.7142  2.2142
26201SOL     OW79180   8.367   1.729   4.250  0.0867 -0.2085  0.1342
26201SOL    HW179181   8.344   1.742   4.342 -2.3966 -0.0371 -0.4365
26201SOL    HW279182   8.294   1.680   4.214  0.3099  0.9637 -2.0634
26202SOL     OW79183   2.935   7.384   3.546 -0.5507  0.1382  0.1473
26202SOL    HW179184   2.879   7.322   3.593 -1.1088 -0.1566 -0.8888
26202SOL    HW279185   2.887   7.405   3.466  0.5089  0.3920 -0.4480
26203SOL     OW79186   9.067   7.460   7.982  0.5257 -0.0966  0.7090
26203SOL    HW179187   9.162   7.452   7.996  1.0489  3.7999  0.3675
26203SOL    HW279188   9.029   7.444   8.068  1.7677  1.2111  1.5419
26204SOL     OW79189   4.046   0.235   5.635 -0.3052  0.5898 -0.1652
26204SOL    HW179190   4.118   0.173   5.627 -2.1122 -1.7611  0.7653
26204SOL    HW279191   4.031   0.266   5.545  1.2792  0.5186 -0.4891
26205SOL     OW79192   1.384   8.790   7.471  0.0665 -0.4966  0.0785
26205SOL    HW179193   1.418   8.715   7.520 -2.3138 -0.6156  1.6840
26205SOL    HW279194   1.360   8.853   7.538  1.4095  1.5160 -1.2165
26206SOL     OW79195   6.364   4.446   8.245 -0.3255  0.1821 -0.0598
26206SOL    HW179196   6.338   4.484   8.161 -0.0265  1.8806  0.5690
26206SOL    HW279197   6.348   4.516   8.308 -0.6561 -1.1022  1.3261
26207SOL     OW79198   4.443   1.806   4.144 -0.0721  0.1650  0.2168
26207SOL    HW179199   4.488   1.876   4.098 -0.6982 -0.2375 -1.0718
26207SOL    HW279200   4.507   1.773   4.207 -0.1337  2.6091  1.6843
26208SOL     OW79201   2.020   7.244   0.935 -0.0255 -0.2552  0.5868
26208SOL    HW179202   2.024   7.331   0.974 -1.3986 -0.7900  1.9856
26208SOL    HW279203   1.953   7.251   0.867  0.0584 -0.1691  0.5115
26209SOL     OW79204   1.969   5.162   1.174  0.4174  0.1689 -0.0291
26209SOL    HW179205   1.928   5.217   1.107  1.0587  1.7654  0.8401
26209SOL    HW279206   2.005   5.224   1.237  0.1697 -1.2913  1.6097
26210SOL     OW79207   7.625   3.336   9.728 -0.1602 -0.5994 -0.2866
26210SOL    HW179208   7.638   3.259   9.784 -0.0997 -0.4879 -0.1434
26210SOL    HW279209   7.531   3.339   9.714 -0.5473  0.8516  1.9903
26211SOL     OW79210   5.550   1.805   9.830  0.0777  0.1589  0.2265
26211SOL    HW179211   5.600   1.882   9.800  1.9562 -1.2815 -0.5603
26211SOL    HW279212   5.460   1.836   9.838  0.6421  2.2334 -0.8237
26212SOL     OW79213   9.965   2.573   6.078 -0.2358 -0.1820  0.5943
26212SOL    HW179214   9.919   2.528   6.007 -0.8141  0.0448  0.8116
26212SOL    HW279215  10.014   2.505   6.123  2.8748  0.1142 -1.9993
26213SOL     OW79216   2.913   9.034   7.849  0.6244  0.0077  0.0920
26213SOL    HW179217   2.842   9.001   7.794  2.1886 -0.2067 -1.9265
26213SOL    HW279218   2.968   8.957   7.865  0.1738  0.0474  2.1104
26214SOL     OW79219   8.972   0.699   2.174  0.1155 -0.0526 -0.0293
26214SOL    HW179220   9.050   0.663   2.216  0.4470  2.1698  1.4638
26214SOL    HW279221   8.899   0.652   2.212  0.5008  1.0136  2.1807
26215SOL     OW79222   4.971   4.142   6.358 -0.0400  0.0347 -0.1157
26215SOL    HW179223   4.955   4.048   6.351  1.1274 -0.1908  0.1689
26215SOL    HW279224   5.023   4.152   6.437  0.3152  0.8681 -0.4489
26216SOL     OW79225   5.468   8.959   4.018 -0.2093  0.4852  0.2614
26216SOL    HW179226   5.549   8.926   4.057 -0.5583 -0.3010  0.3385
26216SOL    HW279227   5.491   8.975   3.926  0.2717  1.1342  0.4852
26217SOL     OW79228   2.641   1.906   3.982  0.5052 -0.4541  0.0284
26217SOL    HW179229   2.665   1.972   4.047  0.8485 -0.7256  0.1878
26217SOL    HW279230   2.718   1.848   3.979  0.4884 -0.4502 -0.6109
26218SOL     OW79231   2.617   4.158   5.019 -0.3353  0.2763  0.0162
26218SOL    HW179232   2.577   4.237   5.056  0.1556  0.2550  0.6046
26218SOL    HW279233   2.624   4.098   5.094  1.3753  0.5063  0.0815
26219SOL     OW79234   9.876   9.084   6.327 -0.1721  0.2092  0.4518
26219SOL    HW179235   9.951   9.067   6.385 -0.8464  1.2750  1.7000
26219SOL    HW279236   9.914   9.120   6.247  0.8029 -1.4780  0.1163
26220SOL     OW79237   9.817   9.706   6.514  0.3487 -0.6343  0.5604
26220SOL    HW179238   9.835   9.799   6.505 -0.9763 -0.4881 -1.1211
26220SOL    HW279239   9.769   9.698   6.596  0.9638  0.0786  0.9919
26221SOL     OW79240   1.944   0.720   4.821  0.8300 -0.4151  0.1321
26221SOL    HW179241   1.953   0.664   4.898  0.6633 -0.6082  0.0120
26221SOL    HW279242   1.873   0.780   4.842  0.2460 -0.9819 -0.1763
26222SOL     OW79243   4.255   0.175   9.145  0.0077  0.1557  0.2153
26222SOL    HW179244   4.253   0.143   9.055 -0.1291 -1.8225  0.8794
26222SOL    HW279245   4.347   0.176   9.169 -0.0353 -0.4591  0.4228
26223SOL     OW79246   9.249   8.255   4.969  0.2389  0.3082  0.3531
26223SOL    HW179247   9.266   8.229   4.879  0.3526  0.1128  0.4288
26223SOL    HW279248   9.333   8.287   5.002 -0.0898  1.5629  0.0098
26224SOL     OW79249   7.788   1.685   5.498 -0.5519  0.0179  0.2910
26224SOL    HW179250   7.784   1.757   5.435 -0.9294  1.5800  1.9934
26224SOL    HW279251   7.877   1.688   5.533 -0.8072  0.2188  0.9520
26225SOL     OW79252   4.384   0.786   0.501  0.2873 -0.2122 -0.2656
26225SOL    HW179253   4.293   0.761   0.487  0.2776 -0.2680 -0.1005
26225SOL    HW279254   4.388   0.878   0.472  0.1986 -0.2358 -0.3529
26226SOL     OW79255   4.608   5.704   7.036 -0.2555  0.5672 -0.0491
26226SOL    HW179256   4.689   5.699   7.087  0.9362  5.0760 -1.0392
26226SOL    HW279257   4.538   5.699   7.102  0.6770 -2.6583  0.8920
26227SOL     OW79258   6.927   3.166   5.682 -0.2800  0.6396 -0.1720
26227SOL    HW179259   6.965   3.134   5.600 -0.9319 -0.9097  0.0867
26227SOL    HW279260   6.872   3.094   5.712 -1.0817  1.6855  0.9713
26228SOL     OW79261   5.656   4.599   6.244 -0.4686 -0.3380 -0.7593
26228SOL    HW179262   5.689   4.569   6.328  0.6984  2.1955 -0.1972
26228SOL    HW279263   5.583   4.540   6.223 -0.7932 -1.0341  2.0096
26229SOL     OW79264   9.269   8.591   0.879 -0.0122  0.3510  0.2391
26229SOL    HW179265   9.309   8.522   0.825  1.7234  1.4167  0.0891
26229SOL    HW279266   9.227   8.649   0.816  1.5602  1.3081  0.0322
26230SOL     OW79267   0.461   0.810   3.524  0.1238  0.3827 -0.1348
26230SOL    HW179268   0.416   0.796   3.608 -1.1248 -0.0327 -0.8393
26230SOL    HW279269   0.405   0.766   3.460  0.5829  1.4497 -1.3032
26231SOL     OW79270   6.192   6.323   7.454  0.2070 -0.1871 -0.0515
26231SOL    HW179271   6.189   6.374   7.373 -0.6111  0.6509  0.4787
26231SOL    HW279272   6.144   6.376   7.518 -0.4013 -1.4820  0.6157
26232SOL     OW79273   4.662   7.931   4.981  0.2858  0.6841 -0.0813
26232SOL    HW179274   4.671   8.015   5.026 -2.1677  0.6075  0.6867
26232SOL    HW279275   4.730   7.876   5.020  1.2138  1.9588  0.1869
26233SOL     OW79276   4.911  -0.008   9.558 -0.0272  0.0153  0.1047
26233SOL    HW179277   4.959   0.061   9.603 -0.6121 -0.1205  0.9673
26233SOL    HW279278   4.898   0.025   9.470 -0.1494  0.9303  0.4574
26234SOL     OW79279   4.530   4.244   8.127  0.1781  0.0236 -0.3603
26234SOL    HW179280   4.622   4.240   8.154  0.0006  1.2394  0.5068
26234SOL    HW279281   4.493   4.162   8.156  0.9521 -0.4201 -0.5895
26235SOL     OW79282   7.145   1.899   7.003  0.4526 -0.0687 -0.6557
26235SOL    HW179283   7.179   1.835   7.066  1.6797  1.5117  0.3675
26235SOL    HW279284   7.101   1.846   6.937 -0.8808 -1.8133  1.4867
26236SOL     OW79285   8.318   2.101   0.258 -0.8161 -0.1378  0.5185
26236SOL    HW179286   8.241   2.147   0.290 -0.4823  0.7882  0.0211
26236SOL    HW279287   8.372   2.087   0.335 -1.2659 -0.3913  0.7944
26237SOL     OW79288   7.304   5.129   6.689  0.0116  0.3514 -0.0191
26237SOL    HW179289   7.211   5.106   6.690  0.2666 -0.9098 -1.6921
26237SOL    HW279290   7.343   5.073   6.757  0.1522 -2.3579 -2.1296
26238SOL     OW79291   3.351   4.829   0.467 -0.4154  0.0207 -0.1010
26238SOL    HW179292   3.432   4.793   0.431 -0.7711 -0.1446 -0.7461
26238SOL    HW279293   3.301   4.752   0.497  0.2867  0.2076  1.6609
26239SOL     OW79294   6.889   5.239   6.396 -0.2475  0.4134 -0.4515
26239SOL    HW179295   6.894   5.162   6.452  1.7556 -0.7212 -2.0529
26239SOL    HW279296   6.833   5.300   6.444 -2.0922 -2.0726  0.7783
26240SOL     OW79297   7.887   6.837   0.727 -0.0199 -0.4829  0.0331
26240SOL    HW179298   7.936   6.831   0.645 -1.1264 -1.4320 -0.5932
26240SOL    HW279299   7.938   6.785   0.789  0.7141  0.0643 -0.0996
26241SOL     OW79300   0.532   4.187   8.551  0.4678  0.1974 -0.3596
26241SOL    HW179301   0.452   4.210   8.597 -0.5877 -0.7081 -1.6543
26241SOL    HW279302   0.559   4.268   8.508  0.6197  0.6632  0.5920
26242SOL     OW79303   1.377   8.339   8.569  0.5318  0.5766  0.2698
26242SOL    HW179304   1.314   8.273   8.538 -0.0946  0.8971  0.8273
26242SOL    HW279305   1.437   8.352   8.495 -0.0216  0.2141 -0.2529
26243SOL     OW79306   6.948   2.796   5.235 -0.3040  0.0084  0.2262
26243SOL    HW179307   6.859   2.817   5.265 -1.4464 -1.8621 -1.5419
26243SOL    HW279308   6.954   2.838   5.149 -0.0482 -1.0332 -0.2838
26244SOL     OW79309   4.549   9.488   5.262  0.1232 -0.1674 -0.1057
26244SOL    HW179310   4.528   9.540   5.184 -0.6245  1.0808  0.9027
26244SOL    HW279311   4.480   9.422   5.266  0.1202 -0.1886 -0.4471
26245SOL     OW79312   2.805   4.826   8.692  0.5817 -0.2263 -0.1261
26245SOL    HW179313   2.747   4.868   8.629  0.4617  0.2972  0.3242
26245SOL    HW279314   2.870   4.781   8.639  0.9394  0.8467 -0.6172
26246SOL     OW79315   3.962   8.898   0.753  0.3876 -0.0061  0.0996
26246SOL    HW179316   3.982   8.933   0.840  2.0325  0.5582 -0.4661
26246SOL    HW279317   3.993   8.808   0.755  0.2179 -0.0620  0.1804
26247SOL     OW79318   8.519   1.577   0.788 -0.0704  0.9658 -0.1837
26247SOL    HW179319   8.589   1.615   0.735  0.1846 -0.8839 -1.2466
26247SOL    HW279320   8.438   1.613   0.750  0.1660  0.5438 -1.1132
26248SOL     OW79321   9.148   1.497   5.965  0.3801 -0.0412 -0.3032
26248SOL    HW179322   9.203   1.511   6.041  1.1037 -0.1744 -0.7911
26248SOL    HW279323   9.179   1.561   5.901 -0.2488  0.0995 -0.4754
26249SOL     OW79324   1.279   8.819   9.920 -0.2297  0.6519  0.4430
26249SOL    HW179325   1.349   8.787   9.978 -1.4301 -1.6631  0.7252
26249SOL    HW279326   1.322   8.886   9.866  2.1366 -0.4733  0.7910
26250SOL     OW79327   1.146   5.211   0.328  0.1013 -0.1059  0.1558
26250SOL    HW179328   1.075   5.153   0.358 -0.0168 -1.5105 -2.5638
26250SOL    HW279329   1.142   5.286   0.387 -2.4373 -0.9914  1.2446
26251SOL     OW79330   0.362   9.218   3.903  0.4219 -0.1516  0.0770
26251SOL    HW179331   0.454   9.244   3.908  0.0219  1.5718 -0.8122
26251SOL    HW279332   0.347   9.203   3.809  0.0080 -1.3183  0.3150
26252SOL     OW79333   7.517   4.828   8.210  0.0818  0.3546  0.1000
26252SOL    HW179334   7.553   4.917   8.211 -1.1509  0.8966 -0.5990
26252SOL    HW279335   7.540   4.791   8.295  5.1969 -0.6303 -1.3776
26253SOL     OW79336   1.065   4.124   2.985  0.0714 -0.2615  0.5436
26253SOL    HW179337   1.103   4.146   3.070  0.5708 -1.1564  0.5608
26253SOL    HW279338   1.076   4.204   2.933  1.7824 -0.3938  0.6287
26254SOL     OW79339   9.736   8.440   8.938  0.5472  0.3037  0.2968
26254SOL    HW179340   9.733   8.427   9.032  0.1081  0.8421  0.3604
26254SOL    HW279341   9.672   8.508   8.921 -0.9890 -1.2884 -0.6540
26255SOL     OW79342   5.450   7.260   4.632 -0.0448 -0.0275 -0.0493
26255SOL    HW179343   5.359   7.247   4.606 -0.2965  0.2773  0.6491
26255SOL    HW279344   5.456   7.219   4.718  0.4894 -0.0771 -0.1090
26256SOL     OW79345   2.611   8.924   5.617  0.0643  0.4471 -0.6143
26256SOL    HW179346   2.620   8.870   5.695 -1.6062  1.3644  0.2651
26256SOL    HW279347   2.652   8.872   5.547  1.0325 -0.6678  0.7191
26257SOL     OW79348   4.298   1.385   4.804 -0.1080 -0.5176  0.1787
26257SOL    HW179349   4.232   1.316   4.794  1.0268 -1.8426  1.2708
26257SOL    HW279350   4.381   1.338   4.797  0.7095  0.8206  0.6539
26258SOL     OW79351   9.042   2.887   1.389  0.4547  0.7341  0.5687
26258SOL    HW179352   8.961   2.928   1.418 -0.5400  0.3035 -1.4202
26258SOL    HW279353   9.078   2.948   1.324  0.4106 -0.2227 -0.3735
26259SOL     OW79354   1.375   6.624   4.234  0.0235 -0.4277  0.5183
26259SOL    HW179355   1.315   6.690   4.267  0.1291 -0.5978  1.0546
26259SOL    HW279356   1.380   6.641   4.139 -1.5041 -0.9413  0.3232
26260SOL     OW79357   5.580   8.211   4.274 -0.5781  0.0539  0.4992
26260SOL    HW179358   5.520   8.205   4.348 -0.5344  2.0497  0.7590
26260SOL    HW279359   5.523   8.213   4.197 -1.2066  4.3063  0.8336
26261SOL     OW79360   2.552   4.242   8.020 -0.2710  0.1903 -0.3987
26261SOL    HW179361   2.568   4.263   8.112 -0.0723 -1.0439 -0.1289
26261SOL    HW279362   2.638   4.245   7.980 -0.2744  0.1358 -0.4101
26262SOL     OW79363   1.210   2.168   3.247  0.0207 -0.2285 -0.3305
26262SOL    HW179364   1.289   2.158   3.195 -0.3115 -1.1812 -0.6674
26262SOL    HW279365   1.241   2.185   3.336  0.6273 -1.8351 -0.2083
26263SOL     OW79366   1.897   6.586   9.024 -0.3137  0.0418  0.4406
26263SOL    HW179367   1.960   6.555   9.089  0.1638  0.8476  0.3701
26263SOL    HW279368   1.949   6.614   8.950 -0.7609  0.4996  0.2892
26264SOL     OW79369   7.220   1.436   9.973 -0.2566 -0.2292  0.4058
26264SOL    HW179370   7.167   1.514   9.954 -1.6470 -1.8781 -3.5858
26264SOL    HW279371   7.157   1.372  10.006 -0.3653 -1.3521 -1.8000
26265SOL     OW79372   7.340   9.094   5.935 -0.0604  0.2939 -0.1656
26265SOL    HW179373   7.280   9.082   5.862 -0.2137  0.0558 -0.0036
26265SOL    HW279374   7.397   9.017   5.932 -2.8923 -2.2219  2.6322
26266SOL     OW79375   4.083   5.873   5.886  0.2501  0.5949 -0.4713
26266SOL    HW179376   4.161   5.817   5.886  1.1303  1.7932 -0.6128
26266SOL    HW279377   4.010   5.812   5.869  0.8303 -0.9405  2.0540
26267SOL     OW79378   8.251   7.822   3.793 -0.2686 -0.6351  0.2650
26267SOL    HW179379   8.219   7.831   3.704  1.4698 -0.3634 -0.3674
26267SOL    HW279380   8.257   7.728   3.807  2.0278 -0.7174 -0.9233
26268SOL     OW79381   0.372   2.521   6.522 -0.0701 -0.1360  0.7330
26268SOL    HW179382   0.459   2.496   6.554  0.6519 -1.4603 -1.9316
26268SOL    HW279383   0.383   2.612   6.493  1.6900 -1.3542 -3.0404
26269SOL     OW79384   7.165   6.033   3.610  0.5103 -0.1324  0.5420
26269SOL    HW179385   7.113   6.032   3.529  0.4902  1.4958  0.4971
26269SOL    HW279386   7.254   6.052   3.582  0.3766  1.2098  0.9133
26270SOL     OW79387   6.126   9.794   5.493 -0.0426 -0.4465 -0.4001
26270SOL    HW179388   6.203   9.759   5.538 -0.4952 -0.5720  0.2832
26270SOL    HW279389   6.149   9.885   5.475 -0.0106 -0.2734  0.4558
26271SOL     OW79390   3.323   5.386   1.263  0.1657 -0.0514 -0.6210
26271SOL    HW179391   3.388   5.429   1.208  1.1424 -0.1851  0.3844
26271SOL    HW279392   3.239   5.408   1.224  0.6286  2.5209 -0.3305
26272SOL     OW79393   3.206   0.957   1.587  0.1307  0.5220 -0.5912
26272SOL    HW179394   3.183   0.893   1.520  0.1823 -0.8379  0.6324
26272SOL    HW279395   3.278   1.007   1.549  0.5333 -0.5861 -1.3371
26273SOL     OW79396   7.194   0.782   5.658  0.2149  0.7303  0.4414
26273SOL    HW179397   7.236   0.834   5.590  1.2650  1.2196  1.4341
26273SOL    HW279398   7.266   0.744   5.707 -0.5240  0.2530  1.1836
26274SOL     OW79399   0.763   1.720   9.732 -0.2975 -0.1997  0.0148
26274SOL    HW179400   0.761   1.753   9.822 -0.3043  1.1511 -0.4631
26274SOL    HW279401   0.754   1.625   9.741  1.0791 -0.2325  1.5143
26275SOL     OW79402   7.448   8.131   1.811  0.0173 -0.1159  0.6003
26275SOL    HW179403   7.460   8.203   1.873 -0.5032  0.5392 -0.0443
26275SOL    HW279404   7.459   8.171   1.725  0.7342 -1.0219  0.2637
26276SOL     OW79405   8.695   1.208   4.420  0.5755 -0.0689  0.2291
26276SOL    HW179406   8.711   1.170   4.506 -1.0480  0.3644  0.7455
26276SOL    HW279407   8.684   1.301   4.436  2.2873  0.3551 -0.7452
26277SOL     OW79408   5.261   0.761   9.380 -0.2120  0.5666 -0.1855
26277SOL    HW179409   5.334   0.736   9.323 -0.5056 -0.4273 -0.1559
26277SOL    HW279410   5.183   0.741   9.328 -0.4657  1.2775 -0.0817
26278SOL     OW79411   4.145   7.034   1.428 -0.0894  0.2926  0.0377
26278SOL    HW179412   4.051   7.049   1.423 -0.1671 -0.2668 -0.2966
26278SOL    HW279413   4.156   6.944   1.398  0.6588  0.6879 -0.9103
26279SOL     OW79414   5.336   8.370   6.764  0.1636 -0.1884 -0.1729
26279SOL    HW179415   5.281   8.302   6.803 -0.8933  0.8420  0.2093
26279SOL    HW279416   5.301   8.452   6.799  1.6120  0.5380 -0.3692
26280SOL     OW79417   2.818   3.658   1.603 -0.4263  0.3609 -0.0519
26280SOL    HW179418   2.867   3.645   1.522 -0.9312  0.4353 -0.3677
26280SOL    HW279419   2.882   3.697   1.663  0.1305 -0.3116 -0.2025
26281SOL     OW79420   1.355   7.190   2.679 -0.3993  0.8174 -0.7489
26281SOL    HW179421   1.390   7.136   2.608  0.4315  1.2269 -0.6612
26281SOL    HW279422   1.348   7.130   2.753  1.5360  1.0222 -0.3422
26282SOL     OW79423   4.196   0.177   4.068 -0.9104  0.6163 -0.2808
26282SOL    HW179424   4.281   0.198   4.029 -0.1697  0.2529  1.0628
26282SOL    HW279425   4.164   0.260   4.102  0.4704  0.2895  2.0796
26283SOL     OW79426   2.575   4.069   9.614 -0.2771  0.3217 -0.5565
26283SOL    HW179427   2.606   4.015   9.687 -1.5647  1.2788  0.7759
26283SOL    HW279428   2.650   4.124   9.591  0.3340 -0.4191 -0.3667
26284SOL     OW79429   9.443   7.459   1.408 -0.0530  0.1659  0.4511
26284SOL    HW179430   9.403   7.545   1.422  0.7161  0.7996 -1.0111
26284SOL    HW279431   9.515   7.476   1.348  0.6171 -1.3970  0.7617
26285SOL     OW79432   5.805   7.099   1.252  0.3671 -0.1038 -0.0160
26285SOL    HW179433   5.737   7.161   1.224  0.9138  0.5592  0.1031
26285SOL    HW279434   5.871   7.104   1.183  0.1007 -1.0714 -0.3500
26286SOL     OW79435   3.942   5.882   7.924  0.7078  0.2550 -0.2578
26286SOL    HW179436   3.897   5.845   7.848 -2.3471  2.5917  0.2201
26286SOL    HW279437   3.919   5.824   7.997  1.1518 -0.3307 -0.5806
26287SOL     OW79438   8.196   4.685   4.531 -0.3830 -0.3125 -0.2031
26287SOL    HW179439   8.250   4.699   4.453 -0.6627  0.1310 -0.3251
26287SOL    HW279440   8.196   4.770   4.575  1.0688 -0.9737  1.1372
26288SOL     OW79441   9.846   0.135   8.412  0.4428  0.5305 -0.1822
26288SOL    HW179442   9.826   0.047   8.381  0.0693  1.0338 -1.4360
26288SOL    HW279443   9.933   0.127   8.451  0.5923 -0.3155 -0.6598
26289SOL     OW79444   0.097   4.873   8.855  0.0627  0.3042  0.1525
26289SOL    HW179445   0.017   4.836   8.894 -0.2791  0.4334 -0.4049
26289SOL    HW279446   0.072   4.891   8.764  0.8198  0.0808 -0.1043
26290SOL     OW79447   3.795   6.960   4.834  0.8362  0.1987  0.0172
26290SOL    HW179448   3.702   6.939   4.847  1.0408  0.7090  2.9035
26290SOL    HW279449   3.814   6.928   4.746 -1.7698 -1.0063 -0.2167
26291SOL     OW79450   8.738   3.371   0.445  0.4273  0.4154 -0.5733
26291SOL    HW179451   8.787   3.453   0.445 -0.5526  1.0298  0.0079
26291SOL    HW279452   8.805   3.302   0.443  1.2550  1.2240 -1.3474
26292SOL     OW79453   8.212   3.330   8.765  0.6026  0.4756 -0.0623
26292SOL    HW179454   8.224   3.283   8.847  0.3546  1.9341  0.8555
26292SOL    HW279455   8.243   3.419   8.783  0.0565  0.9728 -1.3903
26293SOL     OW79456   9.442   0.856   8.909  0.1858  0.2710 -0.4582
26293SOL    HW179457   9.357   0.883   8.944  0.3035 -0.3325  0.3393
26293SOL    HW279458   9.506   0.893   8.970  0.4911  0.5418 -0.9344
26294SOL     OW79459   0.358   6.323   0.829 -0.6474  0.3328  0.6893
26294SOL    HW179460   0.308   6.243   0.848 -0.3263 -0.0342  0.0371
26294SOL    HW279461   0.320   6.355   0.747  0.2526 -0.0152  0.1247
26295SOL     OW79462   5.442   8.004   1.426  0.4325  0.2800 -1.0241
26295SOL    HW179463   5.451   8.097   1.447 -0.8807  0.8236 -2.5947
26295SOL    HW279464   5.391   8.003   1.345 -0.2401 -1.8562 -0.6406
26296SOL     OW79465   9.119   6.154   1.639  0.0154 -0.0289  0.0412
26296SOL    HW179466   9.028   6.159   1.666  0.2617  0.6484  0.7646
26296SOL    HW279467   9.166   6.126   1.717  0.6178  1.0843  0.0821
26297SOL     OW79468   1.289   4.080   1.895 -0.1371 -0.8659 -0.1368
26297SOL    HW179469   1.347   4.154   1.911 -1.6627  0.2356  0.6043
26297SOL    HW279470   1.347   4.008   1.871  1.3830  0.6124 -1.1077
26298SOL     OW79471   6.388   4.131   2.278  0.6834 -0.2863  0.2768
26298SOL    HW179472   6.397   4.163   2.367  0.5220 -0.6605  0.4282
26298SOL    HW279473   6.346   4.045   2.287  1.1124 -0.5470 -0.1225
26299SOL     OW79474   3.213   7.364   5.089  0.1635 -0.1374  0.3021
26299SOL    HW179475   3.253   7.444   5.055  0.6638 -0.1888  0.7534
26299SOL    HW279476   3.286   7.314   5.126 -0.3178 -0.2326  1.1437
26300SOL     OW79477   0.823   1.488   6.251  0.3319  0.1726  0.2516
26300SOL    HW179478   0.879   1.547   6.200 -1.8474  1.3727 -0.8878
26300SOL    HW279479   0.750   1.467   6.192  0.1656 -2.3559  1.2267
26301SOL     OW79480   2.256   6.431   6.371 -0.1554 -0.1564  0.2088
26301SOL    HW179481   2.323   6.497   6.387  0.4838 -0.6549 -0.3429
26301SOL    HW279482   2.298   6.368   6.313 -1.7166  0.4970 -1.7194
26302SOL     OW79483   4.214   4.338   5.991  0.0835  0.1869  0.3600
26302SOL    HW179484   4.244   4.383   5.912 -0.2126  0.0772  0.1803
26302SOL    HW279485   4.236   4.398   6.063  0.8872  0.0246  0.2528
26303SOL     OW79486   5.225   5.494   8.815 -0.5817 -0.1669  0.0820
26303SOL    HW179487   5.135   5.461   8.814 -0.5623 -0.3954 -2.7746
26303SOL    HW279488   5.222   5.575   8.765  0.9365 -0.7238 -1.0195
26304SOL     OW79489   1.698   0.094   9.267 -0.1868  0.3001  0.4019
26304SOL    HW179490   1.781   0.047   9.264 -0.8669 -0.9606 -1.9569
26304SOL    HW279491   1.708   0.164   9.203 -0.1888  1.6175  1.7982
26305SOL     OW79492   1.192   9.343   6.612  0.0016 -0.5281  0.3051
26305SOL    HW179493   1.226   9.395   6.685 -0.3969  0.7543 -0.3960
26305SOL    HW279494   1.256   9.357   6.542 -0.8171  0.1630 -0.3271
26306SOL     OW79495   0.241   6.732   5.537 -0.5122 -0.6533  0.3936
26306SOL    HW179496   0.307   6.751   5.604 -0.4786  0.6385  0.0133
26306SOL    HW279497   0.292   6.719   5.457 -0.6029 -1.4969  0.4640
26307SOL     OW79498   6.405   6.178   4.649  0.3315  0.2536  0.4878
26307SOL    HW179499   6.436   6.265   4.675  1.0276 -0.0723  0.7636
26307SOL    HW279500   6.482   6.122   4.656 -0.2111 -0.4707  0.7206
26308SOL     OW79501   1.663   5.066   8.944  0.2162  0.0530  0.1454
26308SOL    HW179502   1.750   5.088   8.978  0.7940 -1.7988 -0.0376
26308SOL    HW279503   1.664   5.097   8.854  0.8965 -0.4228 -0.0191
26309SOL     OW79504   9.455   0.245   8.160 -0.5021 -0.1438 -0.6091
26309SOL    HW179505   9.452   0.315   8.094  0.2410  0.9278  0.4571
26309SOL    HW279506   9.367   0.243   8.196 -0.1041  1.4575  0.5438
26310SOL     OW79507   8.227   7.538   8.612  0.0697  0.4377 -0.0352
26310SOL    HW179508   8.136   7.509   8.616  0.3600 -0.7147 -1.0960
26310SOL    HW279509   8.278   7.459   8.632  0.8482  0.8521 -0.3291
26311SOL     OW79510   8.834   5.491   5.299  0.2969  0.2983 -0.7218
26311SOL    HW179511   8.759   5.477   5.242 -0.1237  1.8846 -0.5785
26311SOL    HW279512   8.909   5.459   5.248 -0.2789  0.0857 -1.4476
26312SOL     OW79513   7.286   3.135   0.172 -0.1932 -0.4036  0.3906
26312SOL    HW179514   7.357   3.071   0.163  0.2122  0.0855  0.0993
26312SOL    HW279515   7.314   3.210   0.120 -1.6988 -0.8528 -1.1904
26313SOL     OW79516   6.331   7.444   6.181 -0.0185 -0.4227 -0.1343
26313SOL    HW179517   6.425   7.461   6.188 -0.3620  1.5909  0.1136
26313SOL    HW279518   6.302   7.435   6.272 -0.4103  1.2059 -0.0733
26314SOL     OW79519   9.747   6.944   2.940 -0.9472 -0.0079  0.3227
26314SOL    HW179520   9.690   6.944   2.862 -1.3074 -0.7840  0.5733
26314SOL    HW279521   9.747   7.034   2.970 -2.4782 -0.0766  0.6136
26315SOL     OW79522   7.596   1.890   4.724  0.5026 -0.0928 -0.6061
26315SOL    HW179523   7.566   1.862   4.811  0.1029 -1.3263 -1.1145
26315SOL    HW279524   7.668   1.831   4.703  0.9318  0.5255 -0.9139
26316SOL     OW79525   4.816   1.649   9.570 -0.2574 -0.3133 -0.5147
26316SOL    HW179526   4.802   1.586   9.640 -1.8993 -0.4270 -0.8936
26316SOL    HW279527   4.901   1.627   9.533  0.3917 -0.5895  1.0767
26317SOL     OW79528   6.146   5.511   3.726  0.4250  0.1070 -0.1441
26317SOL    HW179529   6.057   5.510   3.692  0.3362  0.3808  0.0764
26317SOL    HW279530   6.145   5.580   3.793  0.4462 -0.7549  0.7806
26318SOL     OW79531   6.653   0.389   4.735  0.3029 -0.3469  0.1599
26318SOL    HW179532   6.559   0.394   4.717 -0.0752 -2.1210  1.2921
26318SOL    HW279533   6.660   0.404   4.830  1.6469  3.6397 -0.3983
26319SOL     OW79534   2.074   5.350   2.282 -0.7520 -0.2176 -0.0729
26319SOL    HW179535   1.992   5.373   2.325 -1.1595 -0.4238 -0.7193
26319SOL    HW279536   2.051   5.344   2.189 -0.0124 -0.3125 -0.2567
26320SOL     OW79537   5.270   0.770   2.689 -0.0381 -0.1339  0.1844
26320SOL    HW179538   5.299   0.685   2.654 -0.3661 -0.2421  0.1702
26320SOL    HW279539   5.302   0.834   2.625 -2.3641 -0.4857 -1.4326
26321SOL     OW79540   9.200   2.419   5.069 -0.6299  1.0993  0.1959
26321SOL    HW179541   9.225   2.507   5.039 -1.3505  1.1796 -0.1932
26321SOL    HW279542   9.231   2.416   5.160  0.2528  1.3994 -0.0820
26322SOL     OW79543   7.155   1.961   5.581  0.4920 -0.3782  0.2760
26322SOL    HW179544   7.105   1.887   5.615  2.6131 -1.8227  0.3885
26322SOL    HW279545   7.237   1.960   5.629  1.4063  0.8255 -1.1462
26323SOL     OW79546   1.816   0.100   0.276  0.3254  0.3739  0.1418
26323SOL    HW179547   1.868   0.072   0.351  1.9417  1.2080 -0.6375
26323SOL    HW279548   1.868   0.167   0.233 -0.7350  0.2049 -1.5152
26324SOL     OW79549   5.569   9.766   5.388  0.2264  0.3390  0.3531
26324SOL    HW179550   5.585   9.825   5.314  0.3462  0.2109  0.2771
26324SOL    HW279551   5.475   9.749   5.385  0.3061 -0.0536 -0.0650
26325SOL     OW79552   9.013   2.615   1.355 -0.0992 -0.7065  0.4827
26325SOL    HW179553   9.024   2.710   1.359  1.5901 -0.8333 -0.0240
26325SOL    HW279554   9.096   2.584   1.317 -0.5859 -2.3841  0.7313
26326SOL     OW79555   9.947   3.964   1.750 -0.2055 -0.6826  0.4141
26326SOL    HW179556   9.885   3.917   1.694 -0.5692 -0.1664  0.3815
26326SOL    HW279557   9.939   4.055   1.723 -1.1575 -0.2657  2.0399
26327SOL     OW79558   8.651   7.791   1.078  0.3033  0.7797  0.5638
26327SOL    HW179559   8.684   7.814   0.991 -0.5607  0.0523  0.0162
26327SOL    HW279560   8.622   7.874   1.115  1.3768  1.2075  0.4726
26328SOL     OW79561   0.096   1.129   2.439 -0.0873  0.6166  0.4005
26328SOL    HW179562   0.057   1.082   2.512  0.7601 -0.4704  0.1847
26328SOL    HW279563   0.114   1.061   2.374 -0.3207  1.4861 -0.5912
26329SOL     OW79564   3.270   6.425   8.081 -0.0965 -0.2701  0.6932
26329SOL    HW179565   3.183   6.397   8.110 -0.4845  1.3211  1.1816
26329SOL    HW279566   3.260   6.519   8.062  0.8499 -0.6041 -1.8963
26330SOL     OW79567   2.740   9.568   2.100  0.4110  0.5317  0.2909
26330SOL    HW179568   2.670   9.606   2.154  1.2434  3.1506 -0.3147
26330SOL    HW279569   2.729   9.609   2.014  1.8087 -0.1505 -0.2489
26331SOL     OW79570   5.244   8.508   7.878 -0.5118 -0.6989  0.0981
26331SOL    HW179571   5.304   8.582   7.870 -0.9855 -0.3458 -0.2183
26331SOL    HW279572   5.301   8.431   7.877 -0.0626 -0.3677 -0.2143
26332SOL     OW79573   6.859   4.562   8.673  0.5722  0.1761  0.1868
26332SOL    HW179574   6.791   4.496   8.683 -0.3102  0.7147 -1.8570
26332SOL    HW279575   6.875   4.568   8.579  1.8175  1.6932  0.4406
26333SOL     OW79576   6.670   0.431   6.656  0.6761 -0.3869  0.3376
26333SOL    HW179577   6.582   0.417   6.620 -0.0990 -1.6664  2.5149
26333SOL    HW279578   6.676   0.525   6.670  0.0680 -0.1633 -0.7631
26334SOL     OW79579   5.166   8.862   2.447  0.8437 -0.1545  0.4418
26334SOL    HW179580   5.156   8.897   2.358 -0.9681 -0.6465  0.4142
26334SOL    HW279581   5.261   8.854   2.458  1.2157  1.7208 -0.7186
26335SOL     OW79582   3.628   5.988   4.815 -0.3845 -0.4753  0.3520
26335SOL    HW179583   3.628   5.973   4.721 -0.8211 -1.1332  0.4507
26335SOL    HW279584   3.699   6.051   4.830  0.5428 -1.3585 -0.2581
26336SOL     OW79585   4.864   4.992   3.291  0.5935  0.4948  0.5803
26336SOL    HW179586   4.953   5.001   3.326  0.7281  0.3910  0.2688
26336SOL    HW279587   4.812   4.963   3.366  0.7217  1.0352  0.8842
26337SOL     OW79588   4.530   1.174   6.792  0.2665 -0.1006  0.5331
26337SOL    HW179589   4.457   1.206   6.844  0.9332 -1.2603  2.2586
26337SOL    HW279590   4.502   1.088   6.761  0.3467  0.0712 -0.0395
26338SOL     OW79591   2.829   3.826   5.330 -0.1156 -0.1735 -0.3210
26338SOL    HW179592   2.876   3.846   5.411  0.6830 -1.4254 -0.4548
26338SOL    HW279593   2.889   3.772   5.280 -0.9644 -0.1939 -1.3502
26339SOL     OW79594   2.197   4.298   4.145 -0.1664  0.5794  0.1545
26339SOL    HW179595   2.210   4.252   4.228  0.4324  1.8160  0.7657
26339SOL    HW279596   2.158   4.382   4.170  0.4374  1.1501 -0.7815
26340SOL     OW79597   0.985   3.605   7.172 -0.2241  0.6496 -0.1737
26340SOL    HW179598   1.012   3.672   7.236  4.2056 -0.5325 -0.4328
26340SOL    HW279599   0.968   3.527   7.224  3.6934 -0.4029 -0.1598
26341SOL     OW79600   1.849   8.657   0.393  0.1855 -0.3313  0.1916
26341SOL    HW179601   1.802   8.613   0.322  1.6065 -0.4353 -0.7187
26341SOL    HW279602   1.865   8.745   0.360  0.8207 -0.3701  0.3848
26342SOL     OW79603   0.627   5.609   5.163  0.7447  0.0266  0.4360
26342SOL    HW179604   0.566   5.542   5.132  2.2825 -0.4217 -1.8682
26342SOL    HW279605   0.571   5.675   5.204 -1.1755 -0.8933 -0.5573
26343SOL     OW79606   7.500   2.781   2.472  0.1774 -0.1659 -0.1848
26343SOL    HW179607   7.503   2.828   2.389  1.1732 -0.1304 -0.1346
26343SOL    HW279608   7.441   2.834   2.527 -0.5147 -0.2091 -0.8638
26344SOL     OW79609   6.646   1.104   1.166 -0.2601 -0.1548 -0.1295
26344SOL    HW179610   6.657   1.122   1.072  1.8011  1.0457  0.2915
26344SOL    HW279611   6.594   1.178   1.198  0.0128  0.0302 -0.1152
26345SOL     OW79612   9.003   9.818   9.077 -0.8709  0.3010 -0.2786
26345SOL    HW179613   9.001   9.725   9.101 -1.1699  0.2571 -0.4691
26345SOL    HW279614   8.948   9.861   9.142 -2.7005  0.0197 -1.5507
26346SOL     OW79615   4.622   4.058   9.122 -0.3671 -0.5576 -0.2319
26346SOL    HW179616   4.651   4.044   9.032  0.7791 -0.6689  0.1389
26346SOL    HW279617   4.661   4.141   9.148  0.2934 -1.0807  0.5315
26347SOL     OW79618   9.870   8.340   8.559  0.1908  0.0308  0.3957
26347SOL    HW179619   9.866   8.355   8.465 -0.5554 -0.7240  0.2973
26347SOL    HW279620   9.943   8.394   8.589 -0.1066  0.9387 -0.4785
26348SOL     OW79621   7.249   5.639   2.864 -0.5075 -0.2913 -0.1348
26348SOL    HW179622   7.332   5.630   2.909 -0.7243  0.3446  0.4040
26348SOL    HW279623   7.194   5.690   2.924 -0.8246  0.4942 -1.0559
26349SOL     OW79624   8.822   6.875   9.120  0.8148 -0.1508 -0.1621
26349SOL    HW179625   8.855   6.793   9.082  1.5909  0.1203 -0.0873
26349SOL    HW279626   8.750   6.848   9.177 -0.0651 -0.6144 -1.4439
26350SOL     OW79627   4.925   0.043   5.370 -0.1665  0.1874 -0.8128
26350SOL    HW179628   4.910   0.019   5.461 -1.5652 -1.0354 -1.3197
26350SOL    HW279629   4.841   0.028   5.327  0.5560  0.3910 -2.3782
26351SOL     OW79630   9.164   0.635   3.740  0.3276 -0.1971 -0.6973
26351SOL    HW179631   9.214   0.579   3.681 -0.1241 -0.9172 -0.4082
26351SOL    HW279632   9.080   0.648   3.695  0.1884 -0.2928 -0.4650
26352SOL     OW79633   7.709   5.844   7.865 -0.7139 -0.0039  0.3016
26352SOL    HW179634   7.696   5.827   7.959  0.4936  1.1778  0.7090
26352SOL    HW279635   7.712   5.939   7.858  0.7729 -0.0943 -0.7018
26353SOL     OW79636   5.384   2.807   4.980  0.5224  0.1456  0.6743
26353SOL    HW179637   5.367   2.873   4.913 -0.2133 -1.0739 -0.3704
26353SOL    HW279638   5.306   2.809   5.036 -1.4808 -2.5789 -1.7269
26354SOL     OW79639   9.508   8.170   4.561 -0.1558 -0.2120 -0.1023
26354SOL    HW179640   9.500   8.081   4.525  0.8293  0.7527 -3.0307
26354SOL    HW279641   9.599   8.194   4.542 -0.3996  1.4020  0.6786
26355SOL     OW79642   1.707   0.537   8.524 -0.4935 -0.4337  0.4502
26355SOL    HW179643   1.749   0.522   8.439 -1.2808 -1.5488  0.2300
26355SOL    HW279644   1.613   0.540   8.504 -0.5968  1.5346  0.9924
26356SOL     OW79645   9.149   7.181   0.822  0.5598  0.2773  0.4891
26356SOL    HW179646   9.199   7.250   0.866 -3.5690  3.3917  0.9024
26356SOL    HW279647   9.083   7.154   0.886 -0.1705 -1.5466 -0.9104
26357SOL     OW79648   4.220   3.625   6.119  0.1060  0.3696 -0.6880
26357SOL    HW179649   4.296   3.681   6.104  0.5846 -0.5916 -1.9763
26357SOL    HW279650   4.257   3.541   6.146 -0.5158  0.0220 -0.8961
26358SOL     OW79651   1.831   3.406   9.824  0.1409 -0.1267  0.1835
26358SOL    HW179652   1.740   3.418   9.851 -0.0200 -0.9261  0.0222
26358SOL    HW279653   1.833   3.436   9.734 -0.0399 -0.4135  0.0830
26359SOL     OW79654   7.622   7.430   6.689 -0.1185 -0.5178  0.4010
26359SOL    HW179655   7.542   7.381   6.671  0.8177 -0.7353 -4.3606
26359SOL    HW279656   7.600   7.521   6.667  1.0022 -0.6859 -1.6490
26360SOL     OW79657   4.831   0.998   8.493  0.0954  0.2456 -0.6400
26360SOL    HW179658   4.784   1.072   8.531 -0.4512  0.1758 -1.1605
26360SOL    HW279659   4.763   0.933   8.477  0.5470 -0.2976 -0.3584
26361SOL     OW79660   0.129   3.916   0.855 -0.1868 -0.2126 -0.4127
26361SOL    HW179661   0.090   3.909   0.768 -0.3728 -0.1333 -0.3347
26361SOL    HW279662   0.128   3.827   0.890 -0.5285 -0.1697 -0.3099
26362SOL     OW79663   6.871   4.793   8.361 -0.1200  0.1011  0.2994
26362SOL    HW179664   6.874   4.833   8.274  1.0783 -1.8470 -0.6328
26362SOL    HW279665   6.933   4.845   8.413  1.1161 -0.2487 -0.7670
26363SOL     OW79666   6.445   1.707   7.592  0.5992  0.1232 -0.3071
26363SOL    HW179667   6.454   1.616   7.619 -1.5557 -0.1711 -0.4443
26363SOL    HW279668   6.386   1.705   7.518  2.9913  1.3836 -2.4102
26364SOL     OW79669   7.862   6.872   6.047 -0.4918  0.2960 -0.1687
26364SOL    HW179670   7.818   6.788   6.035 -1.3591  0.6657  0.3282
26364SOL    HW279671   7.845   6.895   6.139 -1.4909  1.6877 -0.6711
26365SOL     OW79672   3.502   9.248   3.788  0.4574  0.2831 -0.6922
26365SOL    HW179673   3.463   9.177   3.739 -0.6500  1.2632 -1.2920
26365SOL    HW279674   3.591   9.256   3.754 -0.0971  0.5517 -2.1355
26366SOL     OW79675   7.417   7.068   8.620 -0.0477  0.3224 -0.3583
26366SOL    HW179676   7.478   7.045   8.551  1.4554  3.5975 -0.3364
26366SOL    HW279677   7.364   7.139   8.583 -2.1649 -0.7223  0.4965
26367SOL     OW79678   0.777   9.224   0.907  0.4331 -0.0887 -0.3173
26367SOL    HW179679   0.789   9.148   0.850  1.7592 -1.7125  1.9280
26367SOL    HW279680   0.865   9.258   0.921 -0.2502  3.0010 -2.5284
26368SOL     OW79681   5.733   9.500   7.913 -0.4408 -0.4991  0.0816
26368SOL    HW179682   5.660   9.441   7.892  0.0203 -0.5323 -1.5255
26368SOL    HW279683   5.691   9.582   7.938 -1.0582 -1.1315  1.2249
26369SOL     OW79684   1.858   2.832   9.221  0.0840  0.1451 -0.0054
26369SOL    HW179685   1.870   2.758   9.162 -0.0664 -0.2880  0.4980
26369SOL    HW279686   1.788   2.804   9.281 -0.1601  0.7968  0.0233
26370SOL     OW79687   6.806   6.755   5.118 -0.4874  0.5193 -0.0730
26370SOL    HW179688   6.897   6.774   5.093 -0.3004 -0.5298 -0.2672
26370SOL    HW279689   6.783   6.822   5.181  0.9759 -0.1166  1.1931
26371SOL     OW79690   7.646   2.876   3.078  0.0843 -0.1280  0.2891
26371SOL    HW179691   7.693   2.794   3.064  3.8361  1.6941  0.7272
26371SOL    HW279692   7.605   2.866   3.163  0.2065 -1.6455  0.1970
26372SOL     OW79693   8.909   5.755   5.565 -0.3733  0.4140 -0.2760
26372SOL    HW179694   8.985   5.738   5.621 -0.5227  2.2005  0.5630
26372SOL    HW279695   8.945   5.756   5.476 -0.0532 -2.0343 -0.2461
26373SOL     OW79696   0.222   1.301   2.848 -0.5720  0.1082 -0.1605
26373SOL    HW179697   0.307   1.258   2.856 -1.2907 -1.2332  0.6688
26373SOL    HW279698   0.220   1.333   2.758  1.6241  2.0197  0.3683
26374SOL     OW79699   3.115   1.613   8.074 -0.2733 -0.3474  0.2243
26374SOL    HW179700   3.182   1.553   8.107  1.9351  0.8573 -1.7457
26374SOL    HW279701   3.067   1.561   8.009  0.3576 -0.5612 -0.0855
26375SOL     OW79702   2.909   6.688   3.950  0.4123 -0.2012  0.2286
26375SOL    HW179703   2.949   6.648   4.028  0.6743 -0.4360 -0.0278
26375SOL    HW279704   2.903   6.617   3.887  1.1530  0.2271 -0.3337
26376SOL     OW79705   2.311   4.739   1.013 -0.3808 -0.3504 -0.2505
26376SOL    HW179706   2.354   4.714   0.932  0.6060 -1.2219  0.5120
26376SOL    HW279707   2.223   4.764   0.987  0.4526  1.1455 -1.8240
26377SOL     OW79708   5.868   2.550   9.576  0.2154  0.4168 -0.2807
26377SOL    HW179709   5.871   2.468   9.528  0.7565 -0.0166  0.4768
26377SOL    HW279710   5.790   2.594   9.544  1.1626  0.6620 -2.3817
26378SOL     OW79711   9.543   1.386   0.700  0.6077 -0.2025  0.3245
26378SOL    HW179712   9.469   1.327   0.694  0.4443  0.0048  0.2852
26378SOL    HW279713   9.573   1.378   0.791  0.1015  0.2372  0.5347
26379SOL     OW79714   5.435   2.113   5.654 -0.2557  0.1666 -0.1186
26379SOL    HW179715   5.390   2.061   5.720  0.1123 -2.0000 -1.4769
26379SOL    HW279716   5.513   2.147   5.698  0.2434 -1.6425  0.4663
26380SOL     OW79717   4.343   4.911   0.407 -0.1737 -0.0576 -0.2986
26380SOL    HW179718   4.257   4.918   0.364 -0.1364 -1.3785 -0.6278
26380SOL    HW279719   4.353   4.994   0.453 -0.7296  0.9644 -1.9119
26381SOL     OW79720   8.118   7.355   8.922  0.8850  0.3379 -0.4662
26381SOL    HW179721   8.076   7.440   8.915  1.4391  0.5549 -1.3099
26381SOL    HW279722   8.090   7.308   8.843 -0.4970 -0.7754  0.6370
26382SOL     OW79723   6.983   7.409   9.810  0.0646  0.1807 -0.4205
26382SOL    HW179724   7.067   7.446   9.836  1.3005 -1.4161 -1.8734
26382SOL    HW279725   6.922   7.438   9.878  2.3131 -0.8180  2.2798
26383SOL     OW79726   0.651   8.833   7.860 -0.2216  0.4453  0.3139
26383SOL    HW179727   0.710   8.883   7.805  0.5820 -1.7408 -0.9299
26383SOL    HW279728   0.575   8.890   7.873 -0.5646  0.9943 -3.2686
26384SOL     OW79729   9.479   5.149   9.113  0.1164 -0.3851 -0.1212
26384SOL    HW179730   9.569   5.163   9.083 -0.3192 -0.2015 -1.4157
26384SOL    HW279731   9.470   5.206   9.190  1.2178 -0.7164  0.2730
26385SOL     OW79732   2.521   1.790   7.478  0.4020  0.2065  0.2976
26385SOL    HW179733   2.546   1.716   7.534 -1.5947 -0.0039  0.9884
26385SOL    HW279734   2.440   1.761   7.436  0.7663  1.1748 -1.1431
26386SOL     OW79735   4.493   7.353   6.156 -0.5333  0.2356 -0.1936
26386SOL    HW179736   4.506   7.266   6.192  0.0614  0.6532  0.6362
26386SOL    HW279737   4.411   7.383   6.195 -0.1959  0.4526  0.3652
26387SOL     OW79738   9.447   2.671   2.978  0.1435 -0.0043  0.3106
26387SOL    HW179739   9.442   2.621   2.896 -1.0921 -1.4428  1.2189
26387SOL    HW279740   9.540   2.673   2.999  0.3796 -0.4131 -0.6489
26388SOL     OW79741   9.158   2.899   6.109  0.1483 -0.0430 -0.2200
26388SOL    HW179742   9.218   2.827   6.091 -0.7118 -1.1273  1.0941
26388SOL    HW279743   9.081   2.881   6.056  0.0952  0.1587 -0.2154
26389SOL     OW79744   1.433   4.220   8.559  0.3286  0.5064  0.2149
26389SOL    HW179745   1.503   4.285   8.563 -0.0732  0.9163  0.7610
26389SOL    HW279746   1.357   4.264   8.597  0.1803 -0.4342  1.0529
26390SOL     OW79747   8.834   1.595   6.517 -0.0269  0.4369 -0.1466
26390SOL    HW179748   8.769   1.542   6.470  2.4608 -1.3696 -1.9040
26390SOL    HW279749   8.810   1.588   6.609 -1.2589 -1.7210 -0.5694
26391SOL     OW79750   5.551   9.713   2.458 -0.1608  0.0880 -0.2129
26391SOL    HW179751   5.580   9.645   2.397 -0.6409 -1.0125  0.7549
26391SOL    HW279752   5.493   9.768   2.406 -0.1210 -0.5082 -0.9035
26392SOL     OW79753   1.235   6.398   2.792  0.1171 -0.4354 -0.9487
26392SOL    HW179754   1.277   6.377   2.709  0.6455 -0.7137 -0.6220
26392SOL    HW279755   1.142   6.392   2.775  0.2145 -0.0715 -1.6295
26393SOL     OW79756   4.148   6.741   8.901 -0.0975  0.2824  0.1355
26393SOL    HW179757   4.058   6.752   8.869 -0.2500  0.2216  0.5470
26393SOL    HW279758   4.171   6.652   8.874 -0.9210 -0.5032  1.8877
26394SOL     OW79759   2.816   1.949   0.113 -0.0813 -0.2844 -0.1627
26394SOL    HW179760   2.880   1.965   0.044 -2.2983  0.1654 -2.2196
26394SOL    HW279761   2.826   1.856   0.134  1.5424 -0.1201 -0.0396
26395SOL     OW79762   3.660   0.255   2.651  0.0643 -0.6177  0.4280
26395SOL    HW179763   3.578   0.222   2.686 -0.6957  1.4084  0.7122
26395SOL    HW279764   3.664   0.346   2.681  1.7737 -0.2764 -0.6668
26396SOL     OW79765   1.373   9.368   1.332  0.5316  0.2655  0.6337
26396SOL    HW179766   1.336   9.327   1.410  3.0536 -1.5053  1.0451
26396SOL    HW279767   1.415   9.448   1.364 -0.0462  0.5350  0.7309
26397SOL     OW79768   0.614   6.410   6.166 -0.1234  0.2691 -0.4922
26397SOL    HW179769   0.534   6.430   6.117  0.9988  2.1091 -1.7186
26397SOL    HW279770   0.598   6.446   6.254 -1.2606 -0.9235 -0.1902
26398SOL     OW79771   6.274   8.696   7.392  0.3950 -0.3220 -0.4780
26398SOL    HW179772   6.295   8.620   7.338 -1.4824 -0.2896 -1.3302
26398SOL    HW279773   6.354   8.748   7.392  1.7716 -2.3285  0.2415
26399SOL     OW79774   8.053   0.743   4.105 -0.0708  0.2003  0.0782
26399SOL    HW179775   8.092   0.791   4.032 -3.0320  0.1094 -1.7284
26399SOL    HW279776   8.044   0.809   4.174 -1.4752  1.5929 -1.3579
26400SOL     OW79777   3.471   9.667   6.617 -0.4278 -0.6958 -0.5474
26400SOL    HW179778   3.497   9.752   6.583 -0.6861 -0.4307 -0.0882
26400SOL    HW279779   3.538   9.647   6.683 -0.6711 -0.5960 -0.2681
26401SOL     OW79780   9.678   2.715   0.726 -0.5467  0.7407 -0.0097
26401SOL    HW179781   9.746   2.783   0.733 -0.8585  1.0865 -0.3117
26401SOL    HW279782   9.716   2.650   0.667 -0.7074  1.2292 -0.6693
26402SOL     OW79783   2.851   2.798   2.623  0.2052  0.3569  0.0394
26402SOL    HW179784   2.866   2.720   2.570  1.3618 -0.5162  1.5691
26402SOL    HW279785   2.756   2.800   2.638  0.0567 -0.2031 -0.7999
26403SOL     OW79786   3.917   0.943   1.573  0.2883  0.4288  0.3356
26403SOL    HW179787   3.901   0.909   1.485  2.5612  0.9488 -0.3425
26403SOL    HW279788   3.982   0.883   1.611 -1.6994 -0.6312  2.2755
26404SOL     OW79789   4.829   3.035   7.825  0.4760  0.1193  0.4697
26404SOL    HW179790   4.856   3.016   7.735  2.9101 -1.0349  1.3471
26404SOL    HW279791   4.902   3.003   7.879 -1.4816 -0.5200  2.9460
26405SOL     OW79792   5.792   8.618   8.943  0.0244  0.3254  0.2005
26405SOL    HW179793   5.844   8.545   8.911 -0.5111 -0.0954  0.2802
26405SOL    HW279794   5.706   8.581   8.960  0.3713  0.4394  2.5146
26406SOL     OW79795   3.427   3.073   5.776  0.3884 -0.8178 -0.1000
26406SOL    HW179796   3.468   3.041   5.856  0.8193 -1.5326 -0.5998
26406SOL    HW279797   3.389   3.158   5.801  0.7612 -0.9013  0.7823
26407SOL     OW79798   0.567   2.252   3.551 -0.0672  0.0522 -0.4080
26407SOL    HW179799   0.607   2.280   3.468 -0.7263  0.1484 -0.7024
26407SOL    HW279800   0.625   2.184   3.584 -0.8264 -1.4071 -1.9519
26408SOL     OW79801   5.975   7.946   0.057  0.1166  0.5324  0.0276
26408SOL    HW179802   6.011   7.914  -0.026 -0.0709  1.1914 -0.3087
26408SOL    HW279803   5.977   8.041   0.050  0.3625  0.6034  0.8994
26409SOL     OW79804   1.911   2.632   3.398  0.1309  0.1800  0.3976
26409SOL    HW179805   1.953   2.704   3.445  0.4917  0.5580 -0.4874
26409SOL    HW279806   1.859   2.674   3.330  0.7984 -0.3939 -0.5004
26410SOL     OW79807   0.861   8.471   7.233  0.4029 -0.4049 -0.0196
26410SOL    HW179808   0.874   8.405   7.166 -0.6103  0.0225 -0.6569
26410SOL    HW279809   0.936   8.530   7.224 -0.3265  0.3408 -1.6289
26411SOL     OW79810   4.263   2.243   7.261 -1.1833  0.2115  0.0700
26411SOL    HW179811   4.242   2.323   7.311  0.4356  0.3822  0.5312
26411SOL    HW279812   4.272   2.273   7.171  0.1394  0.7095  0.3483
26412SOL     OW79813   5.028   4.089   0.097  0.0944  0.4734 -0.2606
26412SOL    HW179814   5.095   4.155   0.115 -2.0187  2.6488  0.1411
26412SOL    HW279815   4.975   4.086   0.176 -0.6930 -0.6854 -0.8096
26413SOL     OW79816   8.818   7.043   6.343  0.6508  0.1084  0.1472
26413SOL    HW179817   8.775   6.990   6.410 -1.1855 -0.1061 -1.1239
26413SOL    HW279818   8.783   7.010   6.260  1.0481  1.9200 -0.7940
26414SOL     OW79819   2.638   7.876   1.704  0.3158 -0.4791  0.5413
26414SOL    HW179820   2.691   7.892   1.782  0.8034  1.8810 -0.1751
26414SOL    HW279821   2.618   7.964   1.671 -0.8968 -1.3911 -1.3066
26415SOL     OW79822   9.611   1.070   7.465  0.1965  0.3862 -0.5017
26415SOL    HW179823   9.632   1.143   7.524 -1.1517  0.3353  0.0865
26415SOL    HW279824   9.694   1.048   7.423  0.9191  1.3035  0.3963
26416SOL     OW79825   9.246   7.244   3.953 -0.1645  0.7723 -0.4740
26416SOL    HW179826   9.253   7.327   3.906 -1.8294  1.4236  0.3277
26416SOL    HW279827   9.181   7.194   3.903 -0.5314  0.7102  0.0521
26417SOL     OW79828   9.387   6.334   4.630  0.0135 -0.2621  0.4830
26417SOL    HW179829   9.475   6.319   4.664  0.7534  2.6352  0.0748
26417SOL    HW279830   9.399   6.399   4.560 -2.4380  0.2259  0.4412
26418SOL     OW79831   8.932   5.825   3.256  0.3778  0.7777  0.0928
26418SOL    HW179832   9.000   5.815   3.323  0.1659  0.1866  0.2211
26418SOL    HW279833   8.852   5.844   3.306 -0.0057 -0.7185  0.0943
26419SOL     OW79834   5.601   6.013   4.424 -0.0889 -0.7650 -0.0621
26419SOL    HW179835   5.613   5.990   4.516 -3.8886  0.5892  0.9317
26419SOL    HW279836   5.559   5.936   4.385 -2.6561  0.2448  0.5510
26420SOL     OW79837   1.178   3.872   0.343 -1.0334  0.0667 -0.0934
26420SOL    HW179838   1.214   3.785   0.326  4.4013  1.8235  0.4280
26420SOL    HW279839   1.196   3.921   0.263  0.2297  1.7391  1.1485
26421SOL     OW79840   2.661   5.124   7.753  0.3887 -0.0808  0.3897
26421SOL    HW179841   2.586   5.064   7.756  0.7546 -0.5717  0.0053
26421SOL    HW279842   2.730   5.078   7.801  0.4459  0.3721  0.7472
26422SOL     OW79843   0.769   3.725   0.676  0.0605  0.6684  0.5620
26422SOL    HW179844   0.758   3.723   0.581  0.4351  0.7867  0.5127
26422SOL    HW279845   0.736   3.640   0.706  2.2753 -0.4621  0.0447
26423SOL     OW79846   8.895   3.136   8.531  0.0882  0.1619 -0.1576
26423SOL    HW179847   8.981   3.179   8.537  0.6845 -1.0439  0.2331
26423SOL    HW279848   8.868   3.125   8.622 -0.6385  0.8078 -0.2842
26424SOL     OW79849   9.039   4.715   4.986  0.6404 -0.2970 -0.1176
26424SOL    HW179850   9.083   4.752   5.062  0.5615 -1.1801  0.3715
26424SOL    HW279851   9.102   4.653   4.949 -0.4550 -2.2389  1.1111
26425SOL     OW79852   0.290   7.440   3.741 -0.4644  0.0026 -0.7322
26425SOL    HW179853   0.267   7.426   3.650 -0.5978 -3.3489 -0.3040
26425SOL    HW279854   0.225   7.390   3.790  1.1607 -0.4760  1.0632
26426SOL     OW79855   6.989   2.349   1.866  0.7011  0.4643  0.5075
26426SOL    HW179856   6.987   2.267   1.916 -0.8703  0.1174 -0.0745
26426SOL    HW279857   6.977   2.417   1.932 -1.3802  0.0068  0.6538
26427SOL     OW79858   0.521   4.465   7.678  0.0674  0.5982  0.3043
26427SOL    HW179859   0.578   4.479   7.603 -0.3527 -1.3007 -0.4225
26427SOL    HW279860   0.578   4.433   7.747  0.0977 -0.0469 -0.0116
26428SOL     OW79861   3.546   2.134   1.789 -0.3020 -0.2990 -0.6725
26428SOL    HW179862   3.616   2.114   1.850 -1.1021  0.9758  0.7446
26428SOL    HW279863   3.575   2.098   1.705  1.1346 -1.4955  0.2981
26429SOL     OW79864   2.163   5.352   8.589 -0.1028 -0.0790  0.5585
26429SOL    HW179865   2.206   5.412   8.528 -0.8293  1.2667  1.3148
26429SOL    HW279866   2.193   5.265   8.563  1.0353  0.6129 -0.5337
26430SOL     OW79867   5.399   4.210   6.004  0.3357  0.5195 -0.2056
26430SOL    HW179868   5.349   4.236   5.927 -1.0630  1.9611  1.1087
26430SOL    HW279869   5.431   4.122   5.984 -0.4724  0.6373 -2.1800
26431SOL     OW79870   0.445   2.573   2.817  1.0156 -0.1982 -0.0078
26431SOL    HW179871   0.396   2.491   2.811 -0.4042  0.6828 -0.9655
26431SOL    HW279872   0.446   2.593   2.911 -1.5201  0.3238 -0.0204
26432SOL     OW79873   8.114   7.125   6.634  0.2012 -0.4104 -0.5702
26432SOL    HW179874   8.044   7.191   6.631  0.3473 -0.1850  0.4960
26432SOL    HW279875   8.067   7.042   6.638 -0.1186 -0.1801  2.5249
26433SOL     OW79876   4.798   2.537   5.457 -0.0968 -0.1638  0.2158
26433SOL    HW179877   4.848   2.599   5.404 -0.1909  0.4218  0.8069
26433SOL    HW279878   4.864   2.495   5.512 -0.3143  1.1262  1.5163
26434SOL     OW79879   9.557   8.224   8.832 -0.0363  0.1646 -0.5967
26434SOL    HW179880   9.521   8.239   8.745  1.0740  0.0792 -1.0804
26434SOL    HW279881   9.648   8.252   8.826 -0.4996  2.3834  1.1704
26435SOL     OW79882   7.249   0.767   3.443 -0.3670 -0.3151  0.0834
26435SOL    HW179883   7.229   0.673   3.450  1.9184 -0.8689 -0.1173
26435SOL    HW279884   7.303   0.774   3.364 -0.7871  1.2456 -0.1002
26436SOL     OW79885   4.565   6.196   7.890 -0.2577 -0.0159 -0.4000
26436SOL    HW179886   4.482   6.223   7.850  0.0776  1.1753 -0.3216
26436SOL    HW279887   4.539   6.147   7.968 -0.8945 -0.6860 -1.0143
26437SOL     OW79888   3.022   0.606   9.678 -0.1429 -0.3217  0.2318
26437SOL    HW179889   3.100   0.602   9.622 -0.2962  1.6927 -0.1931
26437SOL    HW279890   3.057   0.606   9.767  0.3943  0.9762  0.0382
26438SOL     OW79891   8.316   7.523   3.741  0.1586  0.0358 -0.0883
26438SOL    HW179892   8.348   7.558   3.658 -1.2172 -1.9085 -1.5442
26438SOL    HW279893   8.387   7.468   3.773 -0.4276 -1.8198 -1.7382
26439SOL     OW79894   8.299   3.496   9.715 -0.2503 -0.2374  0.1419
26439SOL    HW179895   8.207   3.517   9.725 -0.1024  0.9375 -0.6957
26439SOL    HW279896   8.303   3.400   9.719 -1.4748 -0.2913  0.3133
26440SOL     OW79897   4.346   2.732   7.869 -0.5413  0.3375 -0.4707
26440SOL    HW179898   4.403   2.680   7.812 -0.0054  1.7534 -1.2788
26440SOL    HW279899   4.407   2.780   7.925 -0.8952  2.0068 -1.4683
26441SOL     OW79900   1.042   2.933   2.975  0.1805  0.0235 -0.0936
26441SOL    HW179901   1.035   2.863   3.040  1.6118  0.4584  0.5625
26441SOL    HW279902   0.965   2.987   2.989 -0.8936 -1.3182 -0.5320
26442SOL     OW79903   4.902   5.691   1.798  0.1584  0.4862  0.4301
26442SOL    HW179904   4.994   5.713   1.815  0.1991  0.0530  0.7892
26442SOL    HW279905   4.907   5.622   1.732  0.0752  0.6603  0.2390
26443SOL     OW79906   8.813   9.687   9.425  0.0050 -1.2853  0.4327
26443SOL    HW179907   8.901   9.705   9.460 -0.0536 -0.0464 -0.0116
26443SOL    HW279908   8.755   9.742   9.477 -0.2924 -0.7550 -0.4461
26444SOL     OW79909   9.877   2.817   4.738 -0.1831  0.4702 -0.6244
26444SOL    HW179910   9.787   2.845   4.751 -0.7117 -0.7727 -1.4514
26444SOL    HW279911   9.930   2.893   4.764 -1.5095  2.0341 -2.2480
26445SOL     OW79912   2.300   3.800   5.696  0.1212 -0.2665 -0.9471
26445SOL    HW179913   2.301   3.711   5.660  1.2171 -0.9308  0.6222
26445SOL    HW279914   2.385   3.810   5.738 -0.5360  0.9904  0.1580
26446SOL     OW79915   8.436   0.271   4.236  0.1061 -0.4190  0.0404
26446SOL    HW179916   8.520   0.280   4.190 -0.3218  0.9144 -0.5298
26446SOL    HW279917   8.389   0.352   4.215 -0.3026  0.0327  2.4806
26447SOL     OW79918   8.069   6.484   3.036 -0.3243  0.3351 -0.1435
26447SOL    HW179919   8.124   6.437   3.099 -1.1042 -2.1684 -1.2055
26447SOL    HW279920   7.997   6.519   3.089 -0.3058 -0.6640  0.5814
26448SOL     OW79921   1.380   5.620   4.538  0.2720 -0.0992 -0.2174
26448SOL    HW179922   1.340   5.537   4.512 -0.8667  0.0274  1.0377
26448SOL    HW279923   1.310   5.684   4.532  0.6430  0.4090  0.6770
26449SOL     OW79924   2.639   3.343   0.492 -0.2146 -0.0766  0.5007
26449SOL    HW179925   2.615   3.273   0.553  0.5463 -0.0931  0.7987
26449SOL    HW279926   2.558   3.364   0.446 -0.5718 -0.7803  0.7928
26450SOL     OW79927   5.219   8.813   7.255 -0.3098  0.3708  0.0695
26450SOL    HW179928   5.132   8.776   7.264 -0.6096  1.2241  0.8515
26450SOL    HW279929   5.256   8.807   7.344  0.5207 -0.1855 -0.2978
26451SOL     OW79930   2.135   5.831   7.511 -0.1725 -0.1036  0.0170
26451SOL    HW179931   2.046   5.864   7.523 -0.3658 -1.1495  2.0737
26451SOL    HW279932   2.137   5.799   7.421 -2.2801 -1.1240  0.2667
26452SOL     OW79933   2.875   5.388   8.514  0.3188  0.1499  0.2150
26452SOL    HW179934   2.829   5.472   8.520 -0.7220 -0.4987  2.2479
26452SOL    HW279935   2.966   5.410   8.531  0.7546  1.3146 -2.8859
26453SOL     OW79936   9.672   3.732   7.958 -0.1067 -0.1976  0.1371
26453SOL    HW179937   9.599   3.731   8.020 -0.1534 -0.8886  0.0796
26453SOL    HW279938   9.749   3.753   8.011 -0.5158  1.8298 -0.0103
26454SOL     OW79939   3.190   2.990   1.145 -0.0964 -0.1691 -0.1337
26454SOL    HW179940   3.246   3.035   1.208 -0.8342 -0.8701  1.0693
26454SOL    HW279941   3.235   2.907   1.128  0.5234  0.3683 -1.2082
26455SOL     OW79942   8.952   7.467   7.331  0.1213 -0.1827  0.0351
26455SOL    HW179943   8.871   7.510   7.303 -0.1989 -0.2747  0.7795
26455SOL    HW279944   8.987   7.426   7.252 -0.2241  0.3991 -0.4237
26456SOL     OW79945   0.719   2.280   2.300  1.0650 -0.5990 -0.3633
26456SOL    HW179946   0.770   2.199   2.312  1.1613 -0.3688  0.9121
26456SOL    HW279947   0.776   2.349   2.335 -0.2492 -0.3790  1.5024
26457SOL     OW79948   6.592   3.382   5.694 -0.2698 -0.3518  0.0036
26457SOL    HW179949   6.681   3.418   5.685 -0.3327 -0.1079  0.3308
26457SOL    HW279950   6.535   3.458   5.684 -0.4343 -0.4762  0.0025
26458SOL     OW79951   7.980   5.556   9.336 -0.4166  0.1512 -0.5215
26458SOL    HW179952   7.994   5.651   9.326 -0.2074  0.1891  0.0937
26458SOL    HW279953   8.058   5.525   9.382 -0.7141 -0.2428 -0.2803
26459SOL     OW79954   4.487   5.388   0.533 -0.6059  0.4655  0.0998
26459SOL    HW179955   4.511   5.365   0.443  0.7099 -2.5307  1.0805
26459SOL    HW279956   4.565   5.367   0.585 -2.2641 -0.7663  2.2762
26460SOL     OW79957   8.966   4.119   9.118  0.8850 -0.3166 -0.1553
26460SOL    HW179958   9.007   4.203   9.135  2.1566 -1.4271  3.1059
26460SOL    HW279959   8.879   4.127   9.158  0.8711 -0.4159 -0.1651
26461SOL     OW79960   2.886   2.572   3.163  0.3395 -0.0554 -0.4531
26461SOL    HW179961   2.831   2.639   3.205 -0.8904 -0.5547 -1.2219
26461SOL    HW279962   2.974   2.592   3.193 -0.1530  1.2336  0.2281
26462SOL     OW79963   1.493   2.210   5.849 -0.0080  0.1755 -0.1609
26462SOL    HW179964   1.542   2.158   5.786  1.2704 -1.5595  2.1068
26462SOL    HW279965   1.551   2.283   5.870 -1.0197  1.5718 -1.9298
26463SOL     OW79966   1.188   3.407   9.274  0.5000  0.4352 -0.0783
26463SOL    HW179967   1.154   3.372   9.191  2.4033  0.3813 -0.8753
26463SOL    HW279968   1.111   3.408   9.332 -0.3726 -1.8886 -1.0510
26464SOL     OW79969   5.790   2.471   7.815 -0.3030 -0.7889 -0.2567
26464SOL    HW179970   5.793   2.459   7.910  1.1231 -0.4171 -0.2190
26464SOL    HW279971   5.730   2.404   7.783 -0.2287 -1.4025  0.8467
26465SOL     OW79972   8.054   9.981   0.299  0.4951  0.0352  0.0377
26465SOL    HW179973   8.123   9.919   0.275 -0.4619 -1.5258  1.1374
26465SOL    HW279974   8.028  10.021   0.216  3.7778  1.9404 -0.2766
26466SOL     OW79975   5.047   3.123   9.219  0.4969  0.3097 -0.1253
26466SOL    HW179976   5.140   3.134   9.198  0.7300 -0.5898  0.3800
26466SOL    HW279977   5.007   3.207   9.195  1.5687  0.9896  0.3835
26467SOL     OW79978   6.474   7.762   1.635 -0.1352 -0.2804  0.1826
26467SOL    HW179979   6.552   7.798   1.678 -0.2779 -0.3453  0.4957
26467SOL    HW279980   6.508   7.692   1.579  0.0082 -0.4577  0.4896
26468SOL     OW79981   0.782   7.942   8.596 -0.2845 -0.2028 -0.6074
26468SOL    HW179982   0.806   7.992   8.518  2.6385  0.5538  0.6554
26468SOL    HW279983   0.756   8.009   8.659 -0.4779 -0.6292 -0.2293
26469SOL     OW79984   0.339   4.783   8.200 -0.0584 -0.0001 -0.1958
26469SOL    HW179985   0.404   4.789   8.270  0.0168  1.3268 -0.3688
26469SOL    HW279986   0.374   4.835   8.129 -0.5633 -0.6068 -0.9020
26470SOL     OW79987   7.755   6.107   2.834 -0.2232  0.0376  0.0216
26470SOL    HW179988   7.688   6.083   2.770  0.0716 -0.1870 -0.2040
26470SOL    HW279989   7.709   6.107   2.918 -0.6044  0.2974 -0.1826
26471SOL     OW79990   4.496   6.948   6.100  0.3934  0.4287  0.1895
26471SOL    HW179991   4.568   6.903   6.056 -0.1586  0.6180 -0.9566
26471SOL    HW279992   4.417   6.905   6.066 -0.0739  1.0319  0.4891
26472SOL     OW79993   0.215   1.948   4.610  0.7104 -0.2739  0.1854
26472SOL    HW179994   0.244   1.919   4.523 -3.0412 -1.2213 -0.9323
26472SOL    HW279995   0.167   1.873   4.646  0.2623  0.8667  2.1123
26473SOL     OW79996   2.423   9.914   3.757  0.2270  0.0374 -0.6223
26473SOL    HW179997   2.329   9.901   3.745  0.0293  0.6670  0.1488
26473SOL    HW279998   2.437   9.896   3.850  0.6626  1.0714 -0.4784
26474SOL     OW79999   1.863   7.885   3.987  0.2366 -0.0216 -0.5682
26474SOL    HW180000   1.844   7.827   3.913 -0.4652 -0.3285 -0.1702
26474SOL    HW280001   1.820   7.967   3.965  0.5590  0.0883 -0.7823
26475SOL     OW80002   8.442   8.049   9.920  0.3078 -0.8165 -0.1599
26475SOL    HW180003   8.401   8.126   9.882 -0.0431 -1.0950 -0.3568
26475SOL    HW280004   8.370   7.987   9.934  0.4445 -0.7643  0.8693
26476SOL     OW80005   7.284   9.336   3.675  0.3518 -0.0762 -0.3253
26476SOL    HW180006   7.191   9.344   3.653  0.6697  1.7583 -1.1480
26476SOL    HW280007   7.285   9.329   3.771 -0.6002  0.7626 -0.2313
26477SOL     OW80008   7.144   6.767   1.967 -0.4358  0.4068  0.0172
26477SOL    HW180009   7.154   6.822   1.890  0.5166  0.0118 -0.1647
26477SOL    HW280010   7.077   6.810   2.020 -1.2965  0.5272 -1.1517
26478SOL     OW80011   6.521   5.005   3.014  0.1857 -0.0812  0.0047
26478SOL    HW180012   6.536   5.037   2.926 -1.0268  0.6745  0.0598
26478SOL    HW280013   6.508   5.084   3.067 -1.0312 -0.5875  0.4865
26479SOL     OW80014   0.142   4.781   9.179 -0.2668  0.1794  0.0485
26479SOL    HW180015   0.143   4.764   9.273 -0.0812  0.8795  0.1803
26479SOL    HW280016   0.229   4.817   9.160 -0.9478  1.9075 -0.0132
26480SOL     OW80017   2.129   7.614   0.505  1.0900 -0.2619  0.7007
26480SOL    HW180018   2.078   7.612   0.586 -0.0812  1.6953  0.0764
26480SOL    HW280019   2.159   7.704   0.498 -1.0350  0.3785 -2.3012
26481SOL     OW80020   3.542   1.431   9.857  0.1472 -0.1047  0.7545
26481SOL    HW180021   3.606   1.439   9.786 -0.3314 -1.7145  0.1146
26481SOL    HW280022   3.474   1.374   9.822 -1.2972  0.9772  1.6872
26482SOL     OW80023   7.588   5.261   2.482 -0.0262 -0.1383 -0.0845
26482SOL    HW180024   7.527   5.222   2.418 -1.6767  0.5256  1.0052
26482SOL    HW280025   7.610   5.188   2.540 -0.0032 -0.3260 -0.3236
26483SOL     OW80026   1.540   8.364   8.364 -0.5066  0.3026  0.0700
26483SOL    HW180027   1.548   8.445   8.314  0.9081  0.3781  0.3872
26483SOL    HW280028   1.576   8.296   8.306  3.3144  0.7058  1.6817
26484SOL     OW80029   7.467   1.879   6.510 -0.4326 -0.2660  0.3172
26484SOL    HW180030   7.421   1.818   6.568  0.2326 -1.4390 -0.3554
26484SOL    HW280031   7.472   1.834   6.426 -0.3315  0.9210 -0.3429
26485SOL     OW80032   3.277   6.387   2.524 -0.3169 -0.0629 -0.6939
26485SOL    HW180033   3.359   6.399   2.476 -0.3549 -1.0760 -1.0401
26485SOL    HW280034   3.210   6.378   2.456 -0.4805 -0.7437 -0.4563
26486SOL     OW80035   8.935   7.035   9.768  0.0972  0.0449 -0.2005
26486SOL    HW180036   8.932   6.970   9.838  1.3199  0.5844  0.3803
26486SOL    HW280037   8.881   7.108   9.800 -0.2466 -0.1625 -0.3048
26487SOL     OW80038   7.862   5.636   6.755 -0.1860  0.4336  0.0293
26487SOL    HW180039   7.939   5.691   6.762  0.0673  0.0854  0.0151
26487SOL    HW280040   7.841   5.636   6.662 -1.0300  1.6425  0.2028
26488SOL     OW80041   2.673   6.464   3.772  0.1551 -0.1938 -0.0001
26488SOL    HW180042   2.651   6.378   3.808  0.9561 -0.3309  0.1914
26488SOL    HW280043   2.642   6.526   3.838 -0.5641 -0.3200 -0.2101
26489SOL     OW80044   9.122   3.263   9.028 -0.7321  0.4156 -0.3324
26489SOL    HW180045   9.113   3.347   9.072 -0.1187  0.3703 -0.1153
26489SOL    HW280046   9.214   3.240   9.038 -0.7997 -0.0694 -0.7804
26490SOL     OW80047   6.955   6.333   1.645  0.2795  0.5326  0.0338
26490SOL    HW180048   6.975   6.259   1.588  1.2902  1.5174 -0.9420
26490SOL    HW280049   7.036   6.350   1.693 -0.2809  0.3125  1.0895
26491SOL     OW80050   7.563   2.457  10.012 -0.3615 -0.2808 -0.0171
26491SOL    HW180051   7.633   2.441   9.950 -0.9085 -0.6522 -0.5514
26491SOL    HW280052   7.504   2.519   9.967 -0.6728 -0.4206  0.1908
26492SOL     OW80053   4.588   0.449   2.648  0.2370  0.5144 -0.5875
26492SOL    HW180054   4.576   0.386   2.577 -0.4924 -0.2623  0.1955
26492SOL    HW280055   4.522   0.516   2.631 -0.2469  0.0946 -0.4072
26493SOL     OW80056   6.555   1.264   4.020 -0.2148  0.1660 -0.2510
26493SOL    HW180057   6.604   1.310   4.087  0.5578 -0.7270 -0.1867
26493SOL    HW280058   6.621   1.214   3.972 -0.8679  0.1155 -1.1214
26494SOL     OW80059   9.969   0.097   7.248  0.0079 -0.0036  0.6560
26494SOL    HW180060   9.948   0.085   7.155 -0.6587  1.4137  0.6044
26494SOL    HW280061   9.919   0.029   7.293 -0.8716  0.2605  0.0993
26495SOL     OW80062   6.622   6.168   5.316 -0.0347 -0.0283  0.1708
26495SOL    HW180063   6.694   6.104   5.310  0.3720  0.1159  2.4936
26495SOL    HW280064   6.654   6.244   5.268  1.4785  0.0792  1.2611
26496SOL     OW80065   4.757   9.055   4.094  0.0124  0.2136 -0.2307
26496SOL    HW180066   4.848   9.027   4.103  0.2914  0.9004 -0.7929
26496SOL    HW280067   4.726   9.063   4.184 -0.5980 -3.3860  0.0100
26497SOL     OW80068   7.731   4.430   6.056  0.1946  0.2949  0.2905
26497SOL    HW180069   7.781   4.425   5.975  0.3361 -1.4332  0.4452
26497SOL    HW280070   7.693   4.343   6.066  0.4980  0.3469  2.2760
26498SOL     OW80071   6.716   3.252   6.087 -0.0639 -0.1179 -0.1296
26498SOL    HW180072   6.693   3.343   6.068 -0.8475 -0.5339 -1.2361
26498SOL    HW280073   6.802   3.257   6.127 -0.7081  1.2328  1.1916
26499SOL     OW80074   0.921   1.523   7.718  0.1530  0.0058  0.8575
26499SOL    HW180075   0.868   1.583   7.771  3.4961  3.2424  1.0090
26499SOL    HW280076   0.864   1.496   7.647 -2.7062  0.2339  2.8939
26500SOL     OW80077   2.658   7.429   2.271  0.3139  0.2528 -0.1209
26500SOL    HW180078   2.696   7.355   2.320  1.2745  0.0622 -1.1108
26500SOL    HW280079   2.734   7.477   2.238 -0.3101  1.5876  0.3538
26501SOL     OW80080   9.879   0.879   6.570 -0.0604 -0.8500  0.4139
26501SOL    HW180081   9.902   0.790   6.595 -1.6188 -1.8707 -1.4500
26501SOL    HW280082   9.907   0.934   6.643  0.5355 -2.9190  1.8008
26502SOL     OW80083  -0.003   6.182   6.637 -0.3842 -0.0686  0.0960
26502SOL    HW180084  -0.051   6.126   6.698 -2.2097  1.1909 -0.1302
26502SOL    HW280085   0.075   6.130   6.614  0.3367 -0.6486  3.3331
26503SOL     OW80086   0.957   0.726   3.555  0.0289  0.2612 -0.4103
26503SOL    HW180087   0.979   0.646   3.604 -1.7565 -0.1516 -0.2221
26503SOL    HW280088   0.865   0.742   3.575  0.3198  2.3390 -0.5376
26504SOL     OW80089   6.285   4.421   2.472 -0.2874 -0.0057  0.1538
26504SOL    HW180090   6.300   4.500   2.523  2.1511 -0.5794  0.4261
26504SOL    HW280091   6.269   4.353   2.538  0.8940 -0.3607  0.0865
26505SOL     OW80092   4.612   2.526   2.415 -0.2720 -0.7230  0.0474
26505SOL    HW180093   4.619   2.607   2.366 -0.8785 -1.0018 -0.5216
26505SOL    HW280094   4.546   2.544   2.482 -0.4484 -0.7571 -0.1147
26506SOL     OW80095   1.115   1.184   4.326 -0.5629  0.1955 -0.2516
26506SOL    HW180096   1.173   1.246   4.282  1.9634 -0.7756  1.4881
26506SOL    HW280097   1.174   1.120   4.366 -2.9012 -1.3235  0.9932
26507SOL     OW80098   5.206   6.325   3.071 -0.0130 -0.3734  0.0214
26507SOL    HW180099   5.129   6.365   3.112 -0.4413 -0.5875 -0.5569
26507SOL    HW280100   5.243   6.394   3.016 -1.0813 -0.9012 -1.4235
26508SOL     OW80101   2.170   4.399   9.478 -0.1826  0.4902 -0.1481
26508SOL    HW180102   2.176   4.488   9.444 -0.4135  1.3898  2.0364
26508SOL    HW280103   2.102   4.357   9.425  0.8931  1.1219 -2.1312
26509SOL     OW80104   5.546   7.266   9.275 -0.2192  0.6570  0.4772
26509SOL    HW180105   5.494   7.216   9.338 -0.4349  1.5273  0.9977
26509SOL    HW280106   5.632   7.224   9.277 -0.9529 -0.9937 -0.6274
26510SOL     OW80107   2.373   5.122   8.606 -0.5127 -0.4307 -0.2852
26510SOL    HW180108   2.292   5.073   8.595 -1.0082  0.0573  1.0249
26510SOL    HW280109   2.366   5.161   8.693  0.9498 -0.0454 -0.3139
26511SOL     OW80110   4.528   9.477   5.622  0.1589 -0.1426 -0.2728
26511SOL    HW180111   4.588   9.506   5.553 -0.4540 -0.8802 -1.1343
26511SOL    HW280112   4.442   9.478   5.581 -0.2807 -0.1505  0.6301
26512SOL     OW80113   4.943   8.357   4.613  0.3948  0.2049 -0.3243
26512SOL    HW180114   4.928   8.404   4.531 -0.5041 -0.3739 -0.5055
26512SOL    HW280115   4.917   8.419   4.681  0.0701  0.2830 -0.5194
26513SOL     OW80116   1.313   7.777   5.880 -0.0019 -0.0351 -0.4346
26513SOL    HW180117   1.332   7.802   5.971 -1.1383 -0.4428 -0.0692
26513SOL    HW280118   1.328   7.682   5.879  2.8851  0.3352 -1.4474
26514SOL     OW80119   6.126   5.635   9.542  0.0024  0.2094 -0.4008
26514SOL    HW180120   6.083   5.552   9.564 -0.6947  0.8849  1.0046
26514SOL    HW280121   6.120   5.641   9.447 -0.6175 -0.9937 -0.4607
26515SOL     OW80122   7.037   1.976   8.838  0.6403 -0.2669 -0.1279
26515SOL    HW180123   7.099   1.932   8.780 -1.1414 -1.1288 -1.4769
26515SOL    HW280124   7.029   1.918   8.913 -0.6570 -1.6543 -1.2771
26516SOL     OW80125   1.006   4.190   9.665 -0.4280 -0.0243 -0.6946
26516SOL    HW180126   1.095   4.159   9.650 -0.1008 -1.9074  3.5845
26516SOL    HW280127   1.016   4.285   9.674  0.6617  0.0919 -2.6166
26517SOL     OW80128   8.096   6.299   9.319 -0.0331 -0.7275  0.2603
26517SOL    HW180129   8.039   6.358   9.270  0.5441 -0.3466  0.0384
26517SOL    HW280130   8.184   6.336   9.309  0.2640 -1.3350  0.5557
26518SOL     OW80131   2.330   0.660   9.666  0.4028 -0.0614 -0.3518
26518SOL    HW180132   2.329   0.564   9.661 -0.4899 -0.0798  0.0787
26518SOL    HW280133   2.258   0.682   9.724  0.9363  0.8560 -0.0108
26519SOL     OW80134   4.712   7.328   9.214 -0.0160  0.5653  0.5478
26519SOL    HW180135   4.627   7.348   9.175 -1.0828 -0.8903  2.0054
26519SOL    HW280136   4.698   7.337   9.308  1.2926 -0.2627  0.8459
26520SOL     OW80137   4.890   4.885   5.199 -0.1943  0.2813  0.3216
26520SOL    HW180138   4.924   4.870   5.288 -0.4133  0.6070  0.4620
26520SOL    HW280139   4.796   4.872   5.207 -0.4892  2.2856  0.5932
26521SOL     OW80140   0.308   6.731   4.586  0.3133 -0.3753  0.2679
26521SOL    HW180141   0.386   6.726   4.530 -0.0170 -2.2420 -0.0868
26521SOL    HW280142   0.271   6.642   4.584 -1.2637  0.2195  1.2416
26522SOL     OW80143   0.722   2.971   9.376 -0.2079  0.2621 -0.0904
26522SOL    HW180144   0.694   2.889   9.336 -0.8366  0.0531  0.7646
26522SOL    HW280145   0.732   3.031   9.302 -0.2563 -0.4309 -0.6717
26523SOL     OW80146   5.282   9.237   1.028 -0.1892 -0.1362  0.0170
26523SOL    HW180147   5.370   9.268   1.006  0.3524 -2.4252 -1.4290
26523SOL    HW280148   5.232   9.244   0.946 -0.9055 -0.2391  0.4333
26524SOL     OW80149   7.967   0.111   0.060 -0.3103 -0.0030  0.4319
26524SOL    HW180150   7.944   0.116  -0.033  2.1665 -1.3427 -0.3317
26524SOL    HW280151   8.010   0.195   0.078  0.4246 -0.2645 -0.0384
26525SOL     OW80152   5.352   7.847   9.425  0.3377 -0.2842  0.7553
26525SOL    HW180153   5.329   7.761   9.390 -1.1204  0.4976 -0.3361
26525SOL    HW280154   5.309   7.851   9.510 -0.8933 -0.0815  0.1440
26526SOL     OW80155   3.124   6.162   3.315  0.4171 -0.4320 -0.1227
26526SOL    HW180156   3.069   6.084   3.312 -0.2021  0.0233 -1.9626
26526SOL    HW280157   3.091   6.218   3.245  3.1613 -0.1031 -1.3054
26527SOL     OW80158   2.072   8.319   7.945  0.0446  0.5824 -0.3968
26527SOL    HW180159   1.986   8.350   7.917  0.2175 -0.1715 -1.8655
26527SOL    HW280160   2.130   8.394   7.932  0.1495  0.1987 -2.2960
26528SOL     OW80161   0.097   3.772   9.957 -0.2372 -0.7964 -0.1965
26528SOL    HW180162   0.147   3.831   9.901 -2.4141  0.3389 -1.0493
26528SOL    HW280163   0.015   3.757   9.909 -2.2237  0.2571  2.6396
26529SOL     OW80164   8.130   5.840   3.216 -0.4004 -0.0283  0.5839
26529SOL    HW180165   8.111   5.924   3.257  1.2355  0.2940  0.7517
26529SOL    HW280166   8.046   5.793   3.217 -0.9013  0.8263  2.2979
26530SOL     OW80167   0.105   6.384   4.097 -0.1441  0.4152  0.0034
26530SOL    HW180168   0.043   6.396   4.025  0.4431 -1.7546 -0.9488
26530SOL    HW280169   0.188   6.362   4.054  0.0299 -1.7269  1.3229
26531SOL     OW80170   8.202   2.787   9.573  0.2707 -0.0476 -0.2418
26531SOL    HW180171   8.203   2.701   9.615  0.6641 -0.2467 -0.6513
26531SOL    HW280172   8.109   2.812   9.572 -0.0056 -1.0170 -1.2074
26532SOL     OW80173   8.116   8.793   3.043 -0.1689  0.0042 -0.8939
26532SOL    HW180174   8.113   8.886   3.067 -0.0492  0.0096 -0.9021
26532SOL    HW280175   8.144   8.793   2.952 -1.1260  0.0089 -1.1946
26533SOL     OW80176   6.428   6.536   2.616 -0.3965 -0.3204  0.0068
26533SOL    HW180177   6.371   6.459   2.616 -2.0707  0.8475  0.1339
26533SOL    HW280178   6.374   6.605   2.656  1.0441  0.9127 -0.0884
26534SOL     OW80179   1.134   8.217   3.166  0.1588 -0.8130  0.3433
26534SOL    HW180180   1.139   8.251   3.076  0.7222  0.9625  0.9943
26534SOL    HW280181   1.218   8.173   3.180 -0.8159 -3.1751 -0.7164
26535SOL     OW80182   2.356   9.412   4.832  0.5833 -0.0906  0.6108
26535SOL    HW180183   2.420   9.345   4.809 -0.1914 -0.7888  0.4594
26535SOL    HW280184   2.271   9.371   4.817  0.0917  0.9225  0.5179
26536SOL     OW80185   2.717   7.405   7.015  0.3736  0.3930  0.1228
26536SOL    HW180186   2.683   7.481   6.969 -0.2509 -0.1102 -0.2596
26536SOL    HW280187   2.654   7.389   7.085  0.0215 -0.3102 -0.3480
26537SOL     OW80188   9.729   8.467   1.110  0.1118 -0.2288  0.3710
26537SOL    HW180189   9.813   8.441   1.070  0.3995 -1.8109  1.9282
26537SOL    HW280190   9.754   8.512   1.190 -0.5158  1.4078 -0.3071
26538SOL     OW80191   1.718   5.198   2.606  0.1534  0.0212 -0.0892
26538SOL    HW180192   1.759   5.160   2.529 -1.6063  0.5377 -1.3525
26538SOL    HW280193   1.790   5.233   2.658  1.2824  1.8801 -2.7129
26539SOL     OW80194   9.151   5.449   2.070 -0.1789 -0.1474 -0.3154
26539SOL    HW180195   9.105   5.487   2.144 -1.8565 -1.3309 -0.6884
26539SOL    HW280196   9.131   5.355   2.074 -0.5593 -0.1995 -2.4100
26540SOL     OW80197   2.876   8.983   0.124  0.5830  0.3859  0.3393
26540SOL    HW180198   2.947   9.002   0.184 -0.1227  0.2972  1.2292
26540SOL    HW280199   2.797   8.985   0.179 -0.0839  0.3576 -0.5929
26541SOL     OW80200   9.953   7.232   2.178 -0.0389 -0.0678  0.3862
26541SOL    HW180201   9.876   7.286   2.160 -0.8545 -0.7892  1.5693
26541SOL    HW280202  10.025   7.278   2.135 -1.0875  0.7368 -0.5619
26542SOL     OW80203   1.632   2.344   4.855  0.5464 -0.3722  0.4864
26542SOL    HW180204   1.644   2.260   4.811 -0.6006 -0.0851 -0.4382
26542SOL    HW280205   1.537   2.360   4.852  0.8834  1.9555 -1.3553
26543SOL     OW80206   8.502   2.146   1.498  0.3273  0.0500  0.6414
26543SOL    HW180207   8.595   2.133   1.481  0.1614  0.1576 -0.4183
26543SOL    HW280208   8.483   2.233   1.461  0.0425  0.5273  1.8583
26544SOL     OW80209   3.395   0.200   0.669 -0.8611 -0.1146  0.1157
26544SOL    HW180210   3.305   0.183   0.643 -1.1251  1.3190  0.0183
26544SOL    HW280211   3.439   0.226   0.587 -0.7071  0.5032  0.3857
26545SOL     OW80212   0.654   5.130   4.312  0.3877 -0.3205  0.4312
26545SOL    HW180213   0.724   5.113   4.248  1.6339  0.9518  1.3994
26545SOL    HW280214   0.577   5.147   4.258  1.0590 -0.6990 -0.7040
26546SOL     OW80215   5.990   1.662   7.364  0.3016  0.2092 -0.1289
26546SOL    HW180216   5.920   1.726   7.352 -0.4296 -0.2260  1.5274
26546SOL    HW280217   5.961   1.586   7.313  0.0770  0.3952 -0.2836
26547SOL     OW80218   3.408   5.034   7.561 -0.3659  0.6073 -0.1295
26547SOL    HW180219   3.474   4.984   7.514 -0.2678  1.6856 -1.1836
26547SOL    HW280220   3.436   5.030   7.653 -1.4135 -2.8461  0.1738
26548SOL     OW80221   5.027   7.439   6.338 -0.3787  0.8001  0.2230
26548SOL    HW180222   5.080   7.428   6.259 -1.5779 -0.4391 -0.4382
26548SOL    HW280223   4.937   7.429   6.308 -0.8389 -0.1072  1.8045
26549SOL     OW80224   2.384   1.513   2.286  0.3229 -0.3499  0.2607
26549SOL    HW180225   2.371   1.488   2.194  0.3800  2.3117 -0.5789
26549SOL    HW280226   2.296   1.531   2.319  0.3030 -1.2974  0.7570
26550SOL     OW80227   5.997   2.557   1.537  0.1392 -0.1342  0.4171
26550SOL    HW180228   5.995   2.645   1.576 -3.4051 -0.0659  0.3830
26550SOL    HW280229   5.974   2.571   1.445  1.6810 -0.9792 -0.1503
26551SOL     OW80230   4.334   8.960   7.590  0.2613  0.2758 -0.7338
26551SOL    HW180231   4.382   8.880   7.571 -0.5555  0.1873 -2.6082
26551SOL    HW280232   4.346   9.015   7.513 -1.4591  0.8125 -0.6702
26552SOL     OW80233   2.262   1.391   0.548  0.2368 -0.0145  0.6035
26552SOL    HW180234   2.204   1.448   0.599  0.1715 -0.2638  0.8058
26552SOL    HW280235   2.337   1.447   0.526  0.6575 -0.1396  1.6696
26553SOL     OW80236   0.545   1.689   1.068  0.1104 -0.4734 -0.0961
26553SOL    HW180237   0.532   1.737   0.986  1.1756  0.1406  0.0642
26553SOL    HW280238   0.574   1.602   1.041 -1.1263 -0.8187 -0.3785
26554SOL     OW80239   7.863   6.079   8.144  0.3688 -0.1884  0.0355
26554SOL    HW180240   7.822   6.165   8.156  2.1566  0.8089 -0.5714
26554SOL    HW280241   7.893   6.079   8.053  0.9763 -1.1904  0.2152
26555SOL     OW80242   0.843   8.109   9.638  0.0074  0.4927  0.0338
26555SOL    HW180243   0.766   8.053   9.638  0.8112 -0.7617  2.4346
26555SOL    HW280244   0.808   8.198   9.640 -1.3652 -0.0272 -0.0614
26556SOL     OW80245   8.408   2.090   2.373 -0.0319  0.0611 -0.1688
26556SOL    HW180246   8.319   2.054   2.374  0.4804 -1.3186 -1.3473
26556SOL    HW280247   8.415   2.138   2.455 -1.3208 -1.2187  0.7410
26557SOL     OW80248   9.233   6.846   3.563 -0.4350 -0.9615  0.2261
26557SOL    HW180249   9.237   6.753   3.583 -1.0774 -0.8732  0.8135
26557SOL    HW280250   9.325   6.874   3.562 -0.1441 -1.8648 -1.3698
26558SOL     OW80251   1.829   0.973   4.821 -0.6154  0.3895 -0.0066
26558SOL    HW180252   1.859   0.984   4.911  0.4769  2.7312 -0.5864
26558SOL    HW280253   1.746   1.020   4.817 -0.7498  0.1399 -0.1628
26559SOL     OW80254   9.437   0.625   6.337 -0.1923 -0.5071  0.0773
26559SOL    HW180255   9.524   0.653   6.309 -0.3162 -0.5757 -0.3930
26559SOL    HW280256   9.409   0.562   6.270 -0.7791 -0.1628 -0.0100
26560SOL     OW80257   3.146   8.947   1.766  0.1332 -0.0810 -1.0422
26560SOL    HW180258   3.094   8.925   1.843 -0.4356  0.4580 -1.2616
26560SOL    HW280259   3.225   8.893   1.774 -0.1871 -0.4704 -0.3957
26561SOL     OW80260   8.317   0.825   9.110 -0.4238  0.1595  0.2475
26561SOL    HW180261   8.372   0.874   9.171 -1.3284  1.4510  0.0683
26561SOL    HW280262   8.252   0.782   9.166  0.2096 -0.6437  0.3813
26562SOL     OW80263   2.577   8.585   0.190  0.1489  0.2804 -0.1952
26562SOL    HW180264   2.510   8.542   0.137  1.0110 -1.4751  0.0329
26562SOL    HW280265   2.538   8.593   0.277 -0.7283  1.7980 -0.7050
26563SOL     OW80266   9.644   6.054   9.777 -0.4876  0.0713  0.6414
26563SOL    HW180267   9.563   6.084   9.737  0.6814 -1.0232 -2.9018
26563SOL    HW280268   9.618   5.979   9.831 -1.7297 -1.1230 -1.5102
26564SOL     OW80269   3.447   7.608   7.626 -0.2371 -0.6756 -0.1422
26564SOL    HW180270   3.499   7.625   7.705 -1.3434  0.7559  0.3147
26564SOL    HW280271   3.512   7.598   7.557  0.7173 -0.9901  0.7720
26565SOL     OW80272   3.924   0.759   4.948  0.1456  0.2491 -0.1412
26565SOL    HW180273   3.839   0.766   4.991 -0.2721 -0.5288 -0.8288
26565SOL    HW280274   3.917   0.815   4.871  0.2142  0.0883 -0.2645
26566SOL     OW80275   1.531   6.350   8.187 -0.0707 -0.1885  0.3615
26566SOL    HW180276   1.496   6.274   8.142 -0.0657 -0.7798  1.3340
26566SOL    HW280277   1.488   6.351   8.272 -1.2127  1.7764 -0.1614
26567SOL     OW80278   0.628   2.499   0.081  0.2038 -0.0394 -0.1334
26567SOL    HW180279   0.586   2.433   0.025 -2.1023  0.9158  0.3654
26567SOL    HW280280   0.662   2.564   0.020 -1.7647  0.6926 -0.5347
26568SOL     OW80281   5.542   6.261   2.428  0.2163 -0.1339 -0.1344
26568SOL    HW180282   5.542   6.355   2.447 -0.1089  0.0890 -1.1873
26568SOL    HW280283   5.635   6.237   2.425  0.2943 -0.0790  1.1512
26569SOL     OW80284   6.592   0.316   9.681  0.3976 -0.7491 -0.2599
26569SOL    HW180285   6.625   0.406   9.686  1.3030 -1.1014  0.4743
26569SOL    HW280286   6.570   0.294   9.772 -1.9242 -0.5379 -0.7081
26570SOL     OW80287   9.953   9.850   4.528 -0.6253 -0.1013  0.6069
26570SOL    HW180288  10.022   9.786   4.548 -0.0930  0.2122 -0.2151
26570SOL    HW280289   9.892   9.802   4.472  1.2425  0.8756 -2.4478
26571SOL     OW80290   5.047   4.527   9.247 -0.3216  0.6725  0.8222
26571SOL    HW180291   5.042   4.487   9.333  0.5501  1.3199  1.1961
26571SOL    HW280292   5.120   4.590   9.254  0.5685 -0.1246 -0.7371
26572SOL     OW80293   2.573   1.018   6.105  0.1020  0.4974  0.4073
26572SOL    HW180294   2.586   1.110   6.129  0.6601  0.7037 -0.6043
26572SOL    HW280295   2.484   0.998   6.134  0.7738  0.6471  2.7565
26573SOL     OW80296   0.852   3.546   6.701 -0.1447  0.2109 -0.2949
26573SOL    HW180297   0.854   3.642   6.704  0.8024  0.1856  2.0623
26573SOL    HW280298   0.809   3.525   6.617 -0.8168  2.6682 -0.6365
26574SOL     OW80299   0.365   8.158   1.664  0.1969 -0.7548  0.5305
26574SOL    HW180300   0.347   8.241   1.709  0.4222 -1.1719  1.4235
26574SOL    HW280301   0.425   8.181   1.593 -0.4202 -0.0274  0.2319
26575SOL     OW80302   7.108   0.155   6.068 -0.0890  0.3647  0.4811
26575SOL    HW180303   7.151   0.241   6.067  0.4639  0.1413  1.7865
26575SOL    HW280304   7.015   0.174   6.080 -0.0428  0.7916  0.1727
26576SOL     OW80305   2.562   0.666   9.166  0.2524  0.7330  0.1007
26576SOL    HW180306   2.499   0.616   9.114  1.8034 -1.5221  0.2157
26576SOL    HW280307   2.561   0.754   9.128 -2.5444  0.6708 -0.1863
26577SOL     OW80308   2.436   2.775   4.834 -0.0589  0.4799  0.4741
26577SOL    HW180309   2.432   2.718   4.911  1.1774  0.6088  0.6582
26577SOL    HW280310   2.506   2.837   4.854 -0.5454  1.2823 -0.2570
26578SOL     OW80311   3.820   8.674   6.812 -0.5405  0.1781 -0.1373
26578SOL    HW180312   3.782   8.762   6.813 -1.4398 -0.1922 -0.6010
26578SOL    HW280313   3.863   8.667   6.726 -2.8156 -0.7715 -1.2798
26579SOL     OW80314   5.189   6.921   7.512 -0.1967  0.1389 -0.0077
26579SOL    HW180315   5.097   6.899   7.497 -1.1787  2.7625  1.5936
26579SOL    HW280316   5.216   6.964   7.430 -0.5097 -0.2529 -0.3247
26580SOL     OW80317   2.530   5.265   1.388 -0.0224  0.6397  0.1029
26580SOL    HW180318   2.471   5.219   1.329  2.4684  0.3125 -2.3297
26580SOL    HW280319   2.484   5.346   1.410 -2.5932 -0.9204  0.8698
26581SOL     OW80320   1.539   2.559   8.927 -0.1964 -0.4101  0.1045
26581SOL    HW180321   1.461   2.537   8.875  0.0727  0.2311 -0.5887
26581SOL    HW280322   1.562   2.647   8.899  1.1621 -0.8302 -0.1694
26582SOL     OW80323   7.576   7.353   5.539  0.6820 -0.0421 -0.5699
26582SOL    HW180324   7.518   7.301   5.483 -0.9150  0.5608  0.4583
26582SOL    HW280325   7.519   7.384   5.609  2.2726  0.5969  0.4782
26583SOL     OW80326   8.576   4.070   0.296  0.0470 -0.0606  0.0462
26583SOL    HW180327   8.544   4.160   0.298  1.1083  0.3201  0.3158
26583SOL    HW280328   8.522   4.024   0.361 -1.5025  0.0115 -1.1360
26584SOL     OW80329   5.020   0.698   7.407 -0.2619 -0.1793 -0.1839
26584SOL    HW180330   4.986   0.685   7.495  0.5187  1.1094  0.3449
26584SOL    HW280331   5.058   0.786   7.409 -0.8081  0.1446 -2.0016
26585SOL     OW80332   1.384   6.218   4.641 -0.0423  0.3370 -0.1687
26585SOL    HW180333   1.288   6.220   4.648  0.0989  1.4225  2.0347
26585SOL    HW280334   1.411   6.308   4.660  1.6069 -0.7983  3.7078
26586SOL     OW80335   3.037   7.281   2.108  0.4782  0.3091 -0.4244
26586SOL    HW180336   2.973   7.216   2.079 -0.2291  1.0442 -0.5441
26586SOL    HW280337   3.063   7.326   2.027  0.9445  0.2039 -0.3385
26587SOL     OW80338   9.526   4.668   3.344  0.2169 -0.0652  0.5099
26587SOL    HW180339   9.433   4.667   3.320  0.1889 -1.0973  0.6279
26587SOL    HW280340   9.534   4.600   3.411  1.1289 -0.2193  0.2463
26588SOL     OW80341   9.136   5.733   9.055  0.5412 -0.2725  0.2475
26588SOL    HW180342   9.192   5.656   9.058 -0.6225 -1.2258 -1.2173
26588SOL    HW280343   9.064   5.709   8.997  0.2036  1.9693 -0.3797
26589SOL     OW80344   9.121   3.158   4.081 -0.0585  0.5536 -0.4937
26589SOL    HW180345   9.129   3.106   4.002  0.4918  0.8659 -0.6473
26589SOL    HW280346   9.207   3.152   4.123  0.0989  1.5477 -0.6509
26590SOL     OW80347   4.321   0.168   5.203 -0.2042  0.3046  0.2426
26590SOL    HW180348   4.269   0.227   5.149  0.6825  1.1440  0.2930
26590SOL    HW280349   4.271   0.086   5.203 -0.4642  0.4200 -1.4667
26591SOL     OW80350   6.696   9.300   3.840  0.5030  0.3535  0.3270
26591SOL    HW180351   6.767   9.255   3.885  1.3048  0.3007 -0.9327
26591SOL    HW280352   6.617   9.251   3.865  1.2804 -1.4290 -0.5334
26592SOL     OW80353   8.889   1.452   9.588 -0.4522  0.1241 -0.4165
26592SOL    HW180354   8.914   1.458   9.681 -1.1756 -0.8727 -0.1398
26592SOL    HW280355   8.797   1.482   9.587 -0.1975  0.9142 -0.9506
26593SOL     OW80356   9.754   5.126   9.813  0.1557  0.2778  0.0551
26593SOL    HW180357   9.723   5.111   9.724 -0.5753  1.7562  0.0289
26593SOL    HW280358   9.815   5.200   9.805  1.1668 -0.4734  0.5882
26594SOL     OW80359   6.615   3.694   8.481 -0.1165 -0.4158 -0.1648
26594SOL    HW180360   6.606   3.703   8.576  0.4684  1.1114 -0.2229
26594SOL    HW280361   6.706   3.665   8.469 -0.4057 -1.3198 -0.2398
26595SOL     OW80362   0.829   4.389   6.324 -0.1464  0.2263  0.2728
26595SOL    HW180363   0.898   4.421   6.266  0.1295  0.7733  0.8914
26595SOL    HW280364   0.799   4.467   6.370  1.0367 -0.4852  2.3671
26596SOL     OW80365   1.059   0.876   8.736 -0.2972 -0.1387 -0.3130
26596SOL    HW180366   1.003   0.894   8.812  0.5283  1.7133 -0.1010
26596SOL    HW280367   1.128   0.819   8.771 -1.2509 -1.3139 -0.2722
26597SOL     OW80368   5.036   9.944   5.862 -0.3822 -0.4401  0.0645
26597SOL    HW180369   5.030   9.849   5.873  1.4569 -0.7506 -1.1445
26597SOL    HW280370   5.126   9.965   5.885 -0.7941  1.0461  0.4261
26598SOL     OW80371   4.699   7.382   5.677 -0.2493 -0.5910 -0.2927
26598SOL    HW180372   4.753   7.450   5.636  0.2361 -1.0872 -0.4699
26598SOL    HW280373   4.689   7.315   5.610  0.2743 -1.2544  0.2820
26599SOL     OW80374   1.489   2.138   3.218  0.1542  0.3081 -0.4375
26599SOL    HW180375   1.512   2.052   3.182  2.6028  1.6689 -2.5040
26599SOL    HW280376   1.537   2.144   3.300 -1.3797 -0.8795  0.5938
26600SOL     OW80377   0.590   4.306   1.241  0.0508 -0.0049  0.1753
26600SOL    HW180378   0.584   4.363   1.317  1.7124  0.4549 -0.0017
26600SOL    HW280379   0.631   4.226   1.273  0.8788  0.2394 -0.2332
26601SOL     OW80380   5.573   1.622   3.515 -0.1326  0.1882 -0.9316
26601SOL    HW180381   5.532   1.613   3.429 -2.1457  2.8392 -0.3833
26601SOL    HW280382   5.500   1.617   3.577  0.8505  1.3621  0.3931
26602SOL     OW80383   8.789   4.275   3.091  0.1294  0.4714  0.1235
26602SOL    HW180384   8.880   4.275   3.062  0.0139 -0.1699 -0.2659
26602SOL    HW280385   8.780   4.193   3.140 -0.6700 -0.3027 -1.2627
26603SOL     OW80386   4.466   3.862   6.721  0.2117 -0.3545 -0.0591
26603SOL    HW180387   4.418   3.945   6.718 -0.4245 -0.7023  0.2955
26603SOL    HW280388   4.515   3.866   6.803 -0.1358 -0.4991  0.1575
26604SOL     OW80389   9.661   3.672   0.438 -0.2667  0.0987 -0.3047
26604SOL    HW180390   9.736   3.614   0.427 -0.5149 -0.5061  1.0446
26604SOL    HW280391   9.651   3.682   0.533 -0.2668  2.3109 -0.4789
26605SOL     OW80392   7.193   8.574   5.070  0.4911  0.2473  0.4769
26605SOL    HW180393   7.247   8.633   5.018  1.1192 -0.1094  0.7146
26605SOL    HW280394   7.223   8.587   5.160 -2.2021  2.6599  1.1921
26606SOL     OW80395   7.454   4.522   6.844  0.3000  0.1128 -0.0260
26606SOL    HW180396   7.426   4.467   6.917  1.5680  0.7799  0.9991
26606SOL    HW280397   7.512   4.466   6.792  1.9787  0.5572  1.2808
26607SOL     OW80398   1.572   6.129   7.808 -0.1188  0.2681  0.1837
26607SOL    HW180399   1.529   6.214   7.798 -0.2410  0.2629  0.6659
26607SOL    HW280400   1.577   6.095   7.719 -1.8796 -0.1105  0.2107
26608SOL     OW80401   3.560   8.467   7.797  0.4386  0.1379  0.0310
26608SOL    HW180402   3.631   8.508   7.748  0.4153  0.8219  0.5570
26608SOL    HW280403   3.604   8.400   7.850  0.6664  0.4219  0.2056
26609SOL     OW80404   5.838   0.064   8.067  0.1938 -0.0564  0.1785
26609SOL    HW180405   5.890   0.007   8.124  1.3155  0.4707 -0.2816
26609SOL    HW280406   5.903   0.111   8.016 -0.7518 -1.1493 -2.1865
26610SOL     OW80407   5.393   8.012   5.176  0.4234  0.9687 -0.0566
26610SOL    HW180408   5.386   8.064   5.096 -1.1585  1.7376  0.5312
26610SOL    HW280409   5.307   7.971   5.185  1.1220 -0.4450  0.3868
26611SOL     OW80410   6.720   2.590   6.660 -0.7047 -0.1738  0.0885
26611SOL    HW180411   6.798   2.643   6.675 -0.7444 -0.1275  0.1297
26611SOL    HW280412   6.749   2.523   6.598 -0.6662 -0.0758 -0.0008
26612SOL     OW80413   3.976   3.139   3.287  0.2332 -0.2721  0.1061
26612SOL    HW180414   4.067   3.136   3.258 -0.0634 -0.7768 -0.7983
26612SOL    HW280415   3.937   3.210   3.237 -0.1483 -0.8068 -0.3752
26613SOL     OW80416   9.633   4.464   1.237  0.1515  0.3168 -0.1791
26613SOL    HW180417   9.615   4.396   1.302  3.1921 -1.2882 -0.7834
26613SOL    HW280418   9.709   4.430   1.189 -0.8802  2.2078 -3.4355
26614SOL     OW80419   1.267   6.036   9.077  0.2863  0.3548 -0.2578
26614SOL    HW180420   1.222   6.038   9.162  0.8738  1.2427  0.0514
26614SOL    HW280421   1.213   6.091   9.020  0.3868  0.5161 -0.1972
26615SOL     OW80422   0.484   2.804   8.758 -0.3314 -0.0417  0.1688
26615SOL    HW180423   0.388   2.804   8.759 -0.3800  1.9884  0.3016
26615SOL    HW280424   0.508   2.802   8.850 -0.1884 -1.3474  0.1273
26616SOL     OW80425   6.857   6.795   8.547 -0.2316 -0.1120  0.0398
26616SOL    HW180426   6.789   6.860   8.564 -0.5419  0.2195 -2.2442
26616SOL    HW280427   6.937   6.846   8.538 -0.3677 -0.0962 -1.1390
26617SOL     OW80428   7.602   5.184   7.346  0.1375 -0.2858  0.8923
26617SOL    HW180429   7.588   5.262   7.294 -1.4732 -1.7740 -1.0567
26617SOL    HW280430   7.544   5.118   7.308  1.0698 -2.3235  2.7350
26618SOL     OW80431   2.357   8.397   6.723 -0.2444 -0.1693  0.0033
26618SOL    HW180432   2.305   8.392   6.803 -0.9636  1.7730 -0.2672
26618SOL    HW280433   2.435   8.447   6.747  0.9714 -2.0246  0.1156
26619SOL     OW80434   9.267   1.833   1.530 -0.2716  0.0214  0.8055
26619SOL    HW180435   9.217   1.784   1.465 -1.6852  0.5157  1.4720
26619SOL    HW280436   9.226   1.811   1.613 -0.2960  1.5211  1.2253
26620SOL     OW80437   5.695   5.240   5.732  0.1836  0.1184  0.1616
26620SOL    HW180438   5.715   5.159   5.685  0.6153  0.8993 -1.0690
26620SOL    HW280439   5.767   5.250   5.795 -1.2938 -1.8345  2.3079
26621SOL     OW80440   4.005   0.369   6.753 -0.4288  0.1902 -0.2136
26621SOL    HW180441   4.084   0.321   6.730 -0.4085  0.8882 -1.6719
26621SOL    HW280442   3.958   0.380   6.671 -2.1061 -0.2713  0.6294
26622SOL     OW80443   4.545   1.652   7.318 -0.4862  0.1402  0.0028
26622SOL    HW180444   4.498   1.669   7.237 -2.0368  0.3778  0.9294
26622SOL    HW280445   4.495   1.583   7.361  0.0413  0.3505  0.9913
26623SOL     OW80446   2.420   6.972   7.891 -0.0224 -0.2018  0.6329
26623SOL    HW180447   2.474   6.896   7.914 -0.2780 -0.2455  1.0945
26623SOL    HW280448   2.399   7.013   7.975  0.5090  0.6604  0.3709
26624SOL     OW80449   5.683   3.533   2.901  0.2212 -0.2866 -0.1090
26624SOL    HW180450   5.590   3.511   2.909  0.0405  0.0860 -1.0803
26624SOL    HW280451   5.728   3.448   2.903 -0.2975 -0.6181 -1.5157
26625SOL     OW80452   1.048   7.054   1.751 -0.1398  0.4894  0.2361
26625SOL    HW180453   0.969   7.003   1.733  0.1726  0.0389  0.1223
26625SOL    HW280454   1.071   7.094   1.666 -0.2635  0.6449  0.2762
26626SOL     OW80455   4.306   3.466   5.570  0.4199  0.0679  0.6368
26626SOL    HW180456   4.382   3.479   5.513 -0.8361  0.6672 -0.9761
26626SOL    HW280457   4.234   3.510   5.525 -0.4624  1.4562  3.1767
26627SOL     OW80458   1.755   5.159   2.039 -0.0190 -0.1960 -0.5367
26627SOL    HW180459   1.720   5.204   2.115 -0.7719  0.8387 -1.4618
26627SOL    HW280460   1.847   5.186   2.035 -0.1266  0.2042 -0.3310
26628SOL     OW80461   2.421   3.442   7.710 -0.4555 -0.2507  0.0670
26628SOL    HW180462   2.364   3.378   7.752 -0.1466 -0.3816  0.2887
26628SOL    HW280463   2.361   3.500   7.664 -0.8112 -0.0009  0.8261
26629SOL     OW80464   3.343   5.146   8.656 -0.1022 -0.4489 -0.3263
26629SOL    HW180465   3.336   5.135   8.561 -0.7388  0.2260 -0.3681
26629SOL    HW280466   3.287   5.077   8.692 -1.1766  0.2985 -0.4987
26630SOL     OW80467   5.380   0.521   2.682  0.2069  0.4378  0.0054
26630SOL    HW180468   5.329   0.445   2.653 -0.1657  1.5085 -2.3941
26630SOL    HW280469   5.471   0.494   2.672  0.0790  0.4673 -1.4247
26631SOL     OW80470   8.329   2.568   5.901 -0.1857 -0.0534 -0.1829
26631SOL    HW180471   8.262   2.611   5.847 -0.3077 -0.3184 -0.2449
26631SOL    HW280472   8.395   2.635   5.915 -1.0462  0.5968  0.9061
26632SOL     OW80473   0.728   2.150   0.733 -0.2786 -0.0520 -0.0915
26632SOL    HW180474   0.787   2.177   0.803  0.3717  0.6399 -0.8816
26632SOL    HW280475   0.642   2.182   0.760  0.2788  1.8805 -0.4660
26633SOL     OW80476   8.006   3.696   3.710  0.1481  0.1619 -0.1689
26633SOL    HW180477   7.988   3.664   3.622 -0.8441  0.7758 -0.2004
26633SOL    HW280478   8.064   3.629   3.748  1.1846  0.2545 -1.5134
26634SOL     OW80479   7.656   5.143   0.598  0.4712  0.1433 -0.1252
26634SOL    HW180480   7.659   5.205   0.525 -1.1677  0.3003 -0.1029
26634SOL    HW280481   7.564   5.143   0.625  0.8775 -0.5980  1.3565
26635SOL     OW80482   2.100   9.100   9.792  0.2261  0.1277  0.8031
26635SOL    HW180483   2.019   9.087   9.744  0.6796  0.4563 -0.0765
26635SOL    HW280484   2.132   9.185   9.763 -0.5753  1.4042  3.3190
26636SOL     OW80485   1.383   4.585   8.367  0.0490  0.1852 -0.4871
26636SOL    HW180486   1.448   4.529   8.324  1.2647  1.2128 -0.0627
26636SOL    HW280487   1.354   4.645   8.298  1.7939  1.6524 -0.0394
26637SOL     OW80488   4.519   1.748   6.235  0.5025 -0.3027 -0.1393
26637SOL    HW180489   4.531   1.770   6.143  0.4206 -0.6094 -0.2241
26637SOL    HW280490   4.512   1.653   6.236  1.7228 -0.3985  0.3207
26638SOL     OW80491   4.606   5.626   3.281  0.0213  0.5446 -0.6308
26638SOL    HW180492   4.687   5.581   3.308  0.1384  1.5157  0.7236
26638SOL    HW280493   4.537   5.583   3.332 -0.2955 -0.0349 -1.5153
26639SOL     OW80494   8.124   2.727   5.734 -0.1946  0.0532  0.0012
26639SOL    HW180495   8.042   2.682   5.713 -1.6316  0.9383  3.0619
26639SOL    HW280496   8.115   2.813   5.693 -0.2336 -0.2653 -0.6713
26640SOL     OW80497   4.995   0.996   7.341 -0.3709  0.1942  0.2355
26640SOL    HW180498   4.910   0.983   7.383  0.0032  0.9168  1.2571
26640SOL    HW280499   5.059   0.981   7.411  0.2824  1.1311 -0.1365
26641SOL     OW80500   6.277   8.090   4.514  0.2228 -0.6335  0.0976
26641SOL    HW180501   6.203   8.148   4.500  1.9005  1.3826 -1.0489
26641SOL    HW280502   6.245   8.025   4.577 -1.4600  2.2131  2.4668
26642SOL     OW80503   7.063   4.577   1.986  0.0609 -0.3568 -0.3962
26642SOL    HW180504   6.988   4.521   2.003 -1.4069  1.3898 -0.8615
26642SOL    HW280505   7.134   4.538   2.037 -1.1722 -1.9665  0.1698
26643SOL     OW80506   9.637   8.636   6.918 -0.1551 -0.3889 -0.0681
26643SOL    HW180507   9.552   8.679   6.920  0.1098  0.1129  0.3737
26643SOL    HW280508   9.656   8.614   7.009  0.4982  0.1177 -0.0730
26644SOL     OW80509   8.256   7.225   8.124  0.4368 -0.2600  0.6896
26644SOL    HW180510   8.329   7.275   8.161 -0.4168  1.4356  0.1982
26644SOL    HW280511   8.192   7.220   8.196  0.8975 -1.5189  1.0393
26645SOL     OW80512   0.290   5.278   6.011  0.1797  0.2905  0.0243
26645SOL    HW180513   0.326   5.239   6.090  2.3971 -2.0446 -1.9556
26645SOL    HW280514   0.311   5.371   6.018  2.2646 -0.2043  1.2432
26646SOL     OW80515   4.103   5.016   6.973 -0.0825  0.2292  0.0502
26646SOL    HW180516   4.072   5.057   6.892  0.8587  0.9733  0.0500
26646SOL    HW280517   4.024   4.992   7.020 -0.6453  1.1553 -0.4121
26647SOL     OW80518   0.544   9.319   0.823  0.5441 -0.1216 -0.4276
26647SOL    HW180519   0.628   9.295   0.861  0.4507  1.3064  0.7549
26647SOL    HW280520   0.480   9.270   0.875  0.5235  0.4788  0.1217
26648SOL     OW80521   8.468   0.580   8.087 -0.4941  0.1167  0.4885
26648SOL    HW180522   8.520   0.563   8.166 -0.0021 -1.9936 -0.2052
26648SOL    HW280523   8.431   0.494   8.065 -0.7580  0.7007 -1.4653
26649SOL     OW80524   1.911   4.851   5.648 -0.2233 -0.6589 -0.9480
26649SOL    HW180525   1.826   4.840   5.692 -0.2276 -0.9749 -1.0294
26649SOL    HW280526   1.921   4.771   5.597  0.5754 -1.0542 -0.1919
26650SOL     OW80527   0.466   8.016   3.975 -0.4911  0.3223  0.5367
26650SOL    HW180528   0.531   8.038   4.043 -0.0323 -0.6848  0.4321
26650SOL    HW280529   0.400   7.965   4.021 -1.4988  1.7588  0.7513
26651SOL     OW80530   7.641   0.878   5.549  0.3066  0.4482 -0.1411
26651SOL    HW180531   7.645   0.963   5.505 -0.8364  1.0618  0.8770
26651SOL    HW280532   7.592   0.823   5.488 -0.7454  1.1164  0.0759
26652SOL     OW80533   9.653   8.825   4.776 -0.3571  0.2725 -0.2461
26652SOL    HW180534   9.683   8.908   4.812  0.4487  0.4897 -1.3712
26652SOL    HW280535   9.713   8.760   4.814 -0.7497  0.2320  0.3312
26653SOL     OW80536   1.428   5.694   0.843  0.0204  0.1788  0.2703
26653SOL    HW180537   1.436   5.603   0.870  0.3983 -0.5535 -2.1210
26653SOL    HW280538   1.457   5.695   0.752  0.1098  2.7128  0.2631
26654SOL     OW80539   6.594   9.397   2.093 -0.3601  0.2578  0.0279
26654SOL    HW180540   6.526   9.463   2.078  0.4696  1.5509  1.6607
26654SOL    HW280541   6.666   9.445   2.135  0.6619 -1.5146  0.4258
26655SOL     OW80542   6.130   3.480   4.128 -0.1524 -0.0794  0.1273
26655SOL    HW180543   6.036   3.467   4.139 -0.4748  2.1124  0.4881
26655SOL    HW280544   6.142   3.490   4.034 -0.0428 -1.6439 -0.0533
26656SOL     OW80545   6.559   8.691   3.351  0.0405 -0.5092 -0.3104
26656SOL    HW180546   6.535   8.760   3.413  0.2149  1.6539 -2.5192
26656SOL    HW280547   6.476   8.659   3.318 -0.0285 -1.1635  0.4536
26657SOL     OW80548   7.188   5.248   8.742  0.4094  0.7505  0.9416
26657SOL    HW180549   7.187   5.156   8.719  0.7170  0.6239  1.4174
26657SOL    HW280550   7.167   5.294   8.661  1.0657  0.3033  0.5144
26658SOL     OW80551   2.982   9.353   1.087  0.6861  0.6375  0.5064
26658SOL    HW180552   3.076   9.372   1.082  0.9060  0.2490  2.4774
26658SOL    HW280553   2.963   9.352   1.181 -1.1467 -0.0228  0.1590
26659SOL     OW80554   9.924   4.303   6.917  0.0049  0.0764 -0.4055
26659SOL    HW180555   9.954   4.389   6.946 -2.3837  0.5865  0.7889
26659SOL    HW280556   9.948   4.244   6.989  0.6134 -0.0428 -0.7052
26660SOL     OW80557   7.842   6.447   2.062  0.6274 -0.4654 -0.5875
26660SOL    HW180558   7.850   6.447   1.967 -1.2393  1.2359 -0.7951
26660SOL    HW280559   7.929   6.473   2.094  0.9472  0.0531 -1.8443
26661SOL     OW80560   6.601   6.388   6.535 -0.0979 -0.1396 -0.8756
26661SOL    HW180561   6.538   6.459   6.538  1.6973  1.5994 -1.4922
26661SOL    HW280562   6.624   6.371   6.626  0.1432  0.7772 -0.7542
26662SOL     OW80563   1.733   1.850   6.275 -0.2484  0.4614  0.3877
26662SOL    HW180564   1.732   1.777   6.213 -0.6772  0.1463  0.7573
26662SOL    HW280565   1.652   1.839   6.325 -0.4348  1.3296  0.2919
26663SOL     OW80566   5.833   1.065   1.062 -0.4156  0.9553  0.6905
26663SOL    HW180567   5.782   1.141   1.036 -0.1655  0.8299 -0.1989
26663SOL    HW280568   5.782   0.990   1.031 -1.1710  0.6832  2.4468
26664SOL     OW80569   4.032   9.354   1.066 -0.2949 -0.3501 -0.0360
26664SOL    HW180570   3.958   9.327   1.120 -0.1678 -0.5802  0.0253
26664SOL    HW280571   4.002   9.433   1.022  0.2377  0.9717  1.8432
26665SOL     OW80572   1.830   7.376   5.610 -0.1578  0.7990  0.3874
26665SOL    HW180573   1.774   7.311   5.652  0.1013  0.7660  0.6806
26665SOL    HW280574   1.919   7.352   5.635 -0.0442  1.1385  0.3181
26666SOL     OW80575   0.159   8.126   2.992  0.3608 -0.1218  0.5160
26666SOL    HW180576   0.239   8.178   2.986 -1.2926  2.5421 -0.1233
26666SOL    HW280577   0.093   8.178   2.946 -2.0623 -1.5631  2.1339
26667SOL     OW80578   9.871   4.789   7.246 -0.4652 -0.1862 -0.5807
26667SOL    HW180579   9.958   4.755   7.266  0.7350  1.0788 -3.0597
26667SOL    HW280580   9.864   4.869   7.297 -0.6678 -0.8822  0.4963
26668SOL     OW80581   6.877   5.889   8.177  0.0404 -0.0828  0.1227
26668SOL    HW180582   6.900   5.891   8.270  1.5601 -0.7388 -0.2120
26668SOL    HW280583   6.833   5.805   8.165  1.0408 -0.6046  0.0067
26669SOL     OW80584   9.606   9.158   3.416  0.4789 -0.5616  0.7375
26669SOL    HW180585   9.521   9.142   3.458  1.0045  0.4032  2.2165
26669SOL    HW280586   9.631   9.072   3.382 -1.1983 -0.8138  0.0407
26670SOL     OW80587   2.061   7.557   6.114 -0.0675 -1.0018 -0.6210
26670SOL    HW180588   2.075   7.594   6.201  0.7389 -1.9671 -0.3272
26670SOL    HW280589   2.118   7.607   6.056 -2.1455  1.0853 -1.0270
26671SOL     OW80590   1.140   4.794   5.700 -0.0070  0.1203 -0.0241
26671SOL    HW180591   1.236   4.796   5.696  0.0032  0.6870  0.3487
26671SOL    HW280592   1.114   4.737   5.628  0.6364 -0.6260  0.3177
26672SOL     OW80593   8.960   5.057   2.262 -0.3897  0.3862 -0.6173
26672SOL    HW180594   8.952   5.031   2.354  0.5017  0.0622 -0.6224
26672SOL    HW280595   8.918   4.986   2.214  3.3882 -2.0538 -0.7358
26673SOL     OW80596   7.020   8.610   0.461 -0.5163 -0.3515 -0.3499
26673SOL    HW180597   6.926   8.617   0.478 -0.5093  0.9624 -0.7863
26673SOL    HW280598   7.026   8.552   0.385 -0.8549 -1.6917  0.5898
26674SOL     OW80599   1.411   1.237   2.256 -0.1868 -0.2224 -0.0211
26674SOL    HW180600   1.324   1.266   2.229  0.0974 -0.6212 -1.4586
26674SOL    HW280601   1.462   1.235   2.175  0.9380 -0.7786  0.6701
26675SOL     OW80602   6.344   2.071   6.796 -0.1164  0.1298  0.3804
26675SOL    HW180603   6.380   2.107   6.877 -1.3362 -0.5376  1.2637
26675SOL    HW280604   6.409   2.007   6.768  0.1919  0.1616  0.9910
26676SOL     OW80605   6.845   6.757   8.894  0.5040  0.6138 -0.6254
26676SOL    HW180606   6.776   6.821   8.912 -0.6227 -0.8284  0.4629
26676SOL    HW280607   6.924   6.795   8.934 -0.5193  0.5804  1.6098
26677SOL     OW80608   5.491   0.238   7.148 -0.6766  0.0200  0.4909
26677SOL    HW180609   5.569   0.182   7.155 -0.3329  0.2166 -1.3620
26677SOL    HW280610   5.475   0.267   7.238  0.6846 -0.9614  1.0911
26678SOL     OW80611   5.462   0.149   2.369  0.1629  0.2384  0.0594
26678SOL    HW180612   5.536   0.094   2.342 -0.7800  0.3464 -3.0894
26678SOL    HW280613   5.502   0.220   2.419  2.3664  0.7350 -2.2080
26679SOL     OW80614   6.120   1.208   6.092  0.1755  0.2291  0.1660
26679SOL    HW180615   6.210   1.235   6.109 -0.3450  1.9472  0.3561
26679SOL    HW280616   6.074   1.289   6.071 -0.9539 -0.8176 -1.7075
26680SOL     OW80617   4.815   2.313   1.081  0.3142 -0.1198  0.1747
26680SOL    HW180618   4.821   2.266   0.998 -1.7273 -1.4301  0.7057
26680SOL    HW280619   4.828   2.246   1.148  1.7517  0.8872  0.9726
26681SOL     OW80620   7.046   8.873   4.922  0.4918 -0.5851 -0.5158
26681SOL    HW180621   6.984   8.905   4.988  0.5399 -2.0097  0.2843
26681SOL    HW280622   7.076   8.951   4.876  0.2113  0.4229  0.9480
26682SOL     OW80623   6.531   1.183   9.080 -0.1320  0.1548  0.2735
26682SOL    HW180624   6.494   1.269   9.097  1.3044  1.0444 -0.8165
26682SOL    HW280625   6.470   1.142   9.018 -1.0206  0.2088  1.0915
26683SOL     OW80626   6.677   6.133   9.564  0.3742  0.6286  0.3184
26683SOL    HW180627   6.709   6.047   9.589 -2.1047 -0.8982 -1.3368
26683SOL    HW280628   6.600   6.147   9.619  0.0629  1.2438 -0.2572
26684SOL     OW80629   8.452   9.338   0.545 -0.0623 -0.4322  0.0867
26684SOL    HW180630   8.521   9.343   0.480 -0.2699 -1.4135 -0.2323
26684SOL    HW280631   8.496   9.311   0.626 -0.1428 -1.7981 -0.2931
26685SOL     OW80632   7.355   4.293   7.002 -0.5785 -0.1060 -0.5195
26685SOL    HW180633   7.290   4.323   7.066  1.6440 -0.5798  2.1407
26685SOL    HW280634   7.323   4.207   6.974  0.0889 -1.5509  2.7687
26686SOL     OW80635   6.757   6.121   3.131 -0.8565 -0.4977  0.6630
26686SOL    HW180636   6.679   6.065   3.134 -2.9696  2.1460 -0.9921
26686SOL    HW280637   6.751   6.175   3.209 -1.0318  0.1463  0.2047
26687SOL     OW80638   9.636   3.333   0.202  0.2051  0.0474  0.5282
26687SOL    HW180639   9.582   3.410   0.223 -0.0520 -0.3098  1.1981
26687SOL    HW280640   9.719   3.370   0.171 -0.9860  0.6568 -2.2844
26688SOL     OW80641   5.105   4.885   6.900  0.3009 -0.1749  0.0946
26688SOL    HW180642   5.056   4.859   6.822  1.6126  2.2817 -1.6738
26688SOL    HW280643   5.190   4.841   6.891 -0.1001 -1.2042  1.0607
26689SOL     OW80644   3.999   4.075   5.906 -0.6561 -0.1912  0.2579
26689SOL    HW180645   4.046   4.131   5.844  0.8500 -1.6869 -0.0229
26689SOL    HW280646   3.988   4.130   5.984  0.8668  0.4935  0.0352
26690SOL     OW80647   2.020   3.043   6.208 -0.1668 -0.2425 -0.3776
26690SOL    HW180648   2.014   2.990   6.287 -1.5202 -0.5289 -0.6346
26690SOL    HW280649   2.083   3.112   6.229 -2.9027  1.7506  2.2457
26691SOL     OW80650   6.882   3.412   3.105 -0.0291 -0.1961  0.0981
26691SOL    HW180651   6.839   3.336   3.066 -0.5001  0.2313 -0.2255
26691SOL    HW280652   6.834   3.428   3.186  0.7827 -0.9216  0.7475
26692SOL     OW80653   0.449   7.242   3.275 -0.6686 -0.6206  0.4303
26692SOL    HW180654   0.401   7.322   3.297  0.0092  1.0642 -3.3028
26692SOL    HW280655   0.404   7.210   3.196  0.6736 -2.4509  0.3631
26693SOL     OW80656   7.945   2.055   1.326  0.3060 -0.8885  1.1415
26693SOL    HW180657   7.960   2.020   1.414 -1.9761 -1.0000  1.5476
26693SOL    HW280658   7.899   1.986   1.280 -1.3396  0.3112  0.8971
26694SOL     OW80659   5.481   6.675   8.956 -0.3788  0.1685  0.1019
26694SOL    HW180660   5.534   6.728   8.897 -0.0307  2.6794  2.4576
26694SOL    HW280661   5.538   6.603   8.981  0.0712  0.0354 -1.2330
26695SOL     OW80662   2.047   8.992   1.144 -0.6203 -0.1335  0.0039
26695SOL    HW180663   1.974   9.048   1.172 -0.2929  1.2767 -1.8121
26695SOL    HW280664   2.123   9.049   1.145  0.3976 -1.4307  1.2699
26696SOL     OW80665   5.407   7.564   7.997  0.7924 -0.1232  0.5652
26696SOL    HW180666   5.389   7.590   7.907  3.3258 -0.0604  0.0122
26696SOL    HW280667   5.388   7.471   7.999 -0.7423  0.1613  0.4148
26697SOL     OW80668   1.317   1.721   5.165 -0.7044 -0.2363 -0.5427
26697SOL    HW180669   1.267   1.765   5.096 -0.8013 -0.8978 -0.9047
26697SOL    HW280670   1.407   1.747   5.150 -0.8705  0.5557 -0.2003
26698SOL     OW80671   7.215   7.400   6.990  0.3343 -0.2725  0.1262
26698SOL    HW180672   7.262   7.385   6.908  1.2233 -0.5981  0.6823
26698SOL    HW280673   7.239   7.489   7.016 -0.8910  0.2806 -0.5588
26699SOL     OW80674   5.536   0.879   5.057  0.5021  0.0120 -0.4179
26699SOL    HW180675   5.631   0.889   5.057  0.5649 -0.5503 -0.1191
26699SOL    HW280676   5.504   0.952   5.004  1.1908 -0.6443 -1.8019
26700SOL     OW80677   3.315   8.925   2.248 -0.1495  0.3843 -0.0753
26700SOL    HW180678   3.275   8.840   2.232 -1.6489  0.8454  0.9590
26700SOL    HW280679   3.327   8.963   2.161 -2.5481  0.4324 -0.4474
26701SOL     OW80680   4.301   7.286   4.581 -0.1527  0.1491  0.0181
26701SOL    HW180681   4.308   7.333   4.498 -2.2393 -0.4445 -0.5495
26701SOL    HW280682   4.232   7.331   4.629  1.8262  1.2356  2.0283
26702SOL     OW80683   5.627   3.032   6.068  0.8857 -0.0917  0.7579
26702SOL    HW180684   5.675   3.085   6.005  2.3389 -0.6627  1.3465
26702SOL    HW280685   5.688   3.020   6.141 -0.6127  0.2332  2.1235
26703SOL     OW80686   1.854   9.640   5.496 -0.2919  0.0981 -0.0741
26703SOL    HW180687   1.845   9.729   5.461 -0.2988 -0.6968 -2.2425
26703SOL    HW280688   1.948   9.621   5.487 -0.8093 -1.5645 -3.7016
26704SOL     OW80689   0.738   3.723   1.576  0.3553 -0.0612 -0.3424
26704SOL    HW180690   0.645   3.725   1.554  0.2749  1.8000  0.0043
26704SOL    HW280691   0.753   3.634   1.610 -1.1763 -0.5291 -0.8124
26705SOL     OW80692   2.164   9.858   3.826  0.4850 -0.0997 -0.2298
26705SOL    HW180693   2.098   9.836   3.760  0.2314 -0.1091  0.0271
26705SOL    HW280694   2.195   9.773   3.857  0.4169 -0.0958 -0.1505
26706SOL     OW80695   7.090   3.163   3.054 -0.0778  0.1498  0.0942
26706SOL    HW180696   6.996   3.179   3.053 -0.0393  0.3523 -0.3955
26706SOL    HW280697   7.104   3.099   2.985  0.2640  0.8215 -0.4702
26707SOL     OW80698   4.284   0.374   8.403 -0.3811  0.0956 -0.1620
26707SOL    HW180699   4.265   0.444   8.465  1.3152 -0.2700  0.8063
26707SOL    HW280700   4.288   0.295   8.456 -2.6701 -0.8795 -1.2908
26708SOL     OW80701   4.037   7.224   3.069 -0.3652 -0.4898  0.3219
26708SOL    HW180702   4.062   7.134   3.089 -0.9461 -0.4395  1.2766
26708SOL    HW280703   4.091   7.247   2.993  0.9313 -1.1116  1.0281
26709SOL     OW80704   8.019   3.747   6.216 -0.6250 -0.1514 -0.4324
26709SOL    HW180705   7.997   3.837   6.237 -1.4518 -0.0128 -1.7725
26709SOL    HW280706   7.937   3.698   6.228 -0.4747 -0.5089 -0.8130
26710SOL     OW80707   6.246   4.593   7.296  0.3069 -0.1229  0.0431
26710SOL    HW180708   6.288   4.678   7.312  1.7476 -0.5554 -1.1422
26710SOL    HW280709   6.162   4.614   7.256  1.1728  0.7736 -1.3965
26711SOL     OW80710   6.342   0.934   0.661 -0.5176 -0.4642  0.0280
26711SOL    HW180711   6.416   0.909   0.605  0.3585 -0.0805  0.9758
26711SOL    HW280712   6.278   0.971   0.600  0.7032  0.6342 -0.6556
26712SOL     OW80713   0.256   0.657   3.411  0.2758 -0.5789 -0.6360
26712SOL    HW180714   0.227   0.738   3.368 -0.0028  0.0938  0.7695
26712SOL    HW280715   0.180   0.599   3.404 -1.1331  0.7643  1.9738
26713SOL     OW80716   8.629   8.844   6.066  0.2114  0.5536 -0.2188
26713SOL    HW180717   8.606   8.907   5.997 -2.2359 -1.6098 -1.5498
26713SOL    HW280718   8.564   8.860   6.135 -0.2082 -0.2321 -0.4210
26714SOL     OW80719   5.718   6.894   2.035 -0.3921  0.1990 -0.7251
26714SOL    HW180720   5.772   6.816   2.046 -0.0121  0.5369 -0.1563
26714SOL    HW280721   5.707   6.902   1.940  0.4665  0.0622 -0.8481
26715SOL     OW80722   3.341   0.078   7.377 -0.3714  0.1724 -0.1445
26715SOL    HW180723   3.370   0.155   7.328 -1.5025 -0.0363 -1.1675
26715SOL    HW280724   3.307   0.113   7.459  0.7855  0.5883  0.1885
26716SOL     OW80725   0.177   6.306   2.643 -0.0653 -0.2624 -0.3729
26716SOL    HW180726   0.120   6.298   2.720  1.9776  3.8507  1.9337
26716SOL    HW280727   0.236   6.231   2.649 -0.6055 -0.5903  1.5413
26717SOL     OW80728   5.801   4.596   2.171  0.0908  0.5828 -0.0253
26717SOL    HW180729   5.849   4.649   2.108  0.4775  0.8605  0.4949
26717SOL    HW280730   5.744   4.658   2.217  0.5530  0.5666  0.5914
26718SOL     OW80731   6.335   4.685   6.909  0.0199 -0.6031 -0.6587
26718SOL    HW180732   6.365   4.606   6.953 -0.4858 -0.2329  0.3836
26718SOL    HW280733   6.268   4.721   6.967  0.7106  0.9549 -0.7578
26719SOL     OW80734   1.753   2.875   1.488 -0.1505  0.0725  0.3851
26719SOL    HW180735   1.790   2.889   1.400  1.4368 -1.0230  0.8339
26719SOL    HW280736   1.744   2.963   1.524  0.7444  0.4548 -0.2860
26720SOL     OW80737   7.050   9.243   5.258 -0.2967  0.0876 -0.6951
26720SOL    HW180738   7.135   9.209   5.229  0.1599  0.7743 -0.1971
26720SOL    HW280739   7.014   9.287   5.181 -0.7891 -1.2862 -1.2789
26721SOL     OW80740   9.136   4.771   0.150 -0.5250  0.1835  0.4736
26721SOL    HW180741   9.132   4.759   0.245 -0.5804  0.7433  0.5455
26721SOL    HW280742   9.217   4.820   0.135  0.0711 -0.8618  0.1189
26722SOL     OW80743   8.185   7.316   5.918 -0.4375 -0.3276  0.5714
26722SOL    HW180744   8.123   7.244   5.906 -0.4919 -0.0645 -0.9275
26722SOL    HW280745   8.129   7.394   5.925 -0.3156  0.0872 -2.1270
26723SOL     OW80746   6.268   1.477   1.334 -0.1715 -0.3395 -0.3192
26723SOL    HW180747   6.187   1.520   1.362  0.4519  0.5697  0.1361
26723SOL    HW280748   6.322   1.547   1.300  0.4170 -0.9515 -0.6650
26724SOL     OW80749   5.488   8.538   2.666  0.2997 -0.4590  0.1810
26724SOL    HW180750   5.443   8.598   2.724 -0.9165 -1.3945  0.2322
26724SOL    HW280751   5.580   8.563   2.672 -0.0686  0.7638  0.9250
26725SOL     OW80752   0.201   4.235   5.959  0.3644  0.2944  1.0686
26725SOL    HW180753   0.177   4.194   5.876 -0.9216 -0.9688  2.0064
26725SOL    HW280754   0.201   4.329   5.940  0.9303  0.0009 -0.5427
26726SOL     OW80755   1.401   2.335   6.297 -0.5022  0.1470 -0.5741
26726SOL    HW180756   1.425   2.254   6.250 -2.4899  0.8890 -3.0773
26726SOL    HW280757   1.481   2.388   6.294  0.6448 -1.3966  0.5683
26727SOL     OW80758   9.135   9.165   1.513  0.3957  0.4373  0.0555
26727SOL    HW180759   9.086   9.181   1.432 -0.3237 -1.5636  0.0363
26727SOL    HW280760   9.161   9.073   1.507  0.5851  0.3349  1.9827
26728SOL     OW80761   0.409   2.351   2.105 -0.2070 -0.2651 -0.7515
26728SOL    HW180762   0.491   2.391   2.136 -0.3195 -0.5603 -0.0395
26728SOL    HW280763   0.382   2.405   2.031 -0.2113  0.8328  0.0282
26729SOL     OW80764   1.305   3.481   2.971  0.1505 -0.0695 -0.4152
26729SOL    HW180765   1.257   3.562   2.984  0.0242 -0.4313  1.6816
26729SOL    HW280766   1.245   3.412   2.999  0.4019 -0.8986 -1.7803
26730SOL     OW80767   4.565   2.389   0.313  0.0004 -0.2470  0.2442
26730SOL    HW180768   4.473   2.365   0.306  0.4240 -1.6708 -1.3201
26730SOL    HW280769   4.567   2.484   0.301 -1.3032 -0.1329  0.8649
26731SOL     OW80770   8.208   2.534   9.672  0.8249  0.0856  0.4372
26731SOL    HW180771   8.284   2.497   9.628  0.1461 -1.5484  0.5842
26731SOL    HW280772   8.218   2.508   9.764 -0.2222 -0.7050  0.3440
26732SOL     OW80773   7.507   5.054   6.132 -0.1810  0.1540 -0.1688
26732SOL    HW180774   7.496   5.074   6.039  2.3878 -0.3311 -0.6407
26732SOL    HW280775   7.503   5.139   6.175 -1.0563  0.4187 -0.7416
26733SOL     OW80776   8.508   5.797   1.948 -0.4382 -0.2459  0.1163
26733SOL    HW180777   8.503   5.817   2.042 -1.0615  0.0546  0.0156
26733SOL    HW280778   8.422   5.817   1.914  0.2434  1.1835 -0.8433
26734SOL     OW80779   4.430   2.124   0.473  0.2389 -0.0060  0.0320
26734SOL    HW180780   4.526   2.126   0.465  0.3585 -1.2344  0.8156
26734SOL    HW280781   4.415   2.104   0.566 -0.7824  0.4768 -0.0246
26735SOL     OW80782   7.876   9.873   0.642 -0.1249 -0.1418  0.0658
26735SOL    HW180783   7.926   9.839   0.716  0.2641  0.1355 -0.0662
26735SOL    HW280784   7.791   9.897   0.680 -0.1048 -0.4600  0.3217
26736SOL     OW80785   6.201   9.227   4.423 -0.1476  0.1421 -0.2636
26736SOL    HW180786   6.164   9.264   4.503  2.2750 -0.3280  1.1617
26736SOL    HW280787   6.142   9.154   4.401 -3.0802  2.5860 -1.2478
26737SOL     OW80788   4.677   5.200   9.268 -0.2278 -0.6321  0.2625
26737SOL    HW180789   4.687   5.293   9.245 -1.4117 -0.4516  0.4085
26737SOL    HW280790   4.616   5.200   9.341 -1.2569 -1.6002 -0.5559
26738SOL     OW80791   0.220   2.978   5.519 -0.2726  0.9007 -0.2238
26738SOL    HW180792   0.143   2.920   5.515  0.5525 -0.1702 -1.3232
26738SOL    HW280793   0.210   3.035   5.442 -2.0082  3.5610  1.7741
26739SOL     OW80794   0.019   2.525   2.138 -0.0760 -0.3484 -0.2585
26739SOL    HW180795  -0.026   2.494   2.059  0.1004  0.4897 -0.7049
26739SOL    HW280796   0.058   2.609   2.112 -1.2808  0.7132  1.1159
26740SOL     OW80797   7.791   4.436   5.747 -0.2717  0.3879 -0.4807
26740SOL    HW180798   7.838   4.360   5.712 -0.2160  0.2416 -0.1033
26740SOL    HW280799   7.700   4.420   5.723 -0.0861  0.8705 -1.5580
26741SOL     OW80800   9.697   9.472   4.255 -0.0448  0.3486  0.0783
26741SOL    HW180801   9.676   9.453   4.164  3.2868  1.3691 -1.0669
26741SOL    HW280802   9.728   9.388   4.290  0.4471  0.3436 -0.3523
26742SOL     OW80803   9.599   6.029   2.461  0.2662 -0.0403  0.1567
26742SOL    HW180804   9.517   6.052   2.506 -0.0140  0.5404 -0.6294
26742SOL    HW280805   9.625   6.109   2.417 -0.1958 -0.9199 -1.8333
26743SOL     OW80806   8.305   7.688   4.522  0.5626 -0.1796  0.0950
26743SOL    HW180807   8.337   7.773   4.551 -2.2892  0.6905  1.0736
26743SOL    HW280808   8.274   7.646   4.602 -0.0113 -1.2367 -0.6544
26744SOL     OW80809   6.115   2.955   0.587 -0.4303  0.2174  0.1608
26744SOL    HW180810   6.037   2.939   0.639 -0.8120  1.8296  0.1212
26744SOL    HW280811   6.089   2.931   0.498 -0.3207 -0.8722  0.4047
26745SOL     OW80812   1.969   7.901   9.866  0.2980  0.1872 -0.5444
26745SOL    HW180813   1.985   7.955   9.944  1.0539  0.2425 -0.7284
26745SOL    HW280814   2.012   7.949   9.795 -0.4626  0.1844 -1.0182
26746SOL     OW80815   1.215   1.437   0.759  0.4115 -0.2356  0.4754
26746SOL    HW180816   1.279   1.462   0.826  0.7593 -1.2971  0.5575
26746SOL    HW280817   1.132   1.430   0.806  0.8916 -2.2804  1.1061
26747SOL     OW80818   1.096   5.053   8.391 -0.0993 -0.2141 -0.3244
26747SOL    HW180819   1.134   5.066   8.304  1.5342  1.7914  0.5930
26747SOL    HW280820   1.157   4.994   8.434 -0.8352 -1.0985 -0.4716
26748SOL     OW80821   9.145   9.372   2.680  0.4134 -0.1010  0.2307
26748SOL    HW180822   9.080   9.441   2.693 -1.2039 -1.3973 -0.5434
26748SOL    HW280823   9.176   9.386   2.590  3.6413  2.3826  1.5227
26749SOL     OW80824   0.008   4.478   8.268  0.1396  0.8120  0.4731
26749SOL    HW180825  -0.040   4.467   8.350  0.3953 -0.1093  0.5024
26749SOL    HW280826   0.054   4.396   8.255 -3.0968 -0.7803 -2.6803
26750SOL     OW80827   0.730   5.186   6.781  0.4956  0.1230 -0.2091
26750SOL    HW180828   0.691   5.272   6.767  1.5272  0.7116  0.4151
26750SOL    HW280829   0.812   5.204   6.827 -1.4523 -1.4036  4.5024
26751SOL     OW80830   3.779   4.667   2.450 -0.1713  0.0376  0.1412
26751SOL    HW180831   3.691   4.704   2.452  0.0474  0.5267  0.8581
26751SOL    HW280832   3.776   4.597   2.516 -0.0968 -0.1241 -0.0263
26752SOL     OW80833   8.016   7.281   1.607  0.1271 -0.3607  0.4864
26752SOL    HW180834   8.100   7.258   1.566  0.8451  0.5835  1.3665
26752SOL    HW280835   7.971   7.332   1.539  0.5882 -0.2364  0.2616
26753SOL     OW80836   0.261   1.878   1.020 -0.0369 -0.2130  0.7786
26753SOL    HW180837   0.289   1.895   0.930  1.6321  2.9979  1.7698
26753SOL    HW280838   0.172   1.911   1.025  0.1823  0.4185  0.5185
26754SOL     OW80839   5.976   1.769   1.338 -0.4434 -0.0931  0.0211
26754SOL    HW180840   6.049   1.714   1.309 -0.2473  0.0435  0.2549
26754SOL    HW280841   6.010   1.816   1.414  0.0805  1.9787 -1.4399
26755SOL     OW80842   4.497   2.983   1.675  0.0616  0.3716 -0.6509
26755SOL    HW180843   4.575   2.959   1.726 -0.4312  0.1229 -0.0128
26755SOL    HW280844   4.503   2.929   1.596 -0.2304 -0.7546  0.0705
26756SOL     OW80845   0.252   9.958   7.681  0.5114  0.0003  0.3954
26756SOL    HW180846   0.231   9.865   7.692  1.9555 -0.4216 -0.1763
26756SOL    HW280847   0.284   9.986   7.767  2.2604 -0.6561 -0.0117
26757SOL     OW80848   1.367   2.018   7.111  0.0249  0.4693  0.6259
26757SOL    HW180849   1.372   2.036   7.017  1.9157 -1.6656  0.2447
26757SOL    HW280850   1.313   2.090   7.146  0.5650  2.2069 -1.8325
26758SOL     OW80851   3.293   7.645   9.737 -0.4993  0.7148 -0.2876
26758SOL    HW180852   3.366   7.620   9.680 -0.5086 -0.7528  0.3152
26758SOL    HW280853   3.215   7.623   9.686 -0.5284 -2.1505  0.8474
26759SOL     OW80854   7.216   3.734   7.629 -0.1013  0.0959  0.3034
26759SOL    HW180855   7.275   3.781   7.571  1.2183 -1.2368  0.5175
26759SOL    HW280856   7.271   3.703   7.701 -1.0808 -0.9743  0.6301
26760SOL     OW80857   5.664   2.787   6.877 -0.1931 -0.0425  0.5146
26760SOL    HW180858   5.704   2.866   6.840 -2.4974  0.3300 -1.5451
26760SOL    HW280859   5.709   2.714   6.834  0.1564  0.2688  0.3528
26761SOL     OW80860   8.625   9.953   4.965  0.4747  0.2242  0.2451
26761SOL    HW180861   8.647  10.042   4.939  0.7455  0.3212  0.7790
26761SOL    HW280862   8.698   9.926   5.022 -0.6806  0.5067  1.9605
26762SOL     OW80863   6.685   1.389   3.785  0.2245  0.0990 -0.1304
26762SOL    HW180864   6.754   1.445   3.748  0.2785  0.7002  0.8214
26762SOL    HW280865   6.604   1.437   3.768  0.1996  0.1216  0.0497
26763SOL     OW80866   2.277   4.194   4.378 -0.5875  0.3622  0.1876
26763SOL    HW180867   2.281   4.117   4.435  0.8717  0.4283  0.1984
26763SOL    HW280868   2.256   4.266   4.437  0.6366  0.3823  0.6176
26764SOL     OW80869   6.958   5.234   7.589 -0.3780 -0.0937 -0.2911
26764SOL    HW180870   7.010   5.208   7.665 -1.1770 -0.5442  0.1182
26764SOL    HW280871   6.873   5.260   7.627  0.0023  2.0808 -0.7767
26765SOL     OW80872   7.596   7.091   8.368 -0.2119 -0.0918  0.0345
26765SOL    HW180873   7.548   7.103   8.286  0.4317 -1.3395 -0.5560
26765SOL    HW280874   7.597   6.996   8.381 -0.0353  0.0707  1.3344
26766SOL     OW80875   4.417   3.939   3.993  0.3728  0.2440 -0.4302
26766SOL    HW180876   4.379   3.996   3.927  0.5006  0.2869 -0.4664
26766SOL    HW280877   4.478   3.883   3.945 -0.3837 -0.5045 -0.5315
26767SOL     OW80878   3.861   8.559   3.704  0.2305 -0.6901 -0.2301
26767SOL    HW180879   3.898   8.525   3.786  0.6121  1.7206  0.6896
26767SOL    HW280880   3.820   8.642   3.729 -0.5780 -0.4071 -2.3201
26768SOL     OW80881   6.646   0.451   1.797  0.2435  0.1056  0.1213
26768SOL    HW180882   6.675   0.510   1.727 -0.4302  0.7007  0.3250
26768SOL    HW280883   6.603   0.509   1.860  1.2780 -0.3455  1.2842
26769SOL     OW80884   4.428   5.293   0.820 -0.3871  0.2873  0.5327
26769SOL    HW180885   4.477   5.216   0.847  0.3795  0.6582  0.2109
26769SOL    HW280886   4.486   5.367   0.838 -0.6530  0.6954 -0.2463
26770SOL     OW80887   4.395   1.479   2.270 -0.5799  0.1415  0.0959
26770SOL    HW180888   4.447   1.558   2.255 -2.3094  1.2632 -0.2776
26770SOL    HW280889   4.350   1.464   2.187  0.1533 -1.6175 -0.0382
26771SOL     OW80890   9.664   9.911   3.006 -0.1405 -0.5605  0.0497
26771SOL    HW180891   9.707   9.984   2.963  0.3763 -0.1813  1.1719
26771SOL    HW280892   9.720   9.835   2.986  0.1045 -0.3843  0.0655
26772SOL     OW80893   8.961   5.357   4.289  0.7891  0.2912  0.0308
26772SOL    HW180894   9.017   5.288   4.324 -0.9399 -0.1274  2.1870
26772SOL    HW280895   8.908   5.313   4.222  0.7904 -0.0790  0.2704
26773SOL     OW80896   4.276   4.217   3.133  0.0535 -0.2595 -0.1923
26773SOL    HW180897   4.321   4.268   3.065  0.9866  0.3660  0.8594
26773SOL    HW280898   4.333   4.142   3.148 -1.2701 -1.6239 -1.6653
26774SOL     OW80899   0.976   8.204   5.581 -0.0598 -0.5447  0.1738
26774SOL    HW180900   0.985   8.239   5.670 -1.0906  1.8242 -0.5657
26774SOL    HW280901   1.029   8.262   5.527 -1.8871 -0.0046 -1.1504
26775SOL     OW80902   7.155   9.451   1.955 -0.0969 -0.3843 -0.4107
26775SOL    HW180903   7.086   9.398   1.915  0.4129 -0.7840 -0.7734
26775SOL    HW280904   7.159   9.422   2.046 -1.9482  1.2147  0.2609
26776SOL     OW80905   2.335   8.573   0.012  0.4404  0.0014 -0.2332
26776SOL    HW180906   2.271   8.530   0.069  1.7603 -1.4376  0.2588
26776SOL    HW280907   2.303   8.556  -0.077  0.3705 -1.1280 -0.0123
26777SOL     OW80908   8.916   5.200   7.125  0.2129  0.1210 -0.4070
26777SOL    HW180909   8.978   5.189   7.053 -0.9375 -1.4432 -1.2254
26777SOL    HW280910   8.847   5.137   7.107 -2.1705  2.4765 -0.0817
26778SOL     OW80911   8.001   5.127   4.088 -0.4418  0.1987 -0.5746
26778SOL    HW180912   7.912   5.124   4.125 -0.4866  1.7588 -0.5007
26778SOL    HW280913   8.051   5.179   4.151  0.3940 -0.1749 -0.9198
26779SOL     OW80914   8.248   5.146   8.092 -0.2782 -0.6688  0.2128
26779SOL    HW180915   8.302   5.218   8.125  0.0818 -1.1319  0.6402
26779SOL    HW280916   8.298   5.108   8.021 -0.0917 -1.0203  0.5291
26780SOL     OW80917   2.365   1.607   1.857  0.0697  0.4650 -0.1259
26780SOL    HW180918   2.318   1.561   1.926 -0.4805  1.6183  0.3070
26780SOL    HW280919   2.396   1.688   1.899  0.2109  0.9177 -1.0729
26781SOL     OW80920   5.418   2.982   2.267 -0.1077  0.2726  0.2764
26781SOL    HW180921   5.422   3.053   2.331 -0.8736 -0.4911  1.1949
26781SOL    HW280922   5.335   2.996   2.221  0.1258  0.4297 -0.1071
26782SOL     OW80923   4.934   6.787   4.326 -0.4266 -0.1578 -0.2926
26782SOL    HW180924   4.877   6.839   4.382 -1.5815 -0.7850 -0.8707
26782SOL    HW280925   4.903   6.803   4.237 -1.4387 -2.5360 -0.4315
26783SOL     OW80926   7.791   5.670   4.389 -0.1135  0.0068 -0.2229
26783SOL    HW180927   7.880   5.676   4.354 -0.0857  1.7169  0.0865
26783SOL    HW280928   7.740   5.634   4.316  0.8750 -1.4002 -0.2623
26784SOL     OW80929   5.609   9.464   8.208  0.0370 -0.4295 -0.3414
26784SOL    HW180930   5.632   9.372   8.196  2.8297  0.2970 -1.4012
26784SOL    HW280931   5.587   9.494   8.121  2.2434  0.5565 -0.6412
26785SOL     OW80932   9.962   9.968   0.023  0.5849 -0.3976  0.0046
26785SOL    HW180933   9.885   9.960   0.079  0.3196  1.4654 -0.0277
26785SOL    HW280934  10.034   9.934   0.076  0.0841 -0.1106  0.8960
26786SOL     OW80935   7.095   8.945   4.275  0.4158  0.4774 -0.3266
26786SOL    HW180936   7.152   9.020   4.263  0.7827  0.6818  2.1661
26786SOL    HW280937   7.032   8.972   4.342 -0.0822 -1.0803 -0.1064
26787SOL     OW80938   8.577   7.746   1.536  1.1143 -0.1928 -0.5112
26787SOL    HW180939   8.512   7.764   1.604  0.1274 -0.6753 -1.2978
26787SOL    HW280940   8.574   7.824   1.480  1.2218 -0.2177 -0.5518
26788SOL     OW80941   4.623   2.265   4.729 -0.7464  0.3579 -0.7203
26788SOL    HW180942   4.668   2.332   4.781 -1.8229  0.4226  0.1823
26788SOL    HW280943   4.692   2.224   4.677 -0.0656  2.1788 -1.3177
26789SOL     OW80944   2.805   2.227   7.990  0.3660 -0.6750  0.2085
26789SOL    HW180945   2.712   2.248   7.986  0.0815 -1.3420  2.3447
26789SOL    HW280946   2.849   2.310   7.967 -0.7149 -0.2268 -0.3440
26790SOL     OW80947   8.644   5.829   6.114 -0.3071 -0.4243  0.4950
26790SOL    HW180948   8.695   5.789   6.044  0.2232  1.8735 -0.5349
26790SOL    HW280949   8.676   5.788   6.195 -0.8977 -3.0931 -0.5187
26791SOL     OW80950   8.006   2.717   2.154 -0.3371  0.0898 -0.1938
26791SOL    HW180951   7.939   2.649   2.165 -0.0825 -0.4286 -1.6226
26791SOL    HW280952   7.958   2.792   2.119 -0.3178  0.0141 -0.3835
26792SOL     OW80953   7.012   2.851   0.987 -0.3845  0.6349  0.4665
26792SOL    HW180954   7.086   2.814   0.939 -1.7489 -1.7596 -0.0017
26792SOL    HW280955   7.007   2.799   1.067 -0.9100  1.4858  0.9973
26793SOL     OW80956   4.806   4.118   5.906 -0.1328  0.1970  0.5487
26793SOL    HW180957   4.880   4.166   5.945  0.0705  0.3764 -0.0499
26793SOL    HW280958   4.823   4.026   5.927 -0.3497  0.3485  1.4148
26794SOL     OW80959   6.901   1.554   8.070 -0.2136  0.8250  0.0345
26794SOL    HW180960   6.911   1.578   8.162 -1.4801  0.6973  0.2107
26794SOL    HW280961   6.848   1.624   8.033  1.4125  1.6141 -0.9456
26795SOL     OW80962   0.188   6.200   8.624  0.4542  0.4521  0.1421
26795SOL    HW180963   0.140   6.155   8.554  0.1384  1.5686 -0.3830
26795SOL    HW280964   0.148   6.166   8.704  1.4998 -1.6083 -0.1362
26796SOL     OW80965   9.653   1.017   1.706  0.0087 -0.0583  0.1685
26796SOL    HW180966   9.669   0.942   1.649 -0.9984 -0.0175 -0.1887
26796SOL    HW280967   9.709   1.087   1.671  1.0690 -0.6687  0.5980
26797SOL     OW80968   5.212   1.915   5.246  0.0777  0.6148  0.5871
26797SOL    HW180969   5.274   1.975   5.287  0.6123  0.5077 -0.0497
26797SOL    HW280970   5.158   1.884   5.319  0.1663  1.4140  1.0121
26798SOL     OW80971   8.201   0.160   3.898 -0.0315  0.1750  0.1664
26798SOL    HW180972   8.255   0.124   3.969 -1.1994 -1.4442  0.2862
26798SOL    HW280973   8.111   0.146   3.927 -0.5545 -0.9896 -1.8385
26799SOL     OW80974   3.190   4.680   4.828  0.4420 -0.3860  0.0466
26799SOL    HW180975   3.285   4.687   4.819  0.5145 -1.6251 -0.2960
26799SOL    HW280976   3.162   4.768   4.856  1.5517  0.3040 -0.9257
26800SOL     OW80977   6.862   0.556   3.070  0.1877 -0.0282 -0.5719
26800SOL    HW180978   6.805   0.482   3.092  1.3789 -0.5531  0.9366
26800SOL    HW280979   6.820   0.631   3.112  0.9745 -0.5495  1.2276
26801SOL     OW80980   7.580   9.036   1.672 -0.3887  0.5991  0.3752
26801SOL    HW180981   7.663   9.003   1.707 -0.3524  0.5594  0.2507
26801SOL    HW280982   7.513   8.997   1.729 -0.4262 -0.6292 -0.4645
26802SOL     OW80983   8.254   5.158   0.500  0.0553 -0.0752  0.3996
26802SOL    HW180984   8.348   5.147   0.511  0.1325  1.2955  1.2568
26802SOL    HW280985   8.237   5.127   0.410  1.4915  0.7134 -0.1705
26803SOL     OW80986   2.214   3.866   1.763  0.1957 -0.7427 -0.4958
26803SOL    HW180987   2.182   3.945   1.720 -2.5877 -0.8573  1.0953
26803SOL    HW280988   2.195   3.880   1.856  2.6005 -2.0038  0.2729
26804SOL     OW80989   2.918   8.053   3.223  0.0660  0.4307  0.1016
26804SOL    HW180990   2.874   8.008   3.150  0.8023 -1.5791  0.8330
26804SOL    HW280991   2.847   8.082   3.279 -0.5030  1.7336 -1.2104
26805SOL     OW80992   2.995   1.835   1.170 -0.2495  0.5869  0.4517
26805SOL    HW180993   3.028   1.868   1.087  0.1132 -0.0836  0.3280
26805SOL    HW280994   3.064   1.778   1.203 -0.8103  0.0531  0.7237
26806SOL     OW80995   2.191   7.728   6.963  0.1995 -0.2403  0.1543
26806SOL    HW180996   2.181   7.649   6.910  1.5082 -0.5105  0.2713
26806SOL    HW280997   2.233   7.697   7.043  0.5453  0.5528  0.2859
26807SOL     OW80998   0.478   4.413   5.653 -0.0793  0.3191 -0.2429
26807SOL    HW180999   0.431   4.462   5.586  1.0149  1.7810 -0.0030
26807SOL    HW281000   0.562   4.391   5.612  0.2329  0.4163  0.3393
26808SOL     OW81001   3.833   7.864   9.185 -0.4589  0.1560  0.0852
26808SOL    HW181002   3.855   7.862   9.279 -0.4778 -0.3592  0.0777
26808SOL    HW281003   3.917   7.855   9.141 -0.1155  2.8280  0.0121
26809SOL     OW81004   3.069   2.950   7.291 -0.1450  0.3991  0.1775
26809SOL    HW181005   3.060   2.893   7.367 -4.2881  0.0676 -0.3170
26809SOL    HW281006   3.061   3.038   7.326 -1.1049  0.2877  0.2613
26810SOL     OW81007   3.452   4.083   8.266 -0.2089 -0.2172 -0.2276
26810SOL    HW181008   3.499   4.135   8.201  0.4645 -0.4725  0.0493
26810SOL    HW281009   3.514   4.014   8.291  0.6740  1.4656  2.7611
26811SOL     OW81010   4.709   2.051   2.319  0.0385 -0.1032 -0.4645
26811SOL    HW181011   4.771   2.120   2.344 -1.1690  0.9659 -0.3098
26811SOL    HW281012   4.760   1.994   2.262  1.3631  0.3402  0.2018
26812SOL     OW81013   0.593   2.730   1.400  0.0991 -0.1512  0.0344
26812SOL    HW181014   0.519   2.723   1.339 -0.3941 -0.9639  0.7095
26812SOL    HW281015   0.667   2.694   1.351 -0.0640  0.1490 -0.4468
26813SOL     OW81016   2.563   8.998   1.707 -0.1785 -1.0151 -0.0534
26813SOL    HW181017   2.630   9.038   1.763  0.7221 -0.7326 -1.2960
26813SOL    HW281018   2.597   9.007   1.618 -2.7841  0.9716 -0.9723
26814SOL     OW81019   5.702   1.722   2.228 -0.4484 -0.0362  0.5134
26814SOL    HW181020   5.758   1.711   2.305  0.0095  1.6498  0.4574
26814SOL    HW281021   5.673   1.633   2.207 -1.5675 -0.4394  3.3400
26815SOL     OW81022   6.338   3.678   3.336 -0.5271 -0.7705 -0.1287
26815SOL    HW181023   6.406   3.666   3.270 -0.8187 -0.3398 -0.5177
26815SOL    HW281024   6.364   3.621   3.408  0.3024 -0.5228 -0.2236
26816SOL     OW81025   5.373   6.480   1.639 -0.1575  0.7859 -0.3521
26816SOL    HW181026   5.398   6.529   1.561  0.4836  0.4061 -0.3983
26816SOL    HW281027   5.345   6.395   1.605  1.3942  0.1346 -0.1069
26817SOL     OW81028   2.527   9.901   3.292 -0.5913  0.2435 -0.4162
26817SOL    HW181029   2.563   9.829   3.345 -0.2522  0.3590 -0.4912
26817SOL    HW281030   2.486   9.857   3.217  1.4887  0.2253 -1.5942
26818SOL     OW81031   6.327   3.674   1.884 -0.1967 -0.4482  0.7048
26818SOL    HW181032   6.403   3.628   1.848  1.0919  0.0318  2.6583
26818SOL    HW281033   6.351   3.766   1.884 -1.1285 -0.1949  0.5553
26819SOL     OW81034   6.050   6.094   7.016 -0.1227  0.5507 -0.6448
26819SOL    HW181035   5.970   6.051   7.044 -1.2994  2.4064 -0.9968
26819SOL    HW281036   6.086   6.036   6.948  0.4900 -1.7959  1.5431
26820SOL     OW81037   9.347   7.108   8.151  0.1855 -0.0084 -0.4217
26820SOL    HW181038   9.273   7.161   8.179 -0.5961 -0.4754 -1.5131
26820SOL    HW281039   9.369   7.055   8.228 -0.9035 -0.1748 -0.1996
26821SOL     OW81040   9.277   0.319   7.418  0.6133  0.0588  0.3059
26821SOL    HW181041   9.307   0.247   7.474  1.3592  1.1433  1.3423
26821SOL    HW281042   9.342   0.325   7.348  1.4144  0.7007  1.0818
26822SOL     OW81043   5.628   8.651   4.312  0.7155 -0.1752 -0.3892
26822SOL    HW181044   5.678   8.703   4.376  0.3244  1.5354 -1.4203
26822SOL    HW281045   5.544   8.636   4.354  0.9018 -0.1444 -0.0004
26823SOL     OW81046   2.399   7.119   4.830 -0.0573 -0.4003 -0.3113
26823SOL    HW181047   2.324   7.157   4.786 -1.0315 -2.2501 -0.3291
26823SOL    HW281048   2.408   7.032   4.792  2.0900 -0.2531 -0.2758
26824SOL     OW81049   2.184   6.031   4.470 -0.0099 -0.1604 -0.0809
26824SOL    HW181050   2.229   6.109   4.439  0.2471  0.1444  0.9996
26824SOL    HW281051   2.108   6.066   4.518 -2.3590 -0.6565 -3.0890
26825SOL     OW81052   7.078   1.660   3.131 -0.5326 -0.2171 -0.3468
26825SOL    HW181053   7.099   1.724   3.199  0.3700 -0.9365  0.0834
26825SOL    HW281054   7.054   1.581   3.179  3.0022 -1.7014 -0.7114
26826SOL     OW81055   1.298   6.059   6.085  0.1659 -0.2481  0.3943
26826SOL    HW181056   1.347   6.084   6.007  0.4593 -0.1716  0.6005
26826SOL    HW281057   1.356   6.082   6.158 -0.3548  0.2311  0.6572
26827SOL     OW81058   0.536   4.659   6.279  0.0847 -0.4233 -0.1952
26827SOL    HW181059   0.511   4.580   6.230  0.4967  0.2452 -1.5345
26827SOL    HW281060   0.528   4.730   6.215  0.5595  0.4998  0.7441
26828SOL     OW81061   6.678   5.384   6.492 -0.1426 -0.5066 -0.1522
26828SOL    HW181062   6.629   5.361   6.571 -0.3282  0.3682 -0.0139
26828SOL    HW281063   6.720   5.467   6.512  0.0714 -0.4331 -0.8602
26829SOL     OW81064   7.162   3.789   0.626  1.2943 -0.0095 -1.0319
26829SOL    HW181065   7.169   3.709   0.679  2.5397  0.8031  0.0828
26829SOL    HW281066   7.074   3.822   0.644  0.8442 -0.9916 -1.3392
26830SOL     OW81067   0.360   5.801   0.113 -0.0952  0.1305 -0.1997
26830SOL    HW181068   0.312   5.860   0.054  0.9101  1.7907  0.5920
26830SOL    HW281069   0.292   5.761   0.167 -0.7912  0.6191 -0.6949
26831SOL     OW81070   9.633   5.074   5.110 -0.2869  0.1825 -1.0198
26831SOL    HW181071   9.721   5.069   5.146 -0.7846  1.0604  0.4066
26831SOL    HW281072   9.614   5.167   5.104 -1.6496  0.0147  0.1295
26832SOL     OW81073   3.308   2.472   2.498  0.4018 -0.5150 -0.3945
26832SOL    HW181074   3.362   2.395   2.481 -0.2125 -0.8189 -1.0148
26832SOL    HW281075   3.218   2.441   2.487  0.0049 -0.3653  1.9929
26833SOL     OW81076   5.399   3.176   3.773 -0.0171  0.2712 -0.5682
26833SOL    HW181077   5.468   3.172   3.706 -0.4376 -0.0842 -0.9845
26833SOL    HW281078   5.339   3.106   3.750 -0.7358  0.8360 -0.4341
26834SOL     OW81079   7.443   3.152   8.032 -0.0391 -0.2457 -0.7341
26834SOL    HW181080   7.378   3.204   7.985 -1.8019 -2.0651 -0.4662
26834SOL    HW281081   7.472   3.087   7.968  0.5755 -0.2269 -0.4757
26835SOL     OW81082   8.366   4.433   9.770  1.0407  0.1168  0.3911
26835SOL    HW181083   8.274   4.448   9.747  1.5068  1.5444 -0.6585
26835SOL    HW281084   8.387   4.350   9.728 -0.0061 -0.7155  1.4336
26836SOL     OW81085   4.177   7.985   8.690  0.4630  0.2028 -0.6396
26836SOL    HW181086   4.200   8.050   8.624  0.4175  0.9174  0.0399
26836SOL    HW281087   4.092   7.952   8.663  1.2536 -0.8625 -1.9586
26837SOL     OW81088   0.292   2.620   5.283 -0.7075 -0.3156 -0.2639
26837SOL    HW181089   0.365   2.675   5.311  0.0106 -0.6863 -1.3498
26837SOL    HW281090   0.234   2.680   5.236  0.2637 -0.4938 -1.7853
26838SOL     OW81091   4.790   2.399   4.875  0.3870  0.1235  0.3813
26838SOL    HW181092   4.821   2.461   4.942 -0.9560  0.1241  1.0451
26838SOL    HW281093   4.869   2.367   4.833  1.1362  2.3449 -0.0340
26839SOL     OW81094   3.313   8.721   1.752  0.0792  0.1388 -0.3665
26839SOL    HW181095   3.241   8.659   1.764  1.2954 -1.3902 -0.6444
26839SOL    HW281096   3.359   8.721   1.836  0.0212  0.7618 -0.3334
26840SOL     OW81097   7.432   8.099   0.321 -0.5180 -0.6369  0.1097
26840SOL    HW181098   7.401   8.011   0.342 -1.2780 -0.1129  1.3004
26840SOL    HW281099   7.527   8.091   0.313 -0.7977 -2.1532 -2.8876
26841SOL     OW81100   7.961   1.514   0.269  0.5399  0.3770  0.0757
26841SOL    HW181101   7.972   1.555   0.354 -0.6665 -0.2202  0.5395
26841SOL    HW281102   7.997   1.426   0.280  1.3491  0.6423 -0.3531
26842SOL     OW81103   1.662   3.071   1.214  0.1845 -0.1751  0.8483
26842SOL    HW181104   1.730   3.006   1.198  0.2112  0.2711 -1.1772
26842SOL    HW281105   1.709   3.149   1.242  0.7533  0.5614 -1.8530
26843SOL     OW81106   8.659   9.077   2.626 -0.1445 -0.4122  0.0814
26843SOL    HW181107   8.679   9.016   2.697  1.4255  0.1385  0.1418
26843SOL    HW281108   8.578   9.120   2.653  0.5689 -0.0162  1.6969
26844SOL     OW81109   2.251   6.170   5.251 -0.1724 -0.1651 -0.2259
26844SOL    HW181110   2.173   6.148   5.200 -0.4559 -2.0442  0.9343
26844SOL    HW281111   2.219   6.224   5.323 -0.3119 -0.3984 -0.1122
26845SOL     OW81112   3.466   8.994   2.031 -0.2741 -0.4865  0.2881
26845SOL    HW181113   3.505   9.048   2.100 -2.1174  0.6070  0.5686
26845SOL    HW281114   3.473   9.048   1.952 -1.3544 -0.1558  0.3943
26846SOL     OW81115   5.460   9.064   8.757 -0.1421 -0.0872 -0.8214
26846SOL    HW181116   5.369   9.039   8.774  0.0543  0.0414  0.5674
26846SOL    HW281117   5.496   8.992   8.706 -0.9784 -0.2104 -1.2465
26847SOL     OW81118   4.089   7.725   8.021  0.2868 -0.1695 -0.4127
26847SOL    HW181119   4.087   7.745   7.928 -0.3591  3.1278  0.1593
26847SOL    HW281120   4.182   7.716   8.042  0.4577 -0.5358 -1.2883
26848SOL     OW81121   1.784   1.444   3.981 -0.5736 -0.6054  0.0923
26848SOL    HW181122   1.758   1.373   4.039 -0.5983 -1.4781 -0.9505
26848SOL    HW281123   1.877   1.428   3.965 -0.5038 -0.2150  0.1053
26849SOL     OW81124   8.894   5.660   9.653  0.4122  0.1142  0.1470
26849SOL    HW181125   8.891   5.750   9.688  0.1061 -0.2043  0.9805
26849SOL    HW281126   8.815   5.619   9.689  0.4000 -0.4073 -0.4698
26850SOL     OW81127   0.728   5.917   8.323 -0.0635 -0.3301  0.9178
26850SOL    HW181128   0.694   5.847   8.380 -0.3644  0.0277  1.1786
26850SOL    HW281129   0.757   5.871   8.245 -0.9855 -0.6748  0.7578
26851SOL     OW81130   5.813   6.317   9.448 -0.7414  0.3992 -0.0867
26851SOL    HW181131   5.854   6.236   9.477 -2.8985 -0.8709 -0.3526
26851SOL    HW281132   5.786   6.361   9.529 -0.0619  0.5991  0.0376
26852SOL     OW81133   4.912   9.930   5.623 -0.0505  0.3284 -0.1387
26852SOL    HW181134   4.979   9.952   5.688  0.6169  0.3104 -0.7959
26852SOL    HW281135   4.862   9.859   5.662 -0.4586  1.1495  0.8658
26853SOL     OW81136   6.707   2.941   5.303 -0.5159 -0.0838 -1.1134
26853SOL    HW181137   6.630   2.896   5.339 -0.3151  0.3652 -0.0681
26853SOL    HW281138   6.685   3.034   5.311  1.4819  0.2404  2.5646
26854SOL     OW81139   9.431   8.074   9.529  0.4173  0.2598  0.0941
26854SOL    HW181140   9.344   8.034   9.529 -0.0265  1.1652 -1.1196
26854SOL    HW281141   9.440   8.110   9.441  2.0994  0.0405  0.1537
26855SOL     OW81142   4.118   9.139   8.338  0.0731  0.4324 -0.4877
26855SOL    HW181143   4.031   9.153   8.376  0.7758 -0.4357  1.5893
26855SOL    HW281144   4.106   9.065   8.278 -0.9903  1.6061 -1.7892
26856SOL     OW81145   7.249   5.968   2.040  0.5624 -0.0609  0.5164
26856SOL    HW181146   7.245   6.050   2.089  0.0493 -0.3148  0.9125
26856SOL    HW281147   7.157   5.941   2.031  0.2994  1.3850 -2.9663
26857SOL     OW81148   3.898   1.412   4.762  0.1556 -0.1321 -0.3875
26857SOL    HW181149   3.934   1.488   4.807 -0.3516  0.7734 -1.4537
26857SOL    HW281150   3.958   1.340   4.783  1.2903  0.8210 -0.2766
26858SOL     OW81151   3.710   5.761   2.234  0.0616  0.0260 -0.2918
26858SOL    HW181152   3.705   5.855   2.216 -1.9631  0.2269  0.9888
26858SOL    HW281153   3.697   5.720   2.149 -2.7551  0.9552 -0.4159
26859SOL     OW81154   7.896   6.835   0.125 -0.6305 -0.1782  0.0589
26859SOL    HW181155   7.896   6.752   0.173  0.9080  0.7630  1.8273
26859SOL    HW281156   7.825   6.827   0.062 -0.8615 -2.6181  0.5560
26860SOL     OW81157   7.787   1.831   1.278 -0.0013 -0.0479  0.0324
26860SOL    HW181158   7.806   1.737   1.283 -1.3267 -0.5157 -2.4161
26860SOL    HW281159   7.719   1.844   1.344  0.4291 -0.7188  0.6324
26861SOL     OW81160   8.337   8.149   0.984 -0.0168 -0.2771 -0.6390
26861SOL    HW181161   8.254   8.175   1.023  1.0066 -0.6107  2.0062
26861SOL    HW281162   8.369   8.227   0.940 -1.0222  0.3086 -0.3512
26862SOL     OW81163   5.859   6.271   7.649 -0.4632  0.3826  0.2668
26862SOL    HW181164   5.904   6.187   7.634  1.2893  1.6332 -2.2331
26862SOL    HW281165   5.775   6.246   7.688  0.4348 -2.4440  0.6370
26863SOL     OW81166   3.075   7.290   0.718  0.5947 -0.1736  0.2580
26863SOL    HW181167   3.162   7.308   0.754  1.1407  0.0854 -1.1639
26863SOL    HW281168   3.091   7.256   0.630 -0.7329 -0.4791  0.1070
26864SOL     OW81169   0.191   6.264   1.743 -0.2465  0.3701  0.4909
26864SOL    HW181170   0.151   6.318   1.674 -0.6269  0.6285  0.9086
26864SOL    HW281171   0.154   6.177   1.730 -1.5600  0.7740  1.3406
26865SOL     OW81172   7.446   5.599   8.022 -0.1938 -0.2505  1.0777
26865SOL    HW181173   7.368   5.643   7.990  0.4102  0.7976  1.0123
26865SOL    HW281174   7.420   5.561   8.106 -1.3487 -1.7206  0.1024
26866SOL     OW81175   0.121   7.336   5.645  0.6634 -0.1648  0.4817
26866SOL    HW181176   0.158   7.380   5.722  0.5860  0.7207  0.0249
26866SOL    HW281177   0.163   7.249   5.645 -0.3928 -0.7418  2.3190
26867SOL     OW81178   5.299   1.031   5.909  0.4611 -0.7373 -0.0767
26867SOL    HW181179   5.384   1.010   5.869  1.8830  0.7171  1.9311
26867SOL    HW281180   5.317   1.031   6.003 -1.3060  1.4094  0.3412
26868SOL     OW81181   9.878   1.451   9.132 -0.1284  0.1895  0.9961
26868SOL    HW181182   9.839   1.539   9.130  1.3262  0.9067  1.9745
26868SOL    HW281183   9.840   1.406   9.057 -0.9420  1.6508  0.4937
26869SOL     OW81184   6.533   2.584   0.376  0.5348  0.5613 -0.0557
26869SOL    HW181185   6.478   2.660   0.358 -1.6314 -0.6147  1.2291
26869SOL    HW281186   6.537   2.536   0.293  2.9181  2.5593 -1.2301
26870SOL     OW81187   7.029   9.676   2.916 -0.8209 -0.0536 -0.0650
26870SOL    HW181188   6.963   9.624   2.962  0.7045 -1.2983  0.7907
26870SOL    HW281189   7.066   9.734   2.982  0.2339 -0.6891 -0.0756
26871SOL     OW81190   0.698   5.300   0.746  0.2913  0.4347  0.4557
26871SOL    HW181191   0.749   5.327   0.822 -2.4890  1.3488  2.1569
26871SOL    HW281192   0.640   5.231   0.779 -1.8326  1.6788 -0.4193
26872SOL     OW81193   0.108   9.012   5.053 -0.0662 -0.2465 -0.4949
26872SOL    HW181194   0.168   9.059   5.111 -0.8569  0.8654 -0.5354
26872SOL    HW281195   0.094   8.927   5.095  1.8209 -0.6829 -0.6929
26873SOL     OW81196   8.734   8.009   3.137 -0.8560  0.1672 -0.4963
26873SOL    HW181197   8.790   8.030   3.212 -1.0586 -2.5237  0.5250
26873SOL    HW281198   8.651   8.052   3.156 -0.7307 -0.0380  0.5826
26874SOL     OW81199   4.050   3.419   8.547 -0.1818 -0.4650  0.3655
26874SOL    HW181200   3.964   3.441   8.584 -0.6835 -0.7005 -0.6054
26874SOL    HW281201   4.098   3.501   8.547 -1.1888  0.1763 -1.0433
26875SOL     OW81202   9.172   0.712   4.244  0.0082  0.0451 -0.4384
26875SOL    HW181203   9.136   0.689   4.330 -1.2636 -1.6720 -1.3718
26875SOL    HW281204   9.267   0.708   4.256 -0.1381 -1.9361  0.4840
26876SOL     OW81205   9.396   4.511   9.727 -0.2694 -0.1234 -0.1371
26876SOL    HW181206   9.381   4.577   9.660  0.2918  1.3335  1.0989
26876SOL    HW281207   9.325   4.523   9.790  0.5041  0.1745  0.7207
26877SOL     OW81208   5.785   5.945   3.325  0.2509  0.1058 -0.1285
26877SOL    HW181209   5.834   5.863   3.326  0.8818  0.4666 -0.2098
26877SOL    HW281210   5.789   5.975   3.234  0.4003  0.4373 -0.0168
26878SOL     OW81211   4.013   1.572   6.810 -0.2370  0.1682 -0.4294
26878SOL    HW181212   3.918   1.580   6.815 -0.1456  0.8234  0.7827
26878SOL    HW281213   4.043   1.660   6.786  0.0938  0.1742 -0.0135
26879SOL     OW81214   0.583   2.669   2.586 -0.3599  0.0364 -0.1108
26879SOL    HW181215   0.564   2.645   2.677  1.7710  0.9381  0.6370
26879SOL    HW281216   0.550   2.595   2.534 -1.4438 -0.5775  1.3852
26880SOL     OW81217   1.726   9.308   6.446 -0.0891  0.0227 -1.0582
26880SOL    HW181218   1.799   9.336   6.390 -0.0916  2.2715 -0.0339
26880SOL    HW281219   1.688   9.233   6.399  0.5711  1.0965 -3.4885
26881SOL     OW81220   6.821   4.960   2.124  0.3324 -0.9004 -0.5914
26881SOL    HW181221   6.736   4.957   2.168  0.4193  0.1538 -0.3206
26881SOL    HW281222   6.826   5.049   2.088  2.1320 -0.2589  1.0617
26882SOL     OW81223   7.113   6.314   7.520 -0.0148 -0.4786 -0.0322
26882SOL    HW181224   7.068   6.399   7.522  0.4824 -0.2133  0.3872
26882SOL    HW281225   7.147   6.303   7.609  0.9538 -0.5476 -0.3946
26883SOL     OW81226   1.871   8.139   5.359  0.7128  0.6328 -0.1069
26883SOL    HW181227   1.878   8.086   5.438 -1.4584 -0.5156 -0.6063
26883SOL    HW281228   1.929   8.097   5.296 -1.0144 -1.2780 -0.5072
26884SOL     OW81229   2.679   8.509   2.640 -0.5283 -0.6193 -0.4190
26884SOL    HW181230   2.612   8.445   2.614 -0.0134 -0.2450 -2.9239
26884SOL    HW281231   2.719   8.472   2.719 -2.0233 -2.0510 -0.2850
26885SOL     OW81232   7.047   2.298   2.371 -0.2398 -0.2953  0.2381
26885SOL    HW181233   7.046   2.224   2.431  0.5627 -1.0383 -0.6367
26885SOL    HW281234   6.986   2.275   2.302  0.0623 -0.1807 -0.0739
26886SOL     OW81235   3.544   7.285   0.147 -0.1735  0.1647  0.9143
26886SOL    HW181236   3.546   7.329   0.232  0.1497 -0.2172  1.1101
26886SOL    HW281237   3.481   7.335   0.095 -1.3315 -0.3145  1.7890
26887SOL     OW81238   9.469   9.654   5.859 -0.8562 -0.2954 -0.1705
26887SOL    HW181239   9.449   9.697   5.942  0.5760  0.2891 -0.0870
26887SOL    HW281240   9.541   9.705   5.822 -1.4505 -0.5536 -1.7819
26888SOL     OW81241   0.662   3.662   8.678  0.4413  0.4261  0.5610
26888SOL    HW181242   0.744   3.653   8.629 -0.2236  1.4194 -0.8171
26888SOL    HW281243   0.639   3.754   8.669  0.1547  0.5831  2.6012
26889SOL     OW81244   0.695   6.148   6.993 -0.1270 -1.1392 -0.0388
26889SOL    HW181245   0.719   6.130   7.084 -0.4365  0.4844  0.3902
26889SOL    HW281246   0.766   6.201   6.959 -0.3811 -1.0935 -0.5048
26890SOL     OW81247   1.014   4.426   7.990  0.3273 -0.3354  0.0916
26890SOL    HW181248   1.050   4.408   8.077  0.7242 -1.3538 -0.2648
26890SOL    HW281249   1.072   4.492   7.953 -0.8092  1.3517  1.2171
26891SOL     OW81250   1.493   9.438   3.097  0.3695 -0.2113 -0.1441
26891SOL    HW181251   1.522   9.519   3.140  2.6749 -0.3303 -1.2826
26891SOL    HW281252   1.536   9.368   3.146  0.2274 -0.5845 -0.5449
26892SOL     OW81253   5.043   0.939   7.866 -0.1387 -0.0853 -0.0809
26892SOL    HW181254   5.112   0.967   7.926 -1.5810  3.6338  0.1095
26892SOL    HW281255   4.991   0.877   7.916  0.9897 -0.1528  1.0563
26893SOL     OW81256   7.497   5.473   2.614  0.0928 -0.1881  0.8043
26893SOL    HW181257   7.497   5.445   2.706 -3.9667 -0.2310  0.9654
26893SOL    HW281258   7.523   5.396   2.565 -1.2717 -1.3315  1.7896
26894SOL     OW81259   0.049   4.290   8.833  0.0024 -0.4128 -0.1532
26894SOL    HW181260   0.072   4.253   8.918 -2.0844  0.3298  0.7968
26894SOL    HW281261   0.109   4.248   8.771  1.9102 -0.6189  1.7177
26895SOL     OW81262   5.310   2.709   6.209 -0.4529  0.1974 -0.3535
26895SOL    HW181263   5.348   2.753   6.285  0.0502  0.9206 -1.0045
26895SOL    HW281264   5.368   2.732   6.136  0.4006 -2.3640 -0.5821
26896SOL     OW81265   4.208   3.280   0.174  0.0870 -0.0491  0.2624
26896SOL    HW181266   4.154   3.318   0.105 -0.7197  0.2770  1.0538
26896SOL    HW281267   4.236   3.195   0.139 -1.7495 -0.6707  0.1771
26897SOL     OW81268   6.848   2.300   7.965 -0.0079 -0.1668 -0.2246
26897SOL    HW181269   6.890   2.269   7.885  0.2766 -1.8961  0.5364
26897SOL    HW281270   6.755   2.278   7.954  0.1496 -1.0974  0.2005
26898SOL     OW81271   9.498   9.809   7.013  0.2844 -0.1618 -0.2205
26898SOL    HW181272   9.448   9.734   7.046 -1.9199  1.2290 -0.2050
26898SOL    HW281273   9.444   9.885   7.036  2.6974  1.5084  0.2454
26899SOL     OW81274   9.406   4.363   1.411 -0.2809 -0.0051 -0.2957
26899SOL    HW181275   9.373   4.451   1.431 -0.3484  0.4484 -2.2114
26899SOL    HW281276   9.329   4.317   1.377 -0.1742 -0.7408  0.4296
26900SOL     OW81277   7.079   7.356   1.629  0.8775 -0.4561 -0.2785
26900SOL    HW181278   6.991   7.319   1.623  0.6115 -0.2137  1.7022
26900SOL    HW281279   7.072   7.442   1.588  0.7714 -1.3086 -2.1553
26901SOL     OW81280   7.042   0.106   1.185 -0.0883 -0.9314  0.0782
26901SOL    HW181281   6.995   0.085   1.104  0.5249  0.0387 -0.5523
26901SOL    HW281282   6.979   0.153   1.239  0.2075  0.6212 -0.8806
26902SOL     OW81283   7.331   3.074   9.242 -0.5023  0.3736 -0.3443
26902SOL    HW181284   7.394   3.005   9.221  0.0273  1.0682 -1.1024
26902SOL    HW281285   7.254   3.054   9.189 -0.8615 -0.3539  0.4204
26903SOL     OW81286   0.620   8.777   7.112 -0.3659 -0.0743 -0.3207
26903SOL    HW181287   0.537   8.794   7.157 -1.1862 -0.1804 -1.7111
26903SOL    HW281288   0.687   8.788   7.179 -1.5301 -0.3832  0.9424
26904SOL     OW81289   9.040   3.949   3.324  0.2299 -0.0044  0.3271
26904SOL    HW181290   9.005   3.864   3.299 -1.2931  0.3003  1.3062
26904SOL    HW281291   9.049   3.945   3.419  0.2183  0.8937  0.3739
26905SOL     OW81292   6.815   2.606   9.304  0.0245  0.4604 -0.6516
26905SOL    HW181293   6.756   2.566   9.368 -0.0358  0.6221 -0.6026
26905SOL    HW281294   6.794   2.700   9.308 -0.0542  0.4600 -0.9831
26906SOL     OW81295   1.568   9.964   6.225  0.1254 -0.0469  0.1692
26906SOL    HW181296   1.658   9.932   6.224  1.0782  2.3966  0.8442
26906SOL    HW281297   1.526   9.920   6.151  2.7337  0.9916 -2.0932
26907SOL     OW81298   7.407   8.010   9.164 -0.0751 -0.6803  0.1608
26907SOL    HW181299   7.393   8.094   9.120  1.9724 -0.8153 -0.8701
26907SOL    HW281300   7.444   8.033   9.249  0.5745 -0.5137 -0.1587
26908SOL     OW81301   7.685   3.497   4.284 -0.0385 -0.0247  0.1545
26908SOL    HW181302   7.683   3.546   4.202 -0.8514 -1.1047 -0.4924
26908SOL    HW281303   7.645   3.556   4.348  0.3679  0.7260 -0.2605
26909SOL     OW81304   5.604   1.233   4.041 -0.3635  0.5181 -0.0858
26909SOL    HW181305   5.560   1.185   4.111  1.2141  0.4663  0.9003
26909SOL    HW281306   5.691   1.252   4.075 -0.3289  2.5462 -1.1377
26910SOL     OW81307   5.923   9.657   7.998  0.2420 -0.1078 -0.9585
26910SOL    HW181308   5.893   9.577   7.954  0.4366 -0.6405 -0.1519
26910SOL    HW281309   5.846   9.690   8.044  0.3300 -0.2340 -0.7148
26911SOL     OW81310   1.613   0.515   7.700  0.1720 -0.0046  0.1230
26911SOL    HW181311   1.670   0.530   7.625  0.7745 -1.1043  0.3440
26911SOL    HW281312   1.619   0.421   7.716 -0.1459  0.1824  1.3991
26912SOL     OW81313   3.610   2.064   7.720 -0.0107 -0.0155 -0.1264
26912SOL    HW181314   3.617   1.986   7.776 -1.4428  1.1866  1.8987
26912SOL    HW281315   3.700   2.093   7.707  0.4309 -0.9762  0.6531
26913SOL     OW81316   9.254   2.447   5.974 -0.0999  0.5505 -0.5626
26913SOL    HW181317   9.197   2.371   5.961 -1.3666  1.4433 -0.4491
26913SOL    HW281318   9.304   2.453   5.893  0.0508 -0.4170 -0.5610
26914SOL     OW81319   9.755   5.548   1.749 -0.5075 -0.2765 -0.4593
26914SOL    HW181320   9.755   5.642   1.729  0.1193 -0.0659  0.4739
26914SOL    HW281321   9.673   5.516   1.713 -2.8534  1.4138  2.8600
26915SOL     OW81322   3.984   4.239   1.548 -0.1705 -0.4639 -0.2354
26915SOL    HW181323   3.938   4.220   1.631 -1.5791  1.4664 -0.4900
26915SOL    HW281324   3.916   4.230   1.481  0.9958 -2.1583 -1.2604
26916SOL     OW81325   2.459   3.316   4.736 -0.1720 -0.0821  0.2974
26916SOL    HW181326   2.528   3.380   4.751  1.9208 -1.7571 -1.4161
26916SOL    HW281327   2.476   3.284   4.647 -3.7697  0.0710 -0.5830
26917SOL     OW81328   4.429   6.472   4.942 -0.8332 -0.4777  0.1522
26917SOL    HW181329   4.422   6.387   4.986 -2.1073  0.1388  1.2191
26917SOL    HW281330   4.389   6.534   5.004 -0.3879  0.8179 -0.8221
26918SOL     OW81331   0.181   0.948   5.097 -0.5254 -0.3671 -0.2103
26918SOL    HW181332   0.183   0.927   5.190 -0.5461 -0.7620 -0.2980
26918SOL    HW281333   0.093   0.923   5.068 -0.6239  0.0404 -0.2702
26919SOL     OW81334   6.644   8.058   3.166  0.7755  0.0208 -0.0411
26919SOL    HW181335   6.648   8.130   3.229 -1.8631 -0.1384  0.4571
26919SOL    HW281336   6.591   8.092   3.094  0.3946 -1.0658 -0.2931
26920SOL     OW81337   2.907   9.258   3.152 -0.1090  0.8213 -0.2648
26920SOL    HW181338   2.813   9.272   3.141  0.3270  1.7451 -4.1333
26920SOL    HW281339   2.916   9.162   3.158 -1.2617  0.7438  0.6428
26921SOL     OW81340   7.314   3.922   6.585 -0.4374 -0.1321  0.5053
26921SOL    HW181341   7.389   3.981   6.593 -0.8106  1.1048 -3.3153
26921SOL    HW281342   7.238   3.980   6.594 -0.8894 -0.7323  0.5982
26922SOL     OW81343   5.198   7.700   5.965 -0.2991 -0.1551 -0.8469
26922SOL    HW181344   5.184   7.607   5.951  1.1168 -0.1979 -2.2652
26922SOL    HW281345   5.291   7.714   5.947 -0.1099  1.2693  0.9244
26923SOL     OW81346   7.893   1.523   1.843  0.0452 -0.1181  0.0693
26923SOL    HW181347   7.841   1.602   1.828 -1.8149 -1.3044 -0.0333
26923SOL    HW281348   7.969   1.534   1.786 -0.3376  1.4239 -0.2076
26924SOL     OW81349   7.101   4.081   6.622  0.0406  0.1897  0.0507
26924SOL    HW181350   7.127   4.164   6.663 -1.9656  0.5243  0.7383
26924SOL    HW281351   7.019   4.101   6.577  0.6808 -0.9010 -1.7458
26925SOL     OW81352   6.409   3.947   7.150 -0.2445 -0.4963  0.0556
26925SOL    HW181353   6.364   3.994   7.220  1.0168  1.5676 -0.4477
26925SOL    HW281354   6.498   3.934   7.183 -0.5299 -2.5174  0.1386
26926SOL     OW81355   2.920   0.561   4.715  0.2323 -0.0734 -0.5642
26926SOL    HW181356   2.995   0.566   4.774 -1.6427  1.9532  1.8829
26926SOL    HW281357   2.861   0.498   4.755 -0.4600  0.2288 -1.0887
26927SOL     OW81358   8.201   1.865   8.722  0.0469 -0.2196  0.0211
26927SOL    HW181359   8.180   1.955   8.699 -0.8043 -0.1451  1.0273
26927SOL    HW281360   8.136   1.812   8.676 -0.3883 -0.2048  0.6019
26928SOL     OW81361   6.504   2.824   6.703  0.4071  0.4302 -0.2949
26928SOL    HW181362   6.498   2.730   6.689  1.9749  0.1390  0.7956
26928SOL    HW281363   6.568   2.854   6.638 -0.2574  0.8071 -0.7948
26929SOL     OW81364   4.983   1.348   1.048 -0.6608 -0.6907 -0.4479
26929SOL    HW181365   4.957   1.399   0.971 -0.1078 -1.6553 -1.2983
26929SOL    HW281366   5.078   1.361   1.055 -0.6924 -0.6851  0.0165
26930SOL     OW81367   7.351   4.830   5.576 -0.0426 -0.0507  0.2100
26930SOL    HW181368   7.308   4.776   5.643  0.6079 -1.3705 -0.3873
26930SOL    HW281369   7.433   4.783   5.557  0.2578  0.8339 -0.7863
26931SOL     OW81370   3.024   9.009   1.530  0.2505 -0.6839 -0.5183
26931SOL    HW181371   3.029   8.929   1.478  0.9550 -0.4436 -0.8444
26931SOL    HW281372   3.083   8.994   1.603  0.2539 -0.5298 -0.4886
26932SOL     OW81373   4.556   3.834   0.798 -0.0553  1.3915  0.3925
26932SOL    HW181374   4.559   3.759   0.739 -0.2546  1.6641  0.0295
26932SOL    HW281375   4.638   3.881   0.782 -0.3825  1.8038 -0.1295
26933SOL     OW81376   1.795   9.260   9.857 -0.2830  0.4394  0.0304
26933SOL    HW181377   1.816   9.315   9.782 -1.4926 -1.2978 -1.6941
26933SOL    HW281378   1.791   9.171   9.822  0.3163 -0.6288  2.4206
26934SOL     OW81379   8.716   2.051   1.975  0.3902  0.2604  0.1974
26934SOL    HW181380   8.639   2.003   1.946  1.4758 -0.3646 -1.8966
26934SOL    HW281381   8.708   2.056   2.070 -2.1153  0.0873  0.0532
26935SOL     OW81382   9.295   5.705   6.473  0.3862 -0.0295  0.5129
26935SOL    HW181383   9.253   5.790   6.471  0.2057  0.0108  3.0503
26935SOL    HW281384   9.389   5.724   6.464  0.4022  0.5278  1.6738
26936SOL     OW81385   8.275   1.161   5.582 -0.4836  0.3146 -0.3192
26936SOL    HW181386   8.287   1.107   5.504  0.4375 -1.3654  0.9419
26936SOL    HW281387   8.319   1.243   5.561  0.1887 -0.2971 -1.3728
26937SOL     OW81388   3.069   0.530  -0.022 -0.0576  0.0255 -0.2449
26937SOL    HW181389   3.035   0.574   0.056  0.7083  0.5758 -0.2097
26937SOL    HW281390   3.113   0.452   0.011 -2.1986 -1.3266 -0.3758
26938SOL     OW81391   9.094   7.299   7.119 -0.2505  0.6047  0.2771
26938SOL    HW181392   9.072   7.244   7.044  2.5895  0.0030 -0.2026
26938SOL    HW281393   9.187   7.319   7.108  0.1368  0.9415  3.3631
26939SOL     OW81394   2.834   6.815   0.437  0.4908  0.3360 -0.2762
26939SOL    HW181395   2.889   6.744   0.405  0.3768  0.0578  0.1412
26939SOL    HW281396   2.794   6.781   0.517  0.0295  0.6832 -0.3543
26940SOL     OW81397   8.139   5.310   9.779  0.3233  0.0564  0.3641
26940SOL    HW181398   8.217   5.308   9.724  0.5449 -2.5730  0.6334
26940SOL    HW281399   8.066   5.305   9.718  0.5099 -1.0979  0.2198
26941SOL     OW81400   1.507   7.659   4.198 -0.3419  0.6411 -0.0535
26941SOL    HW181401   1.601   7.677   4.191 -0.1280 -0.9645 -2.4757
26941SOL    HW281402   1.501   7.600   4.273  0.6634  0.3463 -0.1800
26942SOL     OW81403   5.555   1.478   2.237 -0.9870 -0.4592 -0.3069
26942SOL    HW181404   5.489   1.508   2.300  0.2388  1.2289  0.2599
26942SOL    HW281405   5.608   1.415   2.286 -1.2630 -0.6857 -0.2967
26943SOL     OW81406   4.163   1.814   1.495  0.0346  0.0120  0.4045
26943SOL    HW181407   4.180   1.736   1.548  1.1169 -0.3006 -0.3829
26943SOL    HW281408   4.188   1.790   1.406  1.2410  1.5296  0.2969
26944SOL     OW81409   4.374   5.303   5.254  0.1096 -0.4123 -0.0112
26944SOL    HW181410   4.398   5.248   5.329  0.4501  0.6604  0.6985
26944SOL    HW281411   4.278   5.312   5.261  0.3397  1.7689  1.8871
26945SOL     OW81412   3.448   0.231   2.801  0.1260 -0.4634  0.6275
26945SOL    HW181413   3.424   0.139   2.812 -0.3199 -0.2300  1.7864
26945SOL    HW281414   3.485   0.256   2.886 -2.4551  1.1904  1.3890
26946SOL     OW81415   3.575   9.187   9.298  0.0694  0.2123  0.4518
26946SOL    HW181416   3.566   9.107   9.246 -1.8639  0.8140 -0.1983
26946SOL    HW281417   3.560   9.158   9.388  1.3695 -0.4713  0.4739
26947SOL     OW81418   3.040   9.640   6.935  0.0918  0.0073 -0.7443
26947SOL    HW181419   3.054   9.578   6.863 -1.1050 -0.4041 -0.6563
26947SOL    HW281420   2.993   9.713   6.895 -0.2245 -0.0409 -0.4693
26948SOL     OW81421   3.193   5.399   0.425  0.2670 -0.3206  0.3331
26948SOL    HW181422   3.233   5.322   0.384 -0.7082  0.1294 -1.5431
26948SOL    HW281423   3.158   5.366   0.508  0.4275 -1.7568 -0.1494
26949SOL     OW81424   4.448   9.444   6.477 -0.4154  0.0437  0.1805
26949SOL    HW181425   4.424   9.365   6.429  1.1248  0.9210 -2.1526
26949SOL    HW281426   4.516   9.415   6.539 -1.7287 -0.9056  1.2294
26950SOL     OW81427   8.197   5.313   4.665  0.0612 -0.4288  0.0087
26950SOL    HW181428   8.205   5.394   4.614 -0.2941 -1.2673 -1.4455
26950SOL    HW281429   8.104   5.308   4.689 -0.2062 -1.0743 -1.1014
26951SOL     OW81430   0.593   5.103   7.911 -0.6938 -0.2766  0.0277
26951SOL    HW181431   0.562   5.177   7.964  1.0063  0.7859 -0.3748
26951SOL    HW281432   0.687   5.119   7.901 -0.3598 -2.2913 -0.4320
26952SOL     OW81433   1.496   3.383   6.456  0.1208 -0.1936 -0.6872
26952SOL    HW181434   1.518   3.319   6.388 -1.0326 -0.7728 -0.5403
26952SOL    HW281435   1.409   3.413   6.434 -0.1177 -0.1035  0.3169
26953SOL     OW81436   8.238   3.276   1.215  0.2117  0.5443 -0.2741
26953SOL    HW181437   8.268   3.236   1.297  1.5540 -1.4097 -1.6316
26953SOL    HW281438   8.143   3.267   1.218  0.3657 -1.7065  0.0761
26954SOL     OW81439   9.313   8.605   5.910 -0.4619  0.1919  0.2520
26954SOL    HW181440   9.298   8.636   6.000 -0.8211  0.2923  0.1560
26954SOL    HW281441   9.330   8.684   5.860 -2.6746  0.4063 -0.2651
26955SOL     OW81442   8.968   6.999   8.104  0.1080  0.6569  0.9500
26955SOL    HW181443   9.027   7.050   8.160  1.4201  1.3013 -0.9158
26955SOL    HW281444   8.950   7.058   8.031 -2.1162  0.0951  0.9931
26956SOL     OW81445   5.900   2.480   5.481 -0.7198  0.7236 -0.0230
26956SOL    HW181446   5.894   2.409   5.545 -0.4397  1.3806  0.7579
26956SOL    HW281447   5.851   2.552   5.521  0.8964  1.7179  0.2834
26957SOL     OW81448   6.222   9.699   8.196  0.1195 -0.3962  0.2634
26957SOL    HW181449   6.171   9.669   8.271  0.4545 -1.2309  0.1765
26957SOL    HW281450   6.312   9.708   8.229  0.1227 -0.0154  0.1527
26958SOL     OW81451   1.728   4.689   8.437 -0.3280  0.9424  0.3191
26958SOL    HW181452   1.722   4.764   8.496 -1.0689  1.2183 -0.0991
26958SOL    HW281453   1.652   4.635   8.460 -0.0006  0.4877  0.3704
26959SOL     OW81454   4.654   9.785   4.806  0.3085  0.0379 -0.1422
26959SOL    HW181455   4.609   9.860   4.767  0.9771 -0.3130 -1.6635
26959SOL    HW281456   4.690   9.818   4.888 -0.4822  1.0238 -0.1735
26960SOL     OW81457   6.787   5.024   1.438 -0.1621 -0.1477  0.5452
26960SOL    HW181458   6.793   5.055   1.528 -0.0704  1.0228  0.1507
26960SOL    HW281459   6.706   4.973   1.436 -1.2285  1.4451  0.8531
26961SOL     OW81460   0.453   6.810   0.110 -0.3342 -0.2095  0.0933
26961SOL    HW181461   0.509   6.738   0.139 -0.2280  0.0353  0.5036
26961SOL    HW281462   0.388   6.820   0.180 -0.0657  0.3959  0.2617
26962SOL     OW81463   5.425   4.830   0.174 -0.5789  0.0180 -0.4071
26962SOL    HW181464   5.345   4.864   0.135 -0.5394  0.8851  0.2285
26962SOL    HW281465   5.493   4.892   0.147 -0.8664  1.8299  2.5463
26963SOL     OW81466   4.542   1.552   1.146  0.0308  0.4209  0.6427
26963SOL    HW181467   4.521   1.631   1.096 -1.6830 -1.0157 -1.1135
26963SOL    HW281468   4.459   1.525   1.185  0.0645 -1.5762 -0.5011
26964SOL     OW81469   3.988   4.072   9.507 -0.4363 -0.2636  0.3397
26964SOL    HW181470   3.961   4.113   9.425 -0.7472  0.1544  0.6472
26964SOL    HW281471   3.974   3.978   9.492 -2.3979 -0.0469  0.5878
26965SOL     OW81472   4.241   9.121   7.359 -0.2272  0.1827 -0.1928
26965SOL    HW181473   4.268   9.209   7.332  0.2544  0.4724  1.1411
26965SOL    HW281474   4.150   9.132   7.388  0.3964  0.6944  1.7570
26966SOL     OW81475   0.658   5.429   6.845 -0.2344  0.1879 -0.1677
26966SOL    HW181476   0.574   5.438   6.800 -0.3854  0.0527  0.0802
26966SOL    HW281477   0.648   5.481   6.924 -0.1134  0.1062 -0.0986
26967SOL     OW81478   5.625   0.994   4.519 -0.2271  0.1170 -0.2185
26967SOL    HW181479   5.551   0.990   4.458 -0.2570 -1.6626 -0.0962
26967SOL    HW281480   5.702   0.999   4.463 -0.2717 -1.2329 -0.4228
26968SOL     OW81481   0.381   8.663   0.342  0.6883  0.2161  0.1253
26968SOL    HW181482   0.416   8.577   0.319  0.7484 -0.1967  1.6467
26968SOL    HW281483   0.286   8.655   0.329  0.7787  0.2231 -0.5943
26969SOL     OW81484   0.765   0.386   7.609  0.1458 -0.0805  0.4746
26969SOL    HW181485   0.790   0.445   7.680 -0.9895  0.1437  0.7133
26969SOL    HW281486   0.674   0.411   7.589  0.9104  0.9481 -2.1344
26970SOL     OW81487   8.060   7.825   7.906  0.0330  0.6367 -0.0776
26970SOL    HW181488   8.032   7.916   7.894  1.8813  1.1081 -1.3541
26970SOL    HW281489   8.154   7.831   7.921  0.1116 -1.0531  0.3010
26971SOL     OW81490   4.004   0.294   5.352  0.3031  0.3847  0.3073
26971SOL    HW181491   3.926   0.253   5.315  0.2904  1.1637 -0.5411
26971SOL    HW281492   4.048   0.334   5.278  2.1627 -1.0516  0.5695
26972SOL     OW81493   7.196   4.889   4.237 -0.0389  0.7218 -0.0835
26972SOL    HW181494   7.113   4.932   4.215 -1.1194 -1.3869 -0.3749
26972SOL    HW281495   7.253   4.908   4.162 -0.0952  2.4703  0.2737
26973SOL     OW81496   7.392   7.062   5.343 -0.1361  0.1556  0.1445
26973SOL    HW181497   7.344   6.981   5.361 -1.1926  0.4004 -1.3191
26973SOL    HW281498   7.461   7.037   5.282 -0.2508  0.2870 -0.0427
26974SOL     OW81499   5.579   7.508   1.033 -0.1481  0.1124  0.5321
26974SOL    HW181500   5.513   7.568   1.068 -0.8437 -0.5666  0.4339
26974SOL    HW281501   5.663   7.543   1.062 -0.6588 -0.0580  2.3164
26975SOL     OW81502   7.240   7.883   7.809 -0.1480 -0.3203  0.2533
26975SOL    HW181503   7.212   7.792   7.818 -0.8227  0.0566  2.7039
26975SOL    HW281504   7.158   7.933   7.805  0.1529  0.3854  2.1514
26976SOL     OW81505   6.094   4.104   9.341 -0.4765 -0.0611 -0.3093
26976SOL    HW181506   6.170   4.142   9.298 -0.3436  1.1831  0.9512
26976SOL    HW281507   6.123   4.017   9.368  0.9375  0.8110  1.1735
26977SOL     OW81508   2.723   2.413   2.758 -0.5316 -0.2452  0.2766
26977SOL    HW181509   2.731   2.406   2.853  2.2210 -0.4062  0.1131
26977SOL    HW281510   2.689   2.327   2.731 -0.9038 -0.3619  1.0695
26978SOL     OW81511   6.522   7.945   7.980 -0.4387  0.1401 -0.8501
26978SOL    HW181512   6.532   7.878   8.048 -1.2272 -0.2842 -1.1353
26978SOL    HW281513   6.440   7.922   7.937 -0.5902  1.1529 -1.1173
26979SOL     OW81514   4.079   0.788   6.700 -0.3310 -0.1183  0.2960
26979SOL    HW181515   4.140   0.840   6.753 -0.4319  0.2352  0.0635
26979SOL    HW281516   4.112   0.795   6.611 -0.1281 -0.7645  0.3082
26980SOL     OW81517   5.608   8.626   5.740  0.5916 -0.5102  0.2918
26980SOL    HW181518   5.619   8.559   5.807  0.9850 -0.2833  0.4566
26980SOL    HW281519   5.571   8.701   5.787  0.4412 -0.5052  0.1677
26981SOL     OW81520   7.617   2.460   3.236 -0.3894 -0.0649 -0.4711
26981SOL    HW181521   7.538   2.511   3.253  0.4467  1.0882  0.0701
26981SOL    HW281522   7.682   2.494   3.297  0.6768 -0.6445 -1.2403
26982SOL     OW81523   3.809   4.700   5.076 -0.1969  0.9840  0.2062
26982SOL    HW181524   3.728   4.652   5.063  0.4416  0.3608 -1.7314
26982SOL    HW281525   3.848   4.659   5.154 -0.7366 -0.1535 -0.0973
26983SOL     OW81526   5.766   4.575   5.046 -0.2221 -0.2186 -0.4838
26983SOL    HW181527   5.771   4.480   5.036  2.3050 -0.3820  1.1806
26983SOL    HW281528   5.837   4.609   4.992  0.8006  0.4128  1.1577
26984SOL     OW81529   0.241   9.498   4.371 -0.1372  0.3765 -0.1731
26984SOL    HW181530   0.233   9.413   4.415 -1.2525  0.5099 -0.0956
26984SOL    HW281531   0.307   9.483   4.304  0.3328 -0.3058  0.4177
26985SOL     OW81532   8.776   2.136   1.410  1.0922  0.1217 -0.2525
26985SOL    HW181533   8.756   2.154   1.318  2.4109  0.3271 -0.5232
26985SOL    HW281534   8.847   2.196   1.431  1.4478 -0.5887  0.6221
26986SOL     OW81535   8.156   5.082   3.492  0.1511 -0.3009 -0.1600
26986SOL    HW181536   8.069   5.075   3.531  0.1410 -1.5199 -0.3690
26986SOL    HW281537   8.169   5.176   3.479 -1.0956 -0.0988 -0.0485
26987SOL     OW81538   2.715   9.540   4.781 -0.1752  0.4858  0.2094
26987SOL    HW181539   2.806   9.560   4.762 -0.4866  0.9714 -0.8098
26987SOL    HW281540   2.687   9.483   4.710 -1.5163  2.7983 -1.2762
26988SOL     OW81541   4.851   8.580   4.476  0.1947  0.0895  0.1423
26988SOL    HW181542   4.869   8.653   4.535  2.8652  0.3891 -0.9358
26988SOL    HW281543   4.900   8.601   4.396 -0.2404 -2.1387 -0.7732
26989SOL     OW81544   8.312   0.868   1.743 -0.1581  0.3826  0.2115
26989SOL    HW181545   8.245   0.905   1.800  1.0532 -2.1295  3.5766
26989SOL    HW281546   8.384   0.931   1.748 -1.4541  2.2530 -2.1041
26990SOL     OW81547   8.061   5.374   5.316 -0.1826 -0.5916 -0.0692
26990SOL    HW181548   8.095   5.325   5.391  0.3818  2.2460  1.7060
26990SOL    HW281549   8.139   5.395   5.264  0.1261  1.1281  0.9875
26991SOL     OW81550   2.798   1.252   8.301  0.0680 -0.3805  0.2752
26991SOL    HW181551   2.829   1.315   8.366  1.4556 -0.1077 -0.6092
26991SOL    HW281552   2.820   1.167   8.339 -0.2484 -0.2757  0.7036
26992SOL     OW81553   3.170   7.728   1.297  0.6029  0.4754  0.1385
26992SOL    HW181554   3.164   7.649   1.243 -0.2053  1.2255 -0.9358
26992SOL    HW281555   3.148   7.699   1.385  1.9455 -0.7890  0.0976
26993SOL     OW81556   5.954   7.580   3.654  0.0368  0.2487 -0.2452
26993SOL    HW181557   5.938   7.669   3.685 -1.0373 -0.2272  0.6387
26993SOL    HW281558   6.039   7.556   3.691  0.3934  0.9365 -0.5947
26994SOL     OW81559   6.946   8.019   5.282 -0.0448  0.0149  0.8723
26994SOL    HW181560   6.895   7.998   5.204 -0.9225 -0.0820  1.4502
26994SOL    HW281561   7.020   7.959   5.279 -1.6460 -2.1607  1.6415
26995SOL     OW81562   5.070   4.111   2.719  0.8017 -0.4311  0.0253
26995SOL    HW181563   5.073   4.153   2.805 -0.4306 -0.5590  0.1506
26995SOL    HW281564   5.148   4.143   2.674  2.5967 -1.9572  1.8873
26996SOL     OW81565   2.083   0.617   3.588  0.2051 -0.5012 -0.7632
26996SOL    HW181566   2.142   0.550   3.622  2.0784  0.1672 -2.4650
26996SOL    HW281567   2.045   0.578   3.509  1.7187  0.5206 -2.0720
26997SOL     OW81568   0.686   2.831   3.633 -0.1432 -0.1887  0.3824
26997SOL    HW181569   0.662   2.761   3.693  1.4194 -0.7902  0.3751
26997SOL    HW281570   0.750   2.791   3.574 -0.1117  0.9291 -0.3849
26998SOL     OW81571   9.642   4.075   3.327 -0.4776  0.1625 -0.3341
26998SOL    HW181572   9.598   4.059   3.411  0.7767 -0.7732  0.1854
26998SOL    HW281573   9.732   4.098   3.351 -0.5989  1.8750 -1.3717
26999SOL     OW81574   1.841   3.228   2.929  0.0288  0.4320 -0.1923
26999SOL    HW181575   1.891   3.179   2.995 -0.7703 -0.2187 -0.0535
26999SOL    HW281576   1.782   3.283   2.980  0.4413  1.0289 -0.3560
27000SOL     OW81577   8.963   6.941   1.371 -0.7382 -0.2979  0.3400
27000SOL    HW181578   8.989   6.849   1.377 -0.4391 -0.1974  0.6563
27000SOL    HW281579   9.040   6.986   1.337 -0.9772 -0.2049 -0.0835
27001SOL     OW81580   4.750   5.000   5.858  0.2906 -0.2503  0.6879
27001SOL    HW181581   4.796   4.990   5.941  1.4903  0.8270  0.1943
27001SOL    HW281582   4.799   4.944   5.797  1.3545  1.3449  0.0267
27002SOL     OW81583   6.435   7.784   3.351 -0.0352 -0.3661 -0.0859
27002SOL    HW181584   6.418   7.873   3.382 -2.1923 -1.0230  0.8803
27002SOL    HW281585   6.402   7.783   3.261  1.6342  0.2293 -0.7442
27003SOL     OW81586   0.076   9.792   0.917  0.9168  0.5219 -0.1688
27003SOL    HW181587   0.067   9.750   0.832 -4.1367 -0.2448  0.4832
27003SOL    HW281588   0.084   9.720   0.979 -0.9188  0.7611  0.3937
27004SOL     OW81589   6.391   8.565   5.905 -0.0298  0.2176  0.4256
27004SOL    HW181590   6.327   8.611   5.851  0.6095 -2.0574 -2.5443
27004SOL    HW281591   6.343   8.491   5.942  0.6253 -1.1791 -1.3643
27005SOL     OW81592   5.191   6.301   7.758  0.4509 -0.3400 -0.8420
27005SOL    HW181593   5.134   6.248   7.813  0.5614 -1.8632 -2.1298
27005SOL    HW281594   5.268   6.318   7.811 -0.2409 -0.1550  0.1239
27006SOL     OW81595   7.606   0.599   6.506 -0.2466 -0.1751 -0.0589
27006SOL    HW181596   7.533   0.653   6.534 -0.6061  0.0687 -1.3910
27006SOL    HW281597   7.572   0.547   6.433  0.0242 -2.4085  1.3285
27007SOL     OW81598   4.539   2.648   4.778  0.2290  0.0620 -0.0677
27007SOL    HW181599   4.450   2.614   4.767 -0.1649  0.9347  0.3605
27007SOL    HW281600   4.549   2.659   4.872  0.2645  1.3221 -0.1980
27008SOL     OW81601   7.540   9.785   6.854  0.0101 -0.0511  0.3580
27008SOL    HW181602   7.448   9.814   6.853 -0.0566 -0.2607 -0.1047
27008SOL    HW281603   7.572   9.809   6.940 -1.2332 -2.3710  1.5525
27009SOL     OW81604   0.731   6.721   5.475  0.7282  0.0370 -0.6436
27009SOL    HW181605   0.683   6.645   5.444 -1.0337  0.3153  1.1911
27009SOL    HW281606   0.684   6.796   5.439  0.7799  0.2948 -0.1809
27010SOL     OW81607   2.835   8.668   8.914  0.2074  0.2750 -1.0205
27010SOL    HW181608   2.850   8.575   8.932 -0.2798  0.1758 -1.1059
27010SOL    HW281609   2.746   8.671   8.878 -0.4138  0.9669  0.5078
27011SOL     OW81610   3.643   3.604   2.120  0.6003  0.0566 -0.5830
27011SOL    HW181611   3.663   3.511   2.108  3.2769  0.3443  0.9027
27011SOL    HW281612   3.628   3.613   2.214 -0.5997  0.9840 -0.8487
27012SOL     OW81613   3.636   6.351   0.423 -0.0217  0.4266  0.1565
27012SOL    HW181614   3.637   6.426   0.364  0.2451  1.0972  1.0106
27012SOL    HW281615   3.692   6.376   0.496 -0.0941 -0.5232  0.5531
27013SOL     OW81616   4.128   7.985   4.367  0.1540  0.0620 -0.3763
27013SOL    HW181617   4.165   7.992   4.280  0.0776 -0.9473 -0.4990
27013SOL    HW281618   4.140   8.072   4.406 -0.1895  0.6445 -1.5316
27014SOL     OW81619   0.028   7.529   6.043 -0.0171 -0.3884 -0.1691
27014SOL    HW181620  -0.028   7.522   5.966 -0.5975 -3.1592  0.3806
27014SOL    HW281621   0.020   7.620   6.070 -1.1816  0.2263 -2.3465
27015SOL     OW81622   0.173   2.872   0.536 -0.3888  0.3645  0.2526
27015SOL    HW181623   0.152   2.798   0.478 -2.0793  0.1630  1.0444
27015SOL    HW281624   0.133   2.948   0.493  0.4651  0.6451 -0.0521
27016SOL     OW81625   3.863   9.575   6.997 -0.1976 -0.4469 -0.9559
27016SOL    HW181626   3.899   9.662   7.012 -1.2611 -0.2614  0.7883
27016SOL    HW281627   3.939   9.520   6.977  0.3376  1.1487 -3.8143
27017SOL     OW81628   3.550   3.498   7.070 -0.1418  0.0070  0.2882
27017SOL    HW181629   3.613   3.427   7.083 -0.1672 -0.3854 -1.5534
27017SOL    HW281630   3.524   3.522   7.159  0.0964 -2.0760  0.9935
27018SOL     OW81631   2.830   3.130   4.593 -0.4569  0.4257 -0.4920
27018SOL    HW181632   2.850   3.189   4.665 -0.6424  0.6091 -0.5895
27018SOL    HW281633   2.802   3.049   4.635  0.4237  0.1844 -0.3532
27019SOL     OW81634   7.649   3.163   6.491 -0.2068 -0.0711 -0.2193
27019SOL    HW181635   7.630   3.241   6.439 -0.3970  0.0179 -0.0189
27019SOL    HW281636   7.626   3.188   6.580 -0.6082 -0.4771 -0.2081
27020SOL     OW81637   9.219   4.568   7.331  0.3109  0.3707  0.2064
27020SOL    HW181638   9.171   4.649   7.313 -3.4275 -1.8913 -1.1344
27020SOL    HW281639   9.311   4.591   7.320 -0.6143  4.2117 -0.8924
27021SOL     OW81640   2.774   6.113   3.427 -0.0943 -0.0035 -0.0679
27021SOL    HW181641   2.762   6.179   3.359 -0.3445 -0.9445 -0.9608
27021SOL    HW281642   2.753   6.030   3.384 -2.6055 -0.4291  1.7673
27022SOL     OW81643   3.358   7.387   6.921  0.0917  0.2643 -0.2946
27022SOL    HW181644   3.442   7.370   6.964 -0.1396  1.0516  0.5072
27022SOL    HW281645   3.294   7.388   6.993 -0.3692  1.2219 -0.7059
27023SOL     OW81646   9.264   3.855   2.837 -0.7488 -0.2480 -0.8615
27023SOL    HW181647   9.327   3.793   2.802  2.0502  0.5445  2.2597
27023SOL    HW281648   9.316   3.919   2.885 -3.8481  0.8326  1.4691
27024SOL     OW81649   3.381   4.899   7.941  0.4438 -0.0436  0.0788
27024SOL    HW181650   3.455   4.881   7.998  1.9760  0.6674 -1.6018
27024SOL    HW281651   3.403   4.857   7.858 -0.2133  1.6341 -0.9951
27025SOL     OW81652   1.593   7.207   6.228 -0.2411  0.4795 -0.0071
27025SOL    HW181653   1.574   7.160   6.309 -0.8508 -0.4277 -0.6692
27025SOL    HW281654   1.679   7.174   6.201 -0.8273 -0.5411 -0.6610
27026SOL     OW81655   6.277   7.789   7.440 -0.1919  0.0208 -0.5552
27026SOL    HW181656   6.248   7.699   7.459 -2.2247  0.7022 -0.1855
27026SOL    HW281657   6.362   7.778   7.397 -0.4485 -2.0828 -0.6455
27027SOL     OW81658   5.002   8.621   6.257 -0.2704  0.1185 -0.2040
27027SOL    HW181659   4.953   8.583   6.330  1.5700 -0.9210  0.5609
27027SOL    HW281660   4.969   8.710   6.250 -1.7748 -0.3219  0.6893
27028SOL     OW81661   7.544   9.011   3.460  0.6385  0.0778 -0.5189
27028SOL    HW181662   7.616   9.044   3.406 -0.3403 -0.5761 -2.2886
27028SOL    HW281663   7.493   9.090   3.481  3.1010  1.0328  2.9795
27029SOL     OW81664   0.666   4.596   0.752 -0.2013  0.5227 -0.2990
27029SOL    HW181665   0.723   4.646   0.810  0.6114 -0.4690 -0.2140
27029SOL    HW281666   0.608   4.548   0.811 -1.0478  1.4095 -0.3823
27030SOL     OW81667   2.768   9.472   5.647  0.2808 -0.4299 -0.4214
27030SOL    HW181668   2.832   9.404   5.669  1.6165 -0.1859 -3.2063
27030SOL    HW281669   2.775   9.482   5.552 -2.4829  1.0674 -0.5611
27031SOL     OW81670   1.841   9.831   6.300 -0.6909  0.6661  0.6963
27031SOL    HW181671   1.935   9.833   6.317 -0.5463  2.0010 -0.1537
27031SOL    HW281672   1.833   9.785   6.216 -0.8186  0.3385  0.8867
27032SOL     OW81673   1.174   8.725   4.255 -0.1924 -0.0334  0.2417
27032SOL    HW181674   1.196   8.699   4.345 -0.8228 -0.6506  0.2256
27032SOL    HW281675   1.083   8.698   4.244 -0.2587  0.4500 -0.4374
27033SOL     OW81676   9.358   9.291   9.101  0.3002  0.0966 -0.5485
27033SOL    HW181677   9.361   9.334   9.186 -2.4473  2.6024 -1.5476
27033SOL    HW281678   9.397   9.205   9.116  1.5187  1.0812  2.7651
27034SOL     OW81679   1.602   8.394   2.269 -0.1886  0.0371 -0.1658
27034SOL    HW181680   1.540   8.323   2.253  0.6478 -0.3125 -2.2895
27034SOL    HW281681   1.685   8.362   2.233  0.8704  1.0678  1.2450
27035SOL     OW81682   2.919   1.875   5.565 -0.0168 -0.0288  0.2846
27035SOL    HW181683   2.899   1.782   5.563  0.4892 -0.1235 -1.3391
27035SOL    HW281684   2.920   1.897   5.659  1.5178 -2.0036  0.7972
27036SOL     OW81685   2.035   1.732   3.358 -0.5628  0.4249 -0.1915
27036SOL    HW181686   2.005   1.660   3.412 -1.3022  0.3725 -0.6597
27036SOL    HW281687   2.130   1.731   3.367 -0.5924 -0.3906  0.0653
27037SOL     OW81688   8.104   7.825   6.560  0.1741  0.3119  0.1089
27037SOL    HW181689   8.055   7.775   6.625  0.5764 -0.7778 -0.4029
27037SOL    HW281690   8.175   7.866   6.609  0.1457 -0.0392  0.4446
27038SOL     OW81691   3.947   1.732   5.635  0.4289  0.0551  0.5528
27038SOL    HW181692   3.909   1.743   5.547 -0.2344  2.5181  1.0819
27038SOL    HW281693   4.025   1.679   5.620  0.2392  0.2478 -1.5024
27039SOL     OW81694   0.048   9.280   4.527  0.3657  0.5890  0.5579
27039SOL    HW181695  -0.010   9.258   4.599  0.1779  0.3470  0.3358
27039SOL    HW281696  -0.004   9.264   4.448  0.5837  0.8060  0.3694
27040SOL     OW81697   3.062   7.010   8.386 -0.3113  0.4175 -0.1220
27040SOL    HW181698   3.022   7.095   8.368 -0.6038  0.6010  1.3179
27040SOL    HW281699   3.003   6.947   8.344  0.5615  0.9445 -2.2847
27041SOL     OW81700   3.681   2.532   9.925 -0.2399 -0.2182 -0.3534
27041SOL    HW181701   3.663   2.580   9.844 -2.9042 -0.5229 -0.0393
27041SOL    HW281702   3.623   2.456   9.921 -0.5848 -0.1363  1.9013
27042SOL     OW81703   1.836   0.055   2.498 -0.0655  0.5540 -0.5196
27042SOL    HW181704   1.794   0.015   2.574  1.0205 -1.6129 -0.9989
27042SOL    HW281705   1.783   0.133   2.480 -0.1720  1.3278  2.6297
27043SOL     OW81706   5.438   9.768   0.483 -0.7496  0.1868 -0.3935
27043SOL    HW181707   5.524   9.756   0.442 -1.1541 -2.4901 -0.6757
27043SOL    HW281708   5.410   9.679   0.504 -2.3438  1.1719  2.0615
27044SOL     OW81709   0.489   5.816   1.806  0.1250  0.8827 -0.5456
27044SOL    HW181710   0.525   5.857   1.728 -1.0803  2.0423 -0.5330
27044SOL    HW281711   0.564   5.776   1.850  1.4116  3.2733 -0.4421
27045SOL     OW81712   0.687   8.550   8.647  0.0973 -0.4494  0.6359
27045SOL    HW181713   0.714   8.595   8.567 -0.9163  1.3041  1.2319
27045SOL    HW281714   0.676   8.458   8.621 -0.0740  0.0556 -1.1894
27046SOL     OW81715   4.532   4.992   4.702  0.2656  0.3543 -0.9289
27046SOL    HW181716   4.468   4.984   4.774  0.4276  3.1758 -0.3719
27046SOL    HW281717   4.601   5.047   4.738  1.7068 -0.4084 -2.4281
27047SOL     OW81718   4.220   6.089   3.193 -0.3384 -0.3600  0.6963
27047SOL    HW181719   4.165   6.036   3.252  0.6969  0.0918  2.1410
27047SOL    HW281720   4.172   6.172   3.184  0.4620  0.4161  2.7529
27048SOL     OW81721   3.109   9.506   1.839  0.0900 -0.1027  0.5198
27048SOL    HW181722   3.105   9.473   1.929  0.3414 -3.3499 -0.5290
27048SOL    HW281723   3.093   9.429   1.785  2.3950  1.2031 -2.2831
27049SOL     OW81724   0.098   7.197   1.658  0.5533  0.2717 -0.0652
27049SOL    HW181725   0.007   7.169   1.664  0.6994 -0.8758 -2.2208
27049SOL    HW281726   0.097   7.269   1.595  1.4696 -2.0031 -2.8837
27050SOL     OW81727   5.296   2.459   7.339 -0.2022  0.8129  0.6666
27050SOL    HW181728   5.375   2.404   7.342 -1.0294 -0.8778 -3.2360
27050SOL    HW281729   5.225   2.399   7.361 -0.7084  1.6275  1.2958
27051SOL     OW81730   6.232   3.865   9.432  0.0902 -0.0847 -0.2551
27051SOL    HW181731   6.321   3.846   9.401 -0.0012  0.8148 -1.1045
27051SOL    HW281732   6.237   3.852   9.527  1.1518  0.0525 -0.2743
27052SOL     OW81733   8.692   2.132   1.158  0.4989  0.2937 -0.3492
27052SOL    HW181734   8.607   2.173   1.148  0.0301 -0.2440  1.1031
27052SOL    HW281735   8.750   2.180   1.098 -0.6148  1.2508 -0.6864
27053SOL     OW81736   9.505   7.901   6.152 -0.1438  0.0865  0.0108
27053SOL    HW181737   9.421   7.905   6.198 -0.5179 -0.9367 -0.5598
27053SOL    HW281738   9.496   7.828   6.091  1.6898 -1.0397  0.9909
27054SOL     OW81739   5.159   0.924   5.515 -0.2812  0.4598 -0.3007
27054SOL    HW181740   5.229   0.862   5.538  0.0372  1.6457  2.2104
27054SOL    HW281741   5.095   0.915   5.586 -1.4262  1.2659 -1.2039
27055SOL     OW81742   1.244   1.038   3.219 -0.3451  0.0491 -0.1954
27055SOL    HW181743   1.275   0.974   3.283 -1.0122  0.5634  0.6608
27055SOL    HW281744   1.150   1.021   3.212 -0.2608 -0.0900 -1.1578
27056SOL     OW81745   4.788   7.248   0.256 -0.0364 -0.3743 -0.4799
27056SOL    HW181746   4.883   7.237   0.259  0.0549  0.5079  0.6993
27056SOL    HW281747   4.770   7.315   0.322 -1.7374 -2.2838  1.1028
27057SOL     OW81748   8.650   9.109   9.261  0.3466 -0.3218 -0.2653
27057SOL    HW181749   8.586   9.140   9.197 -1.2120 -1.3421  0.7312
27057SOL    HW281750   8.601   9.049   9.316  2.4932 -2.1207 -0.2049
27058SOL     OW81751   0.061   7.275   7.408  0.1338  0.3460 -0.4365
27058SOL    HW181752   0.042   7.309   7.495 -0.0412  0.5620 -0.5562
27058SOL    HW281753   0.019   7.189   7.405  1.0784 -0.1474  0.0740
27059SOL     OW81754   3.443   8.737   9.309  0.2286 -0.2446  0.2091
27059SOL    HW181755   3.458   8.719   9.401 -1.3661  0.1296  0.5806
27059SOL    HW281756   3.473   8.658   9.263 -1.0273 -1.3988  1.2667
27060SOL     OW81757   7.074   5.501   7.029  0.4906 -0.1181  0.5212
27060SOL    HW181758   7.148   5.444   7.047  0.6377  0.0745  0.5292
27060SOL    HW281759   7.016   5.449   6.973  0.5493 -0.3285  0.6566
27061SOL     OW81760   0.827   8.069   4.648 -0.0941  0.3633 -0.3390
27061SOL    HW181761   0.777   7.994   4.617 -0.4457 -0.0935  1.2223
27061SOL    HW281762   0.776   8.103   4.721  0.6562  1.4076 -0.2766
27062SOL     OW81763   3.346   1.981   3.350 -0.6818  0.7028  0.8719
27062SOL    HW181764   3.406   1.907   3.343 -0.6382  0.9070 -1.6862
27062SOL    HW281765   3.379   2.031   3.425  1.7969  0.3326  0.1110
27063SOL     OW81766   4.194   9.792   6.842  0.1960  0.2170  0.5257
27063SOL    HW181767   4.155   9.735   6.775 -0.3425  1.7887 -0.5422
27063SOL    HW281768   4.268   9.833   6.797  0.2699  0.7441  1.1245
27064SOL     OW81769   5.008   4.385   5.674 -0.4183  0.2391  0.1346
27064SOL    HW181770   4.973   4.470   5.700 -1.0022  0.2130 -0.5312
27064SOL    HW281771   4.931   4.330   5.661 -0.3465  0.6473 -2.9663
27065SOL     OW81772   3.578   2.756   3.721 -0.3114 -0.2488  0.5805
27065SOL    HW181773   3.624   2.777   3.641 -0.5063 -1.1737  0.2075
27065SOL    HW281774   3.625   2.803   3.790 -0.6813  1.2658 -0.1744
27066SOL     OW81775   8.244   6.149   6.130  0.3713  0.1829 -0.5429
27066SOL    HW181776   8.326   6.124   6.088  1.2864  1.5042  0.3885
27066SOL    HW281777   8.261   6.236   6.166 -1.6858  0.8183 -0.9840
27067SOL     OW81778   7.673   4.409   1.260  0.3743 -0.2320 -0.3865
27067SOL    HW181779   7.728   4.335   1.287  0.3274 -0.4916 -0.9800
27067SOL    HW281780   7.681   4.410   1.165 -1.7432 -1.1507 -0.6361
27068SOL     OW81781   1.656   4.241   7.894 -0.2049 -0.1571 -0.0972
27068SOL    HW181782   1.685   4.205   7.978  0.7593 -1.5034 -0.9827
27068SOL    HW281783   1.627   4.165   7.844  0.4854  0.4640 -1.4744
27069SOL     OW81784   1.360   9.392   0.469  0.3781 -0.1302 -0.2376
27069SOL    HW181785   1.428   9.448   0.504  1.5545 -0.8006 -1.3740
27069SOL    HW281786   1.282   9.448   0.466  1.3916  1.3028 -0.9177
27070SOL     OW81787   4.534   4.283   1.306  0.2695 -0.2779  0.3038
27070SOL    HW181788   4.524   4.332   1.225 -3.3969  0.5154  1.0460
27070SOL    HW281789   4.615   4.315   1.345  0.8820  1.0207 -1.9022
27071SOL     OW81790   4.364   8.538   6.981 -0.3763  0.4284  0.1238
27071SOL    HW181791   4.304   8.542   6.906 -0.1684  1.5784 -0.0111
27071SOL    HW281792   4.314   8.495   7.050 -0.4557 -0.9788 -0.7702
27072SOL     OW81793   8.529   4.235   9.014 -0.5488  0.1649 -0.2546
27072SOL    HW181794   8.552   4.159   8.960 -1.8091 -0.4051 -0.0378
27072SOL    HW281795   8.434   4.228   9.025 -0.6714  1.7347 -0.1421
27073SOL     OW81796   3.117   4.029   2.799 -0.3435 -0.4106 -0.4368
27073SOL    HW181797   3.084   3.943   2.827 -0.9149 -0.4718 -1.2413
27073SOL    HW281798   3.075   4.044   2.714 -0.9760  1.0808  0.1044
27074SOL     OW81799   9.045   0.070   2.246 -0.6132  0.4677  0.4510
27074SOL    HW181800   9.092   0.006   2.300  0.5834  1.8191  1.1019
27074SOL    HW281801   9.022   0.022   2.167 -1.0823 -1.1613  1.5125
27075SOL     OW81802   4.956   3.490   6.019 -0.0233  0.2277 -0.5920
27075SOL    HW181803   4.872   3.532   6.039 -0.7826 -1.0458 -0.9860
27075SOL    HW281804   4.976   3.437   6.096  0.8076  1.0730 -0.2004
27076SOL     OW81805   3.689   2.286   4.280 -0.5127  0.2811 -0.3237
27076SOL    HW181806   3.715   2.361   4.334 -0.8115 -1.5800  2.6663
27076SOL    HW281807   3.594   2.296   4.271 -0.4907  0.4939 -0.3339
27077SOL     OW81808   8.203   2.771   0.690  0.0899  0.2664 -0.2143
27077SOL    HW181809   8.289   2.729   0.688  0.6161  1.3474 -1.1289
27077SOL    HW281810   8.221   2.860   0.719 -0.6354  0.6957 -1.0736
27078SOL     OW81811   7.078   7.455   5.829  0.1168  0.2240 -1.0321
27078SOL    HW181812   7.097   7.375   5.878 -2.0346  0.1918 -0.1421
27078SOL    HW281813   7.099   7.433   5.738  1.6919 -0.5751 -0.5041
27079SOL     OW81814   3.383   9.879   4.882 -0.3428 -0.0504  1.0145
27079SOL    HW181815   3.362   9.933   4.806 -1.1695  0.1105  1.3510
27079SOL    HW281816   3.319   9.807   4.879 -1.6815  1.0024  2.6250
27080SOL     OW81817   3.515   3.710   3.338 -0.0082  0.5877  0.1762
27080SOL    HW181818   3.547   3.658   3.263 -0.2418  0.6356  0.0447
27080SOL    HW281819   3.524   3.651   3.413  0.2781  0.5582  0.1204
27081SOL     OW81820   5.740   6.332   1.213 -0.0406 -0.3497 -0.3723
27081SOL    HW181821   5.702   6.387   1.144 -2.7551 -1.4494  0.1105
27081SOL    HW281822   5.733   6.385   1.292 -1.2105 -0.7574 -0.1820
27082SOL     OW81823   2.607   9.387   2.500  0.1308 -0.8842 -0.1512
27082SOL    HW181824   2.598   9.313   2.440  1.3611 -0.3952 -0.9875
27082SOL    HW281825   2.568   9.357   2.582 -2.0473 -1.4133 -1.3047
27083SOL     OW81826   4.793   6.128   5.169 -0.8228 -0.0998 -0.1466
27083SOL    HW181827   4.803   6.093   5.257 -2.5651 -1.4731 -0.4246
27083SOL    HW281828   4.788   6.050   5.113 -1.5630  0.6885 -1.2209
27084SOL     OW81829   9.403   8.102   6.556  0.0910  0.4499  0.1052
27084SOL    HW181830   9.409   8.032   6.621 -2.8001  2.7188  3.1168
27084SOL    HW281831   9.437   8.180   6.601 -0.1163  1.7416 -1.8479
27085SOL     OW81832   2.779   7.819   6.092  0.0415 -1.2107  0.4054
27085SOL    HW181833   2.745   7.894   6.044 -1.5115 -0.7822  2.0652
27085SOL    HW281834   2.823   7.766   6.025  1.2332  1.1430 -0.8009
27086SOL     OW81835   3.352   2.802   8.978  0.7318  0.0332 -0.3378
27086SOL    HW181836   3.351   2.896   8.961 -1.7198  0.0945 -0.2293
27086SOL    HW281837   3.325   2.762   8.896  1.1588 -0.5517 -0.2027
27087SOL     OW81838   6.417   5.308   6.110 -0.1600 -0.0404 -0.4246
27087SOL    HW181839   6.413   5.377   6.177  0.3772  0.0601 -0.4835
27087SOL    HW281840   6.488   5.251   6.140 -1.1900 -1.0761  0.0820
27088SOL     OW81841   2.009   1.430   1.787 -0.2370  0.3014  0.1690
27088SOL    HW181842   1.922   1.469   1.780 -0.2335  0.0002 -3.1783
27088SOL    HW281843   2.065   1.502   1.814 -1.1107  1.2640 -0.4991
27089SOL     OW81844   2.142   1.552   5.371 -0.2762 -0.0759 -0.0157
27089SOL    HW181845   2.170   1.633   5.330  0.4743 -0.9414 -1.2624
27089SOL    HW281846   2.048   1.547   5.353 -0.4422  0.7873  0.5776
27090SOL     OW81847   0.132   9.548   3.990 -0.6012 -0.4486 -0.0097
27090SOL    HW181848   0.146   9.585   4.077  2.1269  2.6286 -1.5474
27090SOL    HW281849   0.074   9.610   3.946  1.5733  0.5521 -1.6829
27091SOL     OW81850   0.247   8.193   5.012 -0.1445 -0.2945  0.7621
27091SOL    HW181851   0.193   8.188   4.932  0.6768 -0.2133  0.1885
27091SOL    HW281852   0.272   8.285   5.017 -0.1579 -0.3095  1.0911
27092SOL     OW81853   9.499   8.878   7.514 -0.4834  0.2446 -0.3995
27092SOL    HW181854   9.445   8.906   7.440  1.2672  1.8980 -1.1459
27092SOL    HW281855   9.558   8.813   7.477 -1.3661 -0.9227  0.2079
27093SOL     OW81856   0.613   8.184   2.600  0.4801  0.2963  0.0170
27093SOL    HW181857   0.545   8.117   2.615  2.1200 -1.3876  0.2765
27093SOL    HW281858   0.564   8.266   2.592 -1.7411 -1.0747 -1.6523
27094SOL     OW81859   6.365   4.927   9.581 -0.0583 -0.1594 -0.5848
27094SOL    HW181860   6.391   4.881   9.661 -0.1400 -1.1977 -1.1335
27094SOL    HW281861   6.383   4.865   9.510 -0.2523  0.6310 -1.3542
27095SOL     OW81862   3.087   2.352   2.409 -0.4741  0.8384 -0.4968
27095SOL    HW181863   3.091   2.367   2.315  0.7156  1.2890 -0.3931
27095SOL    HW281864   3.107   2.259   2.420  2.2623  1.3486 -0.5495
27096SOL     OW81865   6.973   0.487   9.813 -0.0007 -0.6494 -0.3660
27096SOL    HW181866   6.939   0.498   9.902  1.7165 -0.3381  0.2783
27096SOL    HW281867   7.003   0.396   9.810 -1.0464 -0.9946 -1.0112
27097SOL     OW81868   6.596   3.442   2.277 -0.1411 -0.5290 -0.2963
27097SOL    HW181869   6.569   3.432   2.369 -0.6055 -0.1764 -0.3900
27097SOL    HW281870   6.524   3.491   2.237  1.5421  2.2706 -0.1086
27098SOL     OW81871   4.262   0.956   6.142 -0.3479 -0.2462 -0.2783
27098SOL    HW181872   4.318   0.912   6.078  2.2087  1.2884  0.7517
27098SOL    HW281873   4.285   0.916   6.225 -1.2150  0.0336  0.1057
27099SOL     OW81874   7.716   6.910   5.425  0.0497 -0.0752  0.7737
27099SOL    HW181875   7.807   6.881   5.412 -0.2522 -1.0857  0.8529
27099SOL    HW281876   7.694   6.957   5.344  0.7789  0.5806  0.9384
27100SOL     OW81877   2.828   6.236   2.279  0.4815 -0.0727  0.7391
27100SOL    HW181878   2.808   6.151   2.240  1.5139 -1.0198  2.1382
27100SOL    HW281879   2.743   6.271   2.304  0.0518 -0.7994  0.3440
27101SOL     OW81880   3.979   2.960   7.336 -0.2554  0.2979 -0.5610
27101SOL    HW181881   4.009   2.880   7.379 -0.1874 -0.2410 -1.5912
27101SOL    HW281882   3.959   3.020   7.409 -2.6337 -1.4496  0.3819
27102SOL     OW81883   6.081   5.443   8.967  0.1958 -0.3990  0.1306
27102SOL    HW181884   6.130   5.490   8.899  1.4646 -0.4121  0.9979
27102SOL    HW281885   6.047   5.365   8.924 -0.6775  0.5579 -0.9631
27103SOL     OW81886   0.569   3.302   2.065  0.0421  0.5540 -0.4282
27103SOL    HW181887   0.519   3.226   2.034  1.3801 -0.1809 -0.8370
27103SOL    HW281888   0.601   3.276   2.151 -0.7134  1.2441  0.0800
27104SOL     OW81889   8.824   6.732   0.950 -0.2856  0.3140 -0.2596
27104SOL    HW181890   8.823   6.654   1.005  1.3353  1.2701  1.2475
27104SOL    HW281891   8.768   6.795   0.997  1.1374  1.1464  0.4074
27105SOL     OW81892   3.908   1.464   2.756 -0.0640 -0.2536 -0.0764
27105SOL    HW181893   3.921   1.372   2.779  1.7992 -0.4742 -1.6876
27105SOL    HW281894   3.818   1.469   2.725 -1.1696 -0.8587  2.8085
27106SOL     OW81895   5.883   8.941   1.382 -0.1999 -0.1432 -0.2653
27106SOL    HW181896   5.885   9.018   1.439 -1.0858 -0.4462  0.1981
27106SOL    HW281897   5.819   8.963   1.315 -1.4726 -0.9530  0.6203
27107SOL     OW81898   4.662   2.393   5.663 -0.3176 -0.5783 -0.5319
27107SOL    HW181899   4.619   2.466   5.707  0.0391 -0.2930 -0.6543
27107SOL    HW281900   4.705   2.432   5.587  2.6519 -0.2960  1.1261
27108SOL     OW81901   6.877   8.674   6.605  0.1512  0.8993 -0.3025
27108SOL    HW181902   6.871   8.579   6.606  1.3239  0.8065  0.7340
27108SOL    HW281903   6.803   8.703   6.658 -1.0928  0.6645 -1.8458
27109SOL     OW81904   8.243   6.984   6.235 -0.6361  0.6033  0.3465
27109SOL    HW181905   8.206   6.955   6.318  0.6373 -0.1720  0.6758
27109SOL    HW281906   8.257   7.078   6.245 -0.7748  0.5624  0.9008
27110SOL     OW81907   2.291   8.490   7.914 -0.5086  0.4396 -0.3644
27110SOL    HW181908   2.372   8.535   7.887 -0.8938  1.9645  0.8700
27110SOL    HW281909   2.301   8.477   8.008 -0.7699 -1.4091 -0.5639
27111SOL     OW81910   2.056   4.393   1.407  0.0672 -0.3793  0.2669
27111SOL    HW181911   2.085   4.478   1.375 -0.0075 -0.2554  0.5257
27111SOL    HW281912   2.074   4.333   1.335  0.0399 -0.1301  0.0500
27112SOL     OW81913   2.584   8.777   6.592 -0.4485  0.3196 -0.0541
27112SOL    HW181914   2.637   8.849   6.558 -0.5438 -0.4117 -1.8126
27112SOL    HW281915   2.494   8.808   6.587 -0.3773  0.6970  0.7931
27113SOL     OW81916   9.673   6.489   3.529  0.2220  0.3827 -0.2903
27113SOL    HW181917   9.687   6.402   3.568  0.5571  0.9749  0.9548
27113SOL    HW281918   9.583   6.512   3.553  0.2896  0.5803 -0.2301
27114SOL     OW81919   2.851   4.301   8.712  0.3182  0.0574  0.0688
27114SOL    HW181920   2.912   4.357   8.760 -0.3199  0.5032  0.3753
27114SOL    HW281921   2.869   4.318   8.620  0.0807  0.8405  0.1577
27115SOL     OW81922   4.642   5.232   8.535 -0.4813  0.1695 -0.0468
27115SOL    HW181923   4.547   5.238   8.529 -0.4245  0.3020 -0.9822
27115SOL    HW281924   4.659   5.142   8.561 -0.8373 -0.0778 -0.6550
27116SOL     OW81925   4.059   3.488   9.954  0.4423  0.3628 -0.7400
27116SOL    HW181926   3.983   3.465   9.900  0.3900 -1.6296  0.1089
27116SOL    HW281927   4.021   3.529  10.032 -0.0034 -2.4395  0.6228
27117SOL     OW81928   5.677   1.781   7.135 -0.6972 -0.0482 -0.1698
27117SOL    HW181929   5.659   1.687   7.130 -1.4836  0.0115  1.0987
27117SOL    HW281930   5.621   1.819   7.067 -1.9923 -0.3231  0.6979
27118SOL     OW81931   6.199   7.985   0.712  0.2630  0.0803  0.1747
27118SOL    HW181932   6.158   7.934   0.643  1.7140 -0.0736 -0.6163
27118SOL    HW281933   6.279   8.019   0.672  0.4816  1.0575  1.3929
27119SOL     OW81934   7.676   5.130   6.860 -0.6910  0.3064 -0.0398
27119SOL    HW181935   7.583   5.120   6.880 -1.2683 -0.1961 -2.6605
27119SOL    HW281936   7.685   5.221   6.834 -0.8219 -0.0445 -1.3739
27120SOL     OW81937   9.793   6.357   9.346 -0.0582  0.0053  0.3293
27120SOL    HW181938   9.769   6.448   9.328 -1.0714  0.4534  3.4102
27120SOL    HW281939   9.709   6.314   9.364  0.6013 -0.9305  1.2336
27121SOL     OW81940   0.939   3.877   2.268  0.8749 -0.2171  0.0531
27121SOL    HW181941   1.035   3.880   2.270  0.8622  0.0034  1.5651
27121SOL    HW281942   0.915   3.825   2.344 -0.2297  0.4916  0.2099
27122SOL     OW81943   7.158   6.353   3.263  0.0076 -0.0961 -0.3114
27122SOL    HW181944   7.216   6.304   3.322 -0.6570 -1.2794 -0.6079
27122SOL    HW281945   7.217   6.401   3.205  0.6766  1.0875  1.2838
27123SOL     OW81946   1.852   9.926   0.863 -0.3709 -0.1036 -0.4021
27123SOL    HW181947   1.812  10.011   0.883  0.2535  0.2714 -0.6901
27123SOL    HW281948   1.945   9.946   0.852 -0.2577 -0.7839 -0.7362
27124SOL     OW81949   4.110   4.063   6.228  0.4519 -0.2466 -0.1729
27124SOL    HW181950   4.055   4.133   6.193  2.7075  1.5486 -0.3284
27124SOL    HW281951   4.064   3.982   6.205 -1.7912  1.1316 -0.7727
27125SOL     OW81952   8.993   2.415   3.359 -0.3218 -0.3324  0.0336
27125SOL    HW181953   8.994   2.510   3.344 -0.5505 -0.7166 -3.2194
27125SOL    HW281954   8.903   2.397   3.388 -0.1332  0.4781  1.1802
27126SOL     OW81955   6.292   7.899   3.131 -0.1825 -0.2299 -0.6444
27126SOL    HW181956   6.210   7.853   3.115 -0.6746  0.7788 -1.0584
27126SOL    HW281957   6.335   7.902   3.046 -0.6428  1.0007 -0.8425
27127SOL     OW81958   8.524   4.332   0.340  0.0091  0.3279 -0.4078
27127SOL    HW181959   8.513   4.404   0.402  2.4303  1.1897 -0.8450
27127SOL    HW281960   8.562   4.374   0.262 -1.4983 -0.9586 -1.9030
27128SOL     OW81961   1.369   7.049   2.930  0.5813 -1.1010  0.1679
27128SOL    HW181962   1.381   6.956   2.912  0.1583 -1.9406  3.5531
27128SOL    HW281963   1.457   7.081   2.949  0.5628 -1.1335  0.3083
27129SOL     OW81964   6.683   1.648   1.190 -0.2695 -0.0106  0.3710
27129SOL    HW181965   6.770   1.617   1.165  0.2585  1.0038  0.8548
27129SOL    HW281966   6.625   1.617   1.120  0.5628 -0.2785 -0.2213
27130SOL     OW81967   1.603   5.308   9.180  0.4108 -0.3305  0.2995
27130SOL    HW181968   1.589   5.402   9.168 -1.2902 -0.7355 -1.2159
27130SOL    HW281969   1.538   5.266   9.124 -0.8341 -2.4555  3.0902
27131SOL     OW81970   2.989   2.907   4.691  0.6553  0.5497 -0.7401
27131SOL    HW181971   2.902   2.901   4.729  0.2434  1.2089 -1.5372
27131SOL    HW281972   2.991   2.994   4.650  1.6416  0.4951 -0.8289
27132SOL     OW81973   9.775   3.947   0.749  0.5052 -0.2824 -0.0008
27132SOL    HW181974   9.706   4.014   0.744  0.2122 -0.6469 -2.0839
27132SOL    HW281975   9.855   3.996   0.765 -0.0382  0.2922  1.0566
27133SOL     OW81976   5.003   6.189   8.761  0.0037 -0.1977  0.0836
27133SOL    HW181977   4.977   6.160   8.849 -0.8557 -1.1911 -0.4807
27133SOL    HW281978   4.923   6.186   8.710  0.0379  2.4017 -0.2634
27134SOL     OW81979   3.441   8.856   8.097 -0.3778  0.0526  0.1520
27134SOL    HW181980   3.448   8.817   8.183  3.4649  2.1142  0.9937
27134SOL    HW281981   3.363   8.912   8.102  0.0935  0.5689  2.5162
27135SOL     OW81982   6.314   7.332   3.226 -0.0212  0.1368 -0.2638
27135SOL    HW181983   6.393   7.296   3.267 -0.0895 -1.1898 -1.2439
27135SOL    HW281984   6.307   7.420   3.262  0.7379 -0.4443  1.4403
27136SOL     OW81985   9.859   7.642   3.705  0.8198 -0.4589  0.4400
27136SOL    HW181986   9.879   7.726   3.664 -0.4565 -0.4021 -0.1332
27136SOL    HW281987   9.856   7.580   3.631  0.5949 -0.7664  0.7024
27137SOL     OW81988   2.463   0.677   7.575  0.2921  0.3446  0.5001
27137SOL    HW181989   2.464   0.655   7.482  2.1988 -1.2523  0.8353
27137SOL    HW281990   2.412   0.607   7.616 -1.3087  1.5214  0.6043
27138SOL     OW81991   5.081   1.375   4.505 -0.4341 -0.2883  0.1881
27138SOL    HW181992   5.155   1.426   4.471 -1.0797 -0.4578 -1.5804
27138SOL    HW281993   5.004   1.428   4.484 -0.8718 -0.3391  1.5803
27139SOL     OW81994   7.149   0.835   3.113  0.3148 -0.1960 -0.4853
27139SOL    HW181995   7.173   0.743   3.120 -0.4502 -0.4799 -1.4381
27139SOL    HW281996   7.233   0.882   3.114  0.6612 -0.8145  1.0099
27140SOL     OW81997   6.874   1.492   9.157 -0.2482  0.2105 -0.5352
27140SOL    HW181998   6.935   1.507   9.229 -0.2640  1.1286 -0.6912
27140SOL    HW281999   6.902   1.410   9.117  0.6306  0.4149 -0.3556
27141SOL     OW82000   9.697   2.742   8.106  0.2788 -0.1249 -0.3773
27141SOL    HW182001   9.705   2.835   8.082  0.6223  0.2659  1.1256
27141SOL    HW282002   9.786   2.709   8.104  0.1642 -0.4085 -0.8462
27142SOL     OW82003   5.481   6.346   4.751 -0.0608 -0.2325  0.1445
27142SOL    HW182004   5.484   6.430   4.707  2.7940 -0.3030  0.0317
27142SOL    HW282005   5.451   6.284   4.685  2.0580  0.0256 -1.1384
27143SOL     OW82006   0.620   5.494   7.768 -0.0187 -0.6164 -0.7864
27143SOL    HW182007   0.597   5.586   7.756  0.6821 -0.2346  0.5794
27143SOL    HW282008   0.601   5.453   7.684 -1.2604  0.5829 -1.1236
27144SOL     OW82009   3.240   7.552   6.431  0.6420  0.3039 -0.4778
27144SOL    HW182010   3.147   7.541   6.410  0.4342  1.1437 -0.0463
27144SOL    HW282011   3.277   7.593   6.354  0.3815  1.1489 -0.1637
27145SOL     OW82012   6.882   8.406   6.581 -0.3182 -0.6333  0.7895
27145SOL    HW182013   6.883   8.382   6.673  1.5005 -1.1289  0.6805
27145SOL    HW282014   6.910   8.326   6.535  0.5447  0.1031 -0.0247
27146SOL     OW82015   3.731   3.463   6.583 -0.3063 -0.0095  0.2261
27146SOL    HW182016   3.682   3.484   6.663  2.0376 -0.3445  1.8537
27146SOL    HW282017   3.722   3.368   6.574 -1.2440  0.1264 -0.4181
27147SOL     OW82018   3.825   3.101   0.153 -0.7727 -0.0751 -0.0684
27147SOL    HW182019   3.898   3.133   0.206 -1.6590 -2.7460  3.0975
27147SOL    HW282020   3.756   3.167   0.164 -0.6179 -0.1386  1.4516
27148SOL     OW82021   3.207   0.876   9.622  0.0443  0.5604 -0.0673
27148SOL    HW182022   3.266   0.894   9.548 -0.1361 -2.4372 -1.0632
27148SOL    HW282023   3.126   0.847   9.580 -1.0456  1.4974  1.3330
27149SOL     OW82024   8.605   9.645   5.101  0.0091 -0.0722 -0.2859
27149SOL    HW182025   8.563   9.563   5.074 -0.5907 -0.0744  0.5883
27149SOL    HW282026   8.660   9.670   5.027  0.1524 -1.2317 -0.5936
27150SOL     OW82027   0.874   5.228   2.218  0.0606  0.3386 -0.0145
27150SOL    HW182028   0.898   5.150   2.269 -0.1683 -0.0428 -0.4792
27150SOL    HW282029   0.944   5.291   2.235 -0.4738  0.5563  1.4904
27151SOL     OW82030   2.031   6.987   7.314  0.3399 -0.3508  0.3706
27151SOL    HW182031   2.079   7.013   7.392  0.8497 -0.4073  0.0831
27151SOL    HW282032   1.942   7.018   7.329  0.1150 -1.4732  1.5166
27152SOL     OW82033   5.349   3.139   5.633  0.0610  0.1693  0.5077
27152SOL    HW182034   5.268   3.088   5.623  1.5595 -2.0148 -2.0510
27152SOL    HW282035   5.380   3.117   5.721  0.0009 -2.5316 -0.0344
27153SOL     OW82036   5.832   2.155   6.274  0.1630 -0.1396  0.3254
27153SOL    HW182037   5.823   2.104   6.194 -2.0059 -2.4582  1.9060
27153SOL    HW282038   5.907   2.115   6.320 -0.7553 -1.1414  0.9900
27154SOL     OW82039   6.158   8.985   6.444  0.4571 -0.0679  0.1572
27154SOL    HW182040   6.105   8.948   6.373  1.0688 -0.6423 -0.0019
27154SOL    HW282041   6.108   8.965   6.524 -0.2210  0.5621 -0.0893
27155SOL     OW82042   9.106   2.751   0.346  0.5053 -0.2283 -0.2586
27155SOL    HW182043   9.180   2.806   0.370 -1.0138  1.7236  0.2275
27155SOL    HW282044   9.067   2.725   0.429  0.1843 -0.5808 -0.5138
27156SOL     OW82045   9.188   4.179   3.235 -0.6427 -0.3397 -0.2945
27156SOL    HW182046   9.143   4.096   3.248 -0.5889 -0.1999  0.9263
27156SOL    HW282047   9.162   4.208   3.148 -0.4882 -1.7364 -0.8183
27157SOL     OW82048   4.173   0.801   2.432 -0.4317  0.1130  0.6194
27157SOL    HW182049   4.136   0.749   2.361  1.4375  1.8569 -1.8088
27157SOL    HW282050   4.097   0.834   2.480 -1.7609 -1.2811 -0.4156
27158SOL     OW82051   7.771   1.342   9.636 -1.0400  0.2157  0.8869
27158SOL    HW182052   7.799   1.255   9.665 -0.6024 -0.4149 -1.2186
27158SOL    HW282053   7.851   1.394   9.633 -0.9885  0.1128  0.3416
27159SOL     OW82054   9.678   5.674   0.454 -0.9245  0.0381  0.0805
27159SOL    HW182055   9.598   5.676   0.506 -2.5984 -1.1198 -2.3010
27159SOL    HW282056   9.689   5.582   0.430  0.6732  0.3123 -0.3730
27160SOL     OW82057   8.994   7.147   5.556 -0.0452  0.1703  0.2764
27160SOL    HW182058   8.996   7.194   5.639  2.6391  1.1557 -0.2286
27160SOL    HW282059   8.996   7.055   5.580  1.2716  0.4503  1.3653
27161SOL     OW82060   4.956   1.274   0.521  0.3104  0.0115 -0.6185
27161SOL    HW182061   4.987   1.275   0.612  1.5941  0.3690 -1.0342
27161SOL    HW282062   5.036   1.261   0.470 -0.2446  1.0188 -1.7628
27162SOL     OW82063   1.219   8.549   2.828  0.4066 -0.0231  0.8515
27162SOL    HW182064   1.177   8.468   2.855 -0.4119  0.2426  0.4136
27162SOL    HW282065   1.307   8.543   2.864  0.3727 -1.1219  0.7903
27163SOL     OW82066   3.534   5.828   5.716 -0.0325  0.5221 -0.2682
27163SOL    HW182067   3.519   5.910   5.762  0.9413  0.5596  0.0037
27163SOL    HW282068   3.617   5.841   5.670 -0.0783 -0.1622 -0.5595
27164SOL     OW82069   7.045   8.224   9.186 -0.0470  0.2562  0.1972
27164SOL    HW182070   6.975   8.162   9.204 -1.5413  0.6117 -3.6287
27164SOL    HW282071   7.053   8.275   9.267 -2.5929 -1.2992  1.5455
27165SOL     OW82072   6.601   2.651   8.227  0.1639 -0.0284  0.4444
27165SOL    HW182073   6.690   2.641   8.194  0.3848 -1.2962  1.3615
27165SOL    HW282074   6.585   2.745   8.226  2.0511  0.3495  1.6452
27166SOL     OW82075   7.966   5.475   2.015  0.9486  0.4092  0.3198
27166SOL    HW182076   7.951   5.561   1.975 -0.0837  1.3519  2.5761
27166SOL    HW282077   8.012   5.425   1.947 -0.4988  1.9324 -1.9364
27167SOL     OW82078   8.527   6.412   7.890  0.1419 -0.5035 -0.4012
27167SOL    HW182079   8.617   6.436   7.912  0.2566 -0.4518 -0.8966
27167SOL    HW282080   8.490   6.376   7.970  0.6040 -0.5173 -0.1964
27168SOL     OW82081   8.717   7.235   2.718  0.3623  0.2324 -0.0426
27168SOL    HW182082   8.724   7.305   2.783  1.3850  0.4997 -0.4217
27168SOL    HW282083   8.748   7.157   2.764  0.4058  0.2768  0.0038
27169SOL     OW82084   5.208   1.091   5.111 -0.0679  0.5210 -0.4992
27169SOL    HW182085   5.194   1.162   5.174 -1.3318  0.5179 -0.7568
27169SOL    HW282086   5.219   1.136   5.027 -2.7213  0.4232 -0.9958
27170SOL     OW82087   5.997   1.787   2.348  0.0591 -0.0152  0.0167
27170SOL    HW182088   5.999   1.828   2.434  1.2872 -2.3052  1.1846
27170SOL    HW282089   6.081   1.810   2.308  1.3055 -2.2458  1.1874
27171SOL     OW82090   0.762   0.986   3.872  0.4971 -0.1180  0.4479
27171SOL    HW182091   0.677   1.026   3.890  1.4538  1.7472  0.9958
27171SOL    HW282092   0.814   1.001   3.951  2.0793  0.8472 -0.7186
27172SOL     OW82093   8.153   6.286   2.683  0.0950 -0.0011 -0.4479
27172SOL    HW182094   8.154   6.241   2.598 -0.4273  1.3463 -1.1885
27172SOL    HW282095   8.192   6.223   2.743 -1.4651 -1.8470 -1.2448
27173SOL     OW82096   8.141   2.981   6.333 -0.1186  0.1241 -0.0810
27173SOL    HW182097   8.104   2.925   6.402 -0.0549  0.1181 -0.0518
27173SOL    HW282098   8.163   3.062   6.378  0.0892  0.0548 -0.0600
27174SOL     OW82099   7.377   0.402   4.747  0.5780  0.0243  0.4773
27174SOL    HW182100   7.288   0.436   4.734  1.2717  1.4297 -1.0187
27174SOL    HW282101   7.425   0.430   4.669  2.2606 -1.0222  1.0697
27175SOL     OW82102   1.809   6.442   2.726 -0.1041  0.8237 -0.1547
27175SOL    HW182103   1.751   6.504   2.681 -2.1540  0.0288  1.2661
27175SOL    HW282104   1.767   6.357   2.715 -0.3808  0.5009  2.6373
27176SOL     OW82105   8.236   5.463   3.369  0.7409 -0.0429  0.4251
27176SOL    HW182106   8.225   5.451   3.275  0.3193  2.0036  0.1620
27176SOL    HW282107   8.169   5.407   3.409  0.6700 -0.6325 -0.4977
27177SOL     OW82108   0.642   0.915   8.713  0.0094 -0.2946  0.3123
27177SOL    HW182109   0.612   0.888   8.626 -0.8090  0.3946  0.3731
27177SOL    HW282110   0.562   0.933   8.762  0.4633 -0.6731  1.2170
27178SOL     OW82111   8.958   6.391   3.655 -0.3687 -0.1275  0.0330
27178SOL    HW182112   8.973   6.476   3.699 -2.4051 -0.3560  1.2928
27178SOL    HW282113   8.878   6.357   3.695  0.8365 -3.0751  0.1769
27179SOL     OW82114   8.828   8.332   6.475 -0.6338  0.0764  0.2199
27179SOL    HW182115   8.902   8.391   6.458 -0.9699  0.2694 -0.6496
27179SOL    HW282116   8.812   8.340   6.569  0.5203 -0.0551  0.4410
27180SOL     OW82117   0.365   4.163   5.002  0.5093  0.0073  0.2872
27180SOL    HW182118   0.429   4.226   4.968 -0.0125  0.6759  0.5050
27180SOL    HW282119   0.412   4.079   5.003  1.1425  0.3410 -0.2431
27181SOL     OW82120   0.098   6.553   5.708 -0.3495  0.4989 -0.1507
27181SOL    HW182121   0.122   6.639   5.674  1.0136  0.0338 -0.4390
27181SOL    HW282122   0.174   6.498   5.690 -1.4460 -0.9468 -0.5843
27182SOL     OW82123   7.316   5.107   5.593  0.2228 -0.2630 -0.6744
27182SOL    HW182124   7.329   5.012   5.599  0.7748 -0.3975 -3.1255
27182SOL    HW282125   7.241   5.117   5.535 -0.6348  0.8296  0.5570
27183SOL     OW82126   6.099   1.443   9.267  0.4174 -0.1416  0.2473
27183SOL    HW182127   6.192   1.418   9.275  0.3510 -0.7900 -0.8118
27183SOL    HW282128   6.099   1.518   9.209  0.4204  1.0622  1.7430
27184SOL     OW82129   3.466   9.936   2.226 -0.4276  0.1122 -0.2002
27184SOL    HW182130   3.514  10.005   2.273 -0.7494  0.8704 -0.9615
27184SOL    HW282131   3.419   9.983   2.157 -3.1737 -0.4177  1.1818
27185SOL     OW82132   2.816   6.329   5.046  0.2495  0.4705 -0.1617
27185SOL    HW182133   2.730   6.351   5.081  0.1996 -0.2087  0.1538
27185SOL    HW282134   2.870   6.315   5.123  0.1091 -1.1658 -0.3421
27186SOL     OW82135   4.513   0.040   9.348  0.7428 -0.2896 -0.2340
27186SOL    HW182136   4.537   0.100   9.418  0.2223 -0.4188  0.0660
27186SOL    HW282137   4.546   0.081   9.268  1.1779 -0.0496  0.0675
27187SOL     OW82138   7.021   0.242   2.174 -0.6804  0.0841 -0.4202
27187SOL    HW182139   7.048   0.187   2.101  0.6094  0.4360 -0.2365
27187SOL    HW282140   6.967   0.310   2.134 -0.2661  0.0799 -1.0041
27188SOL     OW82141   1.706   1.801   6.658  0.2790 -0.0537  0.3382
27188SOL    HW182142   1.778   1.861   6.677  0.2026  0.3539 -0.6350
27188SOL    HW282143   1.697   1.802   6.563 -1.8813  0.9520  0.4764
27189SOL     OW82144   3.072   9.053   6.220  0.2124 -0.2354  0.6445
27189SOL    HW182145   3.017   9.103   6.161 -1.7453 -0.8036  1.8757
27189SOL    HW282146   3.145   9.111   6.240 -1.0364  1.4261  0.6195
27190SOL     OW82147   9.399   0.333   1.664  0.5222  0.1864 -0.3862
27190SOL    HW182148   9.411   0.397   1.594 -0.1613  0.6080 -0.1254
27190SOL    HW282149   9.346   0.378   1.729  1.4147 -0.0974  0.5558
27191SOL     OW82150   0.762   3.253   9.706  0.1411  0.4138 -0.4009
27191SOL    HW182151   0.760   3.304   9.625 -0.1334 -0.0400 -0.6783
27191SOL    HW282152   0.745   3.163   9.679  0.0090  0.2660  0.1642
27192SOL     OW82153   5.698   7.067   3.210  0.3921 -0.1799  0.2014
27192SOL    HW182154   5.736   7.151   3.235  0.3127 -0.0669 -0.0527
27192SOL    HW282155   5.773   7.010   3.196  0.5656  0.5062 -1.9601
27193SOL     OW82156   9.314   1.147   9.797 -0.6872  0.0566  0.3632
27193SOL    HW182157   9.319   1.063   9.843 -0.7692  0.3722  0.9626
27193SOL    HW282158   9.226   1.148   9.760 -0.4773 -0.3788 -0.1586
27194SOL     OW82159   7.719   2.625   3.029 -0.8259  0.0825 -0.2094
27194SOL    HW182160   7.701   2.581   3.112  1.6502 -1.4568 -0.4019
27194SOL    HW282161   7.655   2.587   2.968 -1.2898 -0.3376  0.5269
27195SOL     OW82162   7.532   8.223   3.519  0.1227  0.0157  0.5640
27195SOL    HW182163   7.599   8.289   3.503 -0.7375  0.9170  0.5893
27195SOL    HW282164   7.578   8.140   3.510  1.1542  0.6073  0.1848
27196SOL     OW82165   1.706   3.926   0.715 -0.3898 -0.0956 -0.0403
27196SOL    HW182166   1.638   3.887   0.770 -1.2105  0.2645 -0.7749
27196SOL    HW282167   1.734   3.855   0.658  0.2403 -0.3852  0.6074
27197SOL     OW82168   2.879   4.786   6.957  0.3867  0.4517 -0.0139
27197SOL    HW182169   2.896   4.750   6.870  2.0337  2.1749 -0.4764
27197SOL    HW282170   2.904   4.715   7.017  2.6341  0.4170 -0.9030
27198SOL     OW82171   0.417   1.073   2.435 -0.0782  0.1190 -0.0091
27198SOL    HW182172   0.404   1.030   2.350 -0.0445  0.8478 -0.3879
27198SOL    HW282173   0.334   1.117   2.453 -0.3949 -0.7701  0.7697
27199SOL     OW82174   0.089   6.584   4.414 -0.5873 -0.5857 -0.1897
27199SOL    HW182175   0.022   6.535   4.462  0.2118 -0.1939  1.4214
27199SOL    HW282176   0.162   6.523   4.406 -0.4291 -0.3935 -0.2155
27200SOL     OW82177   7.033   9.743   0.516 -0.4863  0.8020  0.2813
27200SOL    HW182178   7.122   9.724   0.485 -0.1489  1.0859  1.0389
27200SOL    HW282179   7.001   9.659   0.550 -0.3610  0.7832  0.3539
27201SOL     OW82180   5.715   3.984   7.106 -0.0391 -0.2937 -0.1865
27201SOL    HW182181   5.736   4.032   7.186  2.1427  1.2108 -1.5808
27201SOL    HW282182   5.752   3.896   7.121  0.1623 -0.0986  0.5198
27202SOL     OW82183   8.394   4.835   5.670  0.1641  0.7343  0.4415
27202SOL    HW182184   8.356   4.759   5.715 -0.1992  1.3094  1.1178
27202SOL    HW282185   8.369   4.910   5.723  0.7969  1.3064 -0.0439
27203SOL     OW82186   0.251   5.572   4.897 -0.2520 -0.0843 -0.2711
27203SOL    HW182187   0.159   5.586   4.920 -0.0557 -0.0874  0.5258
27203SOL    HW282188   0.294   5.655   4.915  0.3043 -0.7027  1.4328
27204SOL     OW82189   5.143   4.825   3.336 -0.2104 -0.3087  0.0563
27204SOL    HW182190   5.155   4.894   3.400 -2.9961 -0.4488  0.8551
27204SOL    HW282191   5.068   4.853   3.283  0.9823 -0.9753 -2.1285
27205SOL     OW82192   6.534   8.858   8.020  0.0681 -0.0505  0.3214
27205SOL    HW182193   6.613   8.834   7.973  0.3487  1.5389 -0.0993
27205SOL    HW282194   6.565   8.901   8.099 -0.4060 -1.2903  1.2075
27206SOL     OW82195   4.205   5.604   3.700  0.1594  0.2603 -0.5900
27206SOL    HW182196   4.146   5.654   3.643 -0.8794 -0.0668  0.1676
27206SOL    HW282197   4.178   5.513   3.688  1.1647  0.0007 -0.9572
27207SOL     OW82198   8.362   9.960   3.046 -0.4148  0.0892 -0.2803
27207SOL    HW182199   8.430  10.027   3.042 -0.3096  0.0023  0.0054
27207SOL    HW282200   8.357   9.926   2.957  0.2618 -0.2366 -0.2023
27208SOL     OW82201   5.632   4.905   5.051  0.4340 -0.0432  0.1968
27208SOL    HW182202   5.658   4.839   4.987 -0.7568 -0.3454  0.0154
27208SOL    HW282203   5.659   4.989   5.011  0.1825 -0.2679 -0.4527
27209SOL     OW82204   2.622   6.031   6.682 -0.3086 -0.1994 -0.8289
27209SOL    HW182205   2.613   5.963   6.748 -0.1445 -0.9174 -1.5260
27209SOL    HW282206   2.563   6.101   6.710 -1.5995 -1.2399 -0.8705
27210SOL     OW82207   3.532   3.249   3.363 -0.2755  0.0186 -0.1683
27210SOL    HW182208   3.440   3.271   3.380 -0.9619 -1.4155 -1.6811
27210SOL    HW282209   3.581   3.293   3.432 -2.1885  0.1097  1.2064
27211SOL     OW82210   2.806   9.453   9.957 -0.1365 -0.0978 -0.5756
27211SOL    HW182211   2.792   9.410   9.872 -0.5057 -0.9862 -0.0742
27211SOL    HW282212   2.762   9.396  10.020  0.8419  0.1270  0.3232
27212SOL     OW82213   0.895   4.630   2.525 -0.2599 -0.5148 -0.9180
27212SOL    HW182214   0.971   4.573   2.512  0.0202 -0.0591 -1.3096
27212SOL    HW282215   0.820   4.576   2.500 -0.3097 -1.7494  1.6422
27213SOL     OW82216   6.947   3.805   7.549 -0.7479 -0.3716  0.1488
27213SOL    HW182217   7.009   3.844   7.488  0.4785  0.0747  1.6209
27213SOL    HW282218   6.989   3.812   7.634 -2.6669 -0.4140  1.1618
27214SOL     OW82219   4.154   7.821   3.658  0.4321 -0.1695  0.1545
27214SOL    HW182220   4.159   7.804   3.564  1.4962  0.7424  0.0202
27214SOL    HW282221   4.241   7.855   3.680 -0.5442  1.9454  0.9690
27215SOL     OW82222   9.540   0.652   4.446  0.3690  0.2173  0.1992
27215SOL    HW182223   9.588   0.588   4.499  1.1891  1.2022  0.6807
27215SOL    HW282224   9.495   0.599   4.381  2.1108 -0.7902 -0.2700
27216SOL     OW82225   7.869   9.242   9.127 -0.4030  0.0197 -0.0701
27216SOL    HW182226   7.874   9.147   9.119  0.9462  0.1456 -1.1163
27216SOL    HW282227   7.933   9.275   9.063  1.8234  1.5507  2.6850
27217SOL     OW82228   1.172   8.729   6.319  0.4279 -0.3689  0.4937
27217SOL    HW182229   1.090   8.726   6.269 -0.4837 -0.9595  1.9466
27217SOL    HW282230   1.219   8.650   6.293  0.0312 -0.5868  0.4273
27218SOL     OW82231   1.060   3.190   7.559 -0.3508  0.2137  0.0337
27218SOL    HW182232   1.089   3.217   7.646  0.8540 -3.1882  0.8386
27218SOL    HW282233   1.139   3.189   7.506 -0.5640 -0.4414 -0.2898
27219SOL     OW82234   8.970   6.627   9.246 -0.1657 -0.0408 -0.1684
27219SOL    HW182235   8.942   6.543   9.283 -2.3427  0.9000  0.4769
27219SOL    HW282236   8.930   6.630   9.160 -2.8504  1.5972  1.0114
27220SOL     OW82237   4.227   1.807   4.952  0.0841  0.2233  0.3070
27220SOL    HW182238   4.166   1.856   4.897  0.3425  1.1345  0.8230
27220SOL    HW282239   4.293   1.774   4.891  0.1116  0.8316  0.0053
27221SOL     OW82240   3.848   1.612   4.152 -0.3689 -0.2812  0.2630
27221SOL    HW182241   3.824   1.600   4.060 -2.1540 -0.8163  0.7669
27221SOL    HW282242   3.932   1.566   4.161 -1.3717 -2.4098 -0.5600
27222SOL     OW82243   1.301   2.707   7.900  0.1771 -0.2881  0.5835
27222SOL    HW182244   1.279   2.692   7.992  1.4860  2.3179  1.4014
27222SOL    HW282245   1.234   2.766   7.867  0.7610  0.3155  0.4421
27223SOL     OW82246   1.355   8.237   3.547  0.3111  0.0739  0.5040
27223SOL    HW182247   1.261   8.258   3.551  0.1757 -0.2600 -0.4836
27223SOL    HW282248   1.386   8.245   3.637  0.0773  3.5382  0.4028
27224SOL     OW82249   8.969   9.246   2.907 -0.3762  0.3545  0.3584
27224SOL    HW182250   8.971   9.151   2.900 -0.5526  0.3255  0.6837
27224SOL    HW282251   9.010   9.277   2.826  1.6411 -0.0143  1.1877
27225SOL     OW82252   6.640   3.642   8.044 -0.2907 -0.0918  0.1460
27225SOL    HW182253   6.717   3.691   8.072 -1.1089  1.2315  0.1595
27225SOL    HW282254   6.614   3.593   8.123 -0.2965  0.5767  0.5686
27226SOL     OW82255   9.444   5.212   4.264  0.0039 -0.1233 -0.3918
27226SOL    HW182256   9.414   5.181   4.179  2.1674 -1.4941 -0.7216
27226SOL    HW282257   9.510   5.278   4.244  0.6757 -0.5978  0.1872
27227SOL     OW82258   6.037   7.859   3.346 -0.3479 -0.7390  0.0642
27227SOL    HW182259   6.007   7.876   3.257  0.9160 -0.5240 -0.3385
27227SOL    HW282260   6.048   7.764   3.349 -1.4139 -0.8670  0.3446
27228SOL     OW82261   0.054   8.755   0.182  0.3263 -0.1359  0.4238
27228SOL    HW182262   0.120   8.750   0.113  0.0669  1.0457  0.0586
27228SOL    HW282263   0.056   8.669   0.224  0.2342 -1.0006 -1.2746
27229SOL     OW82264   1.607   2.833   8.891  0.1484  0.1255  0.6568
27229SOL    HW182265   1.590   2.925   8.909  0.5826  0.3551 -0.0766
27229SOL    HW282266   1.698   2.830   8.861 -0.6910 -0.1058 -2.1292
27230SOL     OW82267   2.534   1.585   3.270  0.1885  0.1377  0.1170
27230SOL    HW182268   2.580   1.503   3.253 -0.6307 -0.1816 -0.6190
27230SOL    HW282269   2.500   1.576   3.359  2.4003  0.8102  1.1090
27231SOL     OW82270   3.426   4.729   4.517 -0.1660 -0.2645 -0.5750
27231SOL    HW182271   3.505   4.725   4.463 -0.8375 -1.9424 -1.5116
27231SOL    HW282272   3.390   4.817   4.501  0.6750 -0.0467 -1.3429
27232SOL     OW82273   1.352   3.801   3.249  0.9154  0.3815  0.2193
27232SOL    HW182274   1.347   3.891   3.281 -1.3314  1.5627 -2.9341
27232SOL    HW282275   1.443   3.790   3.222  1.6395  1.0309  2.2209
27233SOL     OW82276   3.205   8.263   3.992  0.2874  0.5115  0.6730
27233SOL    HW182277   3.274   8.197   4.001  0.2659  0.0719 -1.7079
27233SOL    HW282278   3.125   8.218   4.021  0.3900 -0.2869 -0.2414
27234SOL     OW82279   5.042   3.502   6.725  0.0924  0.2092 -0.0179
27234SOL    HW182280   5.070   3.411   6.735  0.6268  0.4198  0.4288
27234SOL    HW282281   4.957   3.495   6.682  0.2261 -0.4922 -0.1919
27235SOL     OW82282   6.456   1.078   1.910 -0.0910  0.1969  0.1308
27235SOL    HW182283   6.522   1.065   1.978  0.8076 -3.4946 -1.2299
27235SOL    HW282284   6.495   1.140   1.849  0.1400  1.5554  1.5821
27236SOL     OW82285   0.255   3.926   9.159 -0.0019 -0.0163  0.3185
27236SOL    HW182286   0.222   3.837   9.176 -0.6778  0.1265 -0.2286
27236SOL    HW282287   0.350   3.915   9.152 -0.2567 -1.1384 -2.3323
27237SOL     OW82288   9.815   1.866   4.708  0.4443 -0.1130  0.0666
27237SOL    HW182289   9.810   1.799   4.639  2.1285  0.3143 -0.5062
27237SOL    HW282290   9.896   1.847   4.754  0.3102  0.7943  0.7048
27238SOL     OW82291   4.631   7.480   9.712 -0.4279  0.5323  0.1103
27238SOL    HW182292   4.563   7.538   9.677 -0.0770  0.8761 -0.0092
27238SOL    HW282293   4.631   7.497   9.806 -0.2087  0.8559  0.0540
27239SOL     OW82294   7.057   3.086   6.817  0.0200 -0.4071 -0.1354
27239SOL    HW182295   7.050   3.180   6.830  0.7070 -0.5877  1.8790
27239SOL    HW282296   7.152   3.069   6.813 -0.0962 -1.0400 -0.3863
27240SOL     OW82297   5.255   2.127   3.362  0.1206  0.0565  0.5990
27240SOL    HW182298   5.226   2.190   3.428 -0.7447  0.1119  0.1829
27240SOL    HW282299   5.254   2.177   3.280 -1.5868 -0.7186  0.0823
27241SOL     OW82300   0.141   5.262   8.895 -0.6058 -0.3095  0.3913
27241SOL    HW182301   0.136   5.232   8.986 -1.2951 -1.6721 -0.0523
27241SOL    HW282302   0.161   5.182   8.845  0.8553  0.6019 -0.5607
27242SOL     OW82303   6.382   9.576   2.061  0.3045 -0.2049  0.1424
27242SOL    HW182304   6.341   9.663   2.056 -0.1449 -0.3517  1.0869
27242SOL    HW282305   6.346   9.528   1.987  1.7504  0.8953 -1.3363
27243SOL     OW82306   3.220   6.121   9.951 -0.0876 -0.1049  0.6629
27243SOL    HW182307   3.211   6.033   9.987 -1.8758  0.1790  1.0082
27243SOL    HW282308   3.277   6.111   9.875 -1.4570 -1.8644 -0.2133
27244SOL     OW82309   8.702   9.433   6.324 -0.2513  0.0565  0.5918
27244SOL    HW182310   8.771   9.435   6.389 -0.4066  1.7083  0.7570
27244SOL    HW282311   8.667   9.344   6.328  1.5449 -0.6834  0.8109
27245SOL     OW82312   9.210   3.949   7.735  0.6375 -0.0651 -0.7598
27245SOL    HW182313   9.295   3.975   7.700  0.8487  0.1494 -0.1010
27245SOL    HW282314   9.210   3.854   7.730  0.6258 -0.0329 -1.4256
27246SOL     OW82315   3.845   7.402   2.787  0.0108 -0.1466 -0.5653
27246SOL    HW182316   3.882   7.316   2.765  2.1555  0.7680 -0.8315
27246SOL    HW282317   3.785   7.385   2.860  0.3920 -1.8584 -0.6104
27247SOL     OW82318   6.864   8.913   0.797  0.2902  0.5157  0.5044
27247SOL    HW182319   6.951   8.941   0.770  0.8008 -1.6231 -0.1879
27247SOL    HW282320   6.857   8.942   0.888  0.9309  2.4169 -0.0063
27248SOL     OW82321   4.135   0.867   8.047 -0.2129  0.7377  0.6064
27248SOL    HW182322   4.090   0.792   8.087  0.4897 -0.3824 -0.6127
27248SOL    HW282323   4.065   0.929   8.027 -0.9733 -0.1285  0.5268
27249SOL     OW82324   9.241   2.335   3.495  0.2069 -0.3619  0.0580
27249SOL    HW182325   9.246   2.408   3.434 -1.1437  0.6279  1.0801
27249SOL    HW282326   9.332   2.308   3.506  0.4836 -0.7895 -2.5792
27250SOL     OW82327   4.590   6.907   9.022 -0.1694  0.3501  0.0826
27250SOL    HW182328   4.659   6.973   9.029  0.1797  0.2535 -1.9168
27250SOL    HW282329   4.623   6.845   8.958 -1.6004 -0.3817  0.0104
27251SOL     OW82330   0.460   1.620   9.519 -0.0196  0.0014  0.4126
27251SOL    HW182331   0.414   1.561   9.579  1.1015 -1.2147  0.1383
27251SOL    HW282332   0.538   1.570   9.493 -0.2244  0.6824 -1.6509
27252SOL     OW82333   6.983   7.728   1.163 -0.0183  0.0198  0.0859
27252SOL    HW182334   6.952   7.759   1.248  0.5045  1.4554 -0.2153
27252SOL    HW282335   6.930   7.776   1.099 -0.5522 -1.2059 -0.4144
27253SOL     OW82336   8.102   5.370   1.452  0.7035 -0.6026 -0.4512
27253SOL    HW182337   8.162   5.415   1.511  0.8531 -0.0696 -1.0106
27253SOL    HW282338   8.132   5.279   1.453 -1.1188 -1.3219  2.6599
27254SOL     OW82339   5.157   1.936   4.301 -0.2798  0.4278 -0.0847
27254SOL    HW182340   5.179   1.845   4.285 -0.6088  0.8016 -3.1086
27254SOL    HW282341   5.147   1.942   4.396  2.3070 -2.0693  0.4802
27255SOL     OW82342   0.543   9.770   6.500 -0.2091  0.0097 -0.0218
27255SOL    HW182343   0.566   9.695   6.554  2.2007 -0.5031 -1.6219
27255SOL    HW282344   0.472   9.738   6.444 -0.2696 -0.5579  0.3676
27256SOL     OW82345   5.909   0.018   9.291 -1.0044 -0.3669 -0.0911
27256SOL    HW182346   5.855   0.096   9.277  1.4583  1.7904  1.5917
27256SOL    HW282347   5.927  -0.015   9.203 -0.9484  1.8058 -0.9485
27257SOL     OW82348   6.629   9.055   8.194 -0.3926 -0.2141  0.2734
27257SOL    HW182349   6.682   9.134   8.187 -2.3050  0.9869 -2.4698
27257SOL    HW282350   6.584   9.064   8.278 -1.5200  2.3515 -0.4915
27258SOL     OW82351   8.447   5.621   9.100 -0.3614 -0.0617 -0.0731
27258SOL    HW182352   8.366   5.571   9.092 -0.1103 -0.3984 -0.5432
27258SOL    HW282353   8.446   5.654   9.190 -1.3854  0.5756 -0.2964
27259SOL     OW82354   5.889   2.984   4.001  0.0081 -0.2041 -0.1281
27259SOL    HW182355   5.800   2.979   4.036  0.5737 -2.1206  1.2303
27259SOL    HW282356   5.880   2.970   3.907 -1.3094  2.1614 -0.4203
27260SOL     OW82357   2.839   0.742   1.757  0.2657 -0.1733 -0.2982
27260SOL    HW182358   2.751   0.714   1.783  0.2836  1.5661  1.9511
27260SOL    HW282359   2.826   0.789   1.675 -0.4718 -2.1857 -1.3973
27261SOL     OW82360   8.599   4.253   7.716 -0.4130  0.2686 -0.0242
27261SOL    HW182361   8.630   4.290   7.799 -2.3009  0.4874  0.6259
27261SOL    HW282362   8.518   4.208   7.738 -0.0965 -1.1228 -1.4869
27262SOL     OW82363   9.698   7.281   6.929  0.4197 -0.2163  0.2235
27262SOL    HW182364   9.733   7.357   6.883  1.9463  0.3294  2.1484
27262SOL    HW282365   9.629   7.247   6.872 -1.8961  3.8933  0.1966
27263SOL     OW82366   5.672   4.789   5.567  0.3005  0.1985  0.2966
27263SOL    HW182367   5.673   4.777   5.472  0.2906  1.3211  0.1490
27263SOL    HW282368   5.662   4.700   5.602 -0.2693 -0.1683 -0.7618
27264SOL     OW82369   5.861   6.347   7.924 -0.0809  0.7810 -0.0810
27264SOL    HW182370   5.804   6.270   7.925 -1.3208  1.6474 -1.0667
27264SOL    HW282371   5.905   6.342   7.839  1.7247 -0.1227  0.8485
27265SOL     OW82372   2.975   0.044   8.074 -0.1390 -0.1436 -0.0512
27265SOL    HW182373   3.055  -0.000   8.047 -0.7088 -0.5656 -1.0886
27265SOL    HW282374   2.986   0.134   8.043  0.7527  0.3403  1.5248
27266SOL     OW82375   6.698   4.711   0.896  0.3593  0.1417 -0.1480
27266SOL    HW182376   6.684   4.647   0.966  0.0945 -0.3513 -0.6376
27266SOL    HW282377   6.637   4.782   0.915 -0.7274 -0.6283 -0.6299
27267SOL     OW82378   1.790   0.436   1.415 -0.5510 -0.1321 -0.2312
27267SOL    HW182379   1.720   0.370   1.412 -1.0180 -0.0533  3.5986
27267SOL    HW282380   1.868   0.387   1.442 -0.5485  0.5733  1.1448
27268SOL     OW82381   1.250   0.700   6.369 -0.1564  0.1387  0.0049
27268SOL    HW182382   1.286   0.617   6.399 -0.0350 -0.2197 -1.0972
27268SOL    HW282383   1.322   0.762   6.379  0.7245 -0.5113 -1.9022
27269SOL     OW82384   1.658   1.883   3.200 -0.0438 -0.1183 -0.0943
27269SOL    HW182385   1.734   1.825   3.191  0.3930  0.5161 -0.6441
27269SOL    HW282386   1.600   1.857   3.129  0.7312  0.9407 -1.1622
27270SOL     OW82387   3.530   6.235   8.388  0.0594  0.0944  0.0043
27270SOL    HW182388   3.619   6.245   8.355  0.1697  0.2404  0.3433
27270SOL    HW282389   3.540   6.224   8.482 -0.1869 -1.3945 -0.1251
27271SOL     OW82390   4.760   6.884   4.555 -0.2298 -0.2466  0.3977
27271SOL    HW182391   4.683   6.873   4.500  0.6176 -0.2065 -0.8401
27271SOL    HW282392   4.796   6.796   4.565  0.2572 -0.1137 -0.0986
27272SOL     OW82393   9.534   4.058   8.821  0.5323  0.2406 -0.1541
27272SOL    HW182394   9.511   4.091   8.908  1.5791  0.7754 -0.0650
27272SOL    HW282395   9.501   3.968   8.821 -0.3544  0.5492  0.4276
27273SOL     OW82396   7.701   6.555   8.474 -0.0365 -0.3501  0.6789
27273SOL    HW182397   7.786   6.545   8.431 -0.3814 -0.7761  0.0700
27273SOL    HW282398   7.709   6.504   8.554  0.7967  0.8897  1.4182
27274SOL     OW82399   2.999   9.377   6.404  0.6588  0.6335 -0.5020
27274SOL    HW182400   2.942   9.418   6.468  2.0730  0.6292  0.8363
27274SOL    HW282401   3.048   9.312   6.454  0.7550 -0.4295 -1.9131
27275SOL     OW82402   4.729   0.762   2.652 -0.0895  0.3808  0.0905
27275SOL    HW182403   4.667   0.757   2.725 -0.5555  0.3532 -0.3024
27275SOL    HW282404   4.674   0.775   2.575  0.3433 -0.2937 -0.3439
27276SOL     OW82405   1.836   4.938   3.272  0.0263 -0.1620 -0.0555
27276SOL    HW182406   1.802   4.958   3.184  1.7637  1.6537 -0.3908
27276SOL    HW282407   1.930   4.955   3.265  0.5602 -2.0186  1.6411
27277SOL     OW82408   8.080   2.889   6.856 -0.2223 -0.8124  0.0135
27277SOL    HW182409   8.164   2.915   6.819 -1.0601  0.0896 -1.3692
27277SOL    HW282410   8.101   2.853   6.942  1.7202 -1.8780 -0.8364
27278SOL     OW82411   5.199   1.057   8.495 -0.2692 -0.3587  0.0351
27278SOL    HW182412   5.168   1.086   8.409 -1.4130 -0.5204  0.3794
27278SOL    HW282413   5.155   1.115   8.557 -1.1474 -1.6016  0.6286
27279SOL     OW82414   4.411   7.023   8.839 -0.1973 -0.1629  0.0464
27279SOL    HW182415   4.468   6.976   8.901  0.5094  0.1493 -0.3635
27279SOL    HW282416   4.383   6.955   8.777 -0.4824 -0.3683  0.3943
27280SOL     OW82417   8.426   3.474   7.527 -0.0947  0.8313 -0.2904
27280SOL    HW182418   8.354   3.533   7.552 -2.7282 -1.4532 -1.9476
27280SOL    HW282419   8.423   3.404   7.592  1.5261  1.2759  0.3227
27281SOL     OW82420   5.520   4.319   3.416  0.1081  0.1974 -0.2015
27281SOL    HW182421   5.512   4.362   3.331 -0.5498  1.0734  0.2968
27281SOL    HW282422   5.604   4.350   3.450 -0.0738  0.6044 -0.1160
27282SOL     OW82423   3.418   2.075   8.153  0.2654  0.2505 -0.0058
27282SOL    HW182424   3.490   2.125   8.192  0.2248  0.7078 -0.5011
27282SOL    HW282425   3.419   2.100   8.060  2.3491 -3.0861 -1.0626
27283SOL     OW82426   9.875   0.420   1.184  0.4941 -0.4540 -0.0569
27283SOL    HW182427   9.937   0.381   1.123  0.0346  0.2547 -0.9901
27283SOL    HW282428   9.865   0.354   1.253  0.3336 -1.6443 -1.1924
27284SOL     OW82429   2.731   3.361   6.223  0.6252  0.7249  0.1322
27284SOL    HW182430   2.706   3.452   6.239 -0.6288  0.3695  0.2699
27284SOL    HW282431   2.664   3.327   6.164  0.7698 -0.2572  0.5052
27285SOL     OW82432   6.743   3.287   2.559  0.0782  0.3123  0.6047
27285SOL    HW182433   6.677   3.356   2.559  0.2998  0.5235  0.2827
27285SOL    HW282434   6.811   3.319   2.618  0.6965  0.8672 -0.3840
27286SOL     OW82435   4.711   5.870   1.489  0.7349 -0.3246  0.7017
27286SOL    HW182436   4.720   5.848   1.396  1.5722  1.4452  0.3293
27286SOL    HW282437   4.701   5.785   1.532  1.0389 -1.2340 -0.9240
27287SOL     OW82438   3.510   0.693   6.687 -0.0416  0.3790  0.2788
27287SOL    HW182439   3.565   0.623   6.724 -1.0161 -0.5520  0.0271
27287SOL    HW282440   3.425   0.681   6.729 -0.6510  0.4520 -0.9098
27288SOL     OW82441   0.366   9.439   8.396  0.3385 -0.5998  0.3450
27288SOL    HW182442   0.376   9.506   8.464 -0.0511 -0.5697  0.3715
27288SOL    HW282443   0.279   9.403   8.410 -0.3432  0.4182 -1.0423
27289SOL     OW82444   7.830   0.653   6.357  0.6956 -0.3974  0.2004
27289SOL    HW182445   7.758   0.624   6.413  0.0012  0.5116 -0.1987
27289SOL    HW282446   7.814   0.746   6.344  1.1357 -0.4830 -1.0809
27290SOL     OW82447   3.549   1.617   3.913 -0.2238  0.0761 -0.3653
27290SOL    HW182448   3.563   1.708   3.885 -0.6968 -0.5810 -3.0105
27290SOL    HW282449   3.468   1.590   3.868  0.2767 -1.8651 -0.1950
27291SOL     OW82450   2.104   2.965   5.021  0.0599  0.3421  0.5341
27291SOL    HW182451   2.016   2.969   5.058 -1.2548  0.0230 -2.2570
27291SOL    HW282452   2.126   3.056   5.001  0.5695  0.4629  1.5654
27292SOL     OW82453   4.486   9.775   9.970  0.7365  0.1764 -0.4110
27292SOL    HW182454   4.582   9.771   9.963  0.6744 -0.5941 -0.8764
27292SOL    HW282455   4.459   9.824   9.892  0.7280  0.1365 -0.4329
27293SOL     OW82456   7.920   1.178   6.465 -0.6073  1.1849 -0.4485
27293SOL    HW182457   7.954   1.110   6.407 -1.1546 -0.2934  0.9002
27293SOL    HW282458   7.953   1.260   6.428  2.2341  0.0242 -0.6759
27294SOL     OW82459   6.727   0.555   7.894 -0.5066 -0.3382  0.2398
27294SOL    HW182460   6.739   0.521   7.983  0.3226 -1.5180 -0.2889
27294SOL    HW282461   6.667   0.629   7.904  0.7797  0.5383  1.9738
27295SOL     OW82462   1.468   9.037   1.336 -0.0577 -0.0286  0.1033
27295SOL    HW182463   1.486   8.965   1.275 -0.8782 -2.2911  2.3211
27295SOL    HW282464   1.475   9.116   1.283  0.9257 -1.7097 -2.5003
27296SOL     OW82465   6.324   0.150   3.350  0.1887  0.1315 -0.4069
27296SOL    HW182466   6.254   0.214   3.364  1.3985  1.3151  0.4339
27296SOL    HW282467   6.335   0.108   3.435 -1.1199 -1.8514 -1.1142
27297SOL     OW82468   9.431   6.016   0.346 -0.0705 -0.2360  0.0272
27297SOL    HW182469   9.503   6.016   0.408  0.8733 -3.1691 -0.8830
27297SOL    HW282470   9.359   5.973   0.392 -0.4452  0.4639  0.1137
27298SOL     OW82471   3.175   1.116   5.732  0.0418 -0.1826  0.1278
27298SOL    HW182472   3.152   1.157   5.815  1.6725  1.2868 -0.0857
27298SOL    HW282473   3.091   1.093   5.692 -0.7681 -0.8862  2.1231
27299SOL     OW82474   9.979   3.685   6.552 -0.2524  0.6006  0.6985
27299SOL    HW182475   9.886   3.704   6.560 -0.4480 -0.1620  0.3302
27299SOL    HW282476  10.013   3.693   6.642 -0.7757  0.3464  0.9219
27300SOL     OW82477   0.265   2.763   2.303  0.4171  0.5165  0.2754
27300SOL    HW182478   0.282   2.722   2.218  0.4413  0.7084  0.1863
27300SOL    HW282479   0.270   2.857   2.285 -1.0338  0.6082  0.1756
27301SOL     OW82480   4.697   4.599   0.768  0.7124 -0.3125 -0.2058
27301SOL    HW182481   4.747   4.551   0.703 -0.8640  0.1825 -1.8914
27301SOL    HW282482   4.618   4.626   0.721  0.9862  2.9144  0.9413
27302SOL     OW82483   9.334   7.738   9.638  0.6234 -0.1591 -0.1642
27302SOL    HW182484   9.314   7.832   9.645  1.3764 -0.0045  0.0126
27302SOL    HW282485   9.303   7.701   9.721 -0.3816 -0.2160 -0.5420
27303SOL     OW82486   2.362   8.136   6.597  0.2476  0.0591  0.1915
27303SOL    HW182487   2.347   8.219   6.643  3.7579  1.9322 -1.6312
27303SOL    HW282488   2.426   8.090   6.652 -0.4295 -0.7145  0.3526
27304SOL     OW82489   8.079   1.774   7.310 -0.5581  0.1509  1.0564
27304SOL    HW182490   8.172   1.765   7.333 -0.3187  1.7002  0.7792
27304SOL    HW282491   8.055   1.862   7.340 -1.7018  0.1124  0.2999
27305SOL     OW82492   6.985   8.494   7.434 -0.4074 -0.2811 -0.4164
27305SOL    HW182493   7.035   8.573   7.450 -1.7330  0.4655  0.2597
27305SOL    HW282494   7.011   8.465   7.347 -0.6332  1.4823 -1.1041
27306SOL     OW82495   5.443   9.289   9.061 -0.3333 -0.3409  0.4680
27306SOL    HW182496   5.495   9.357   9.019  0.5231 -0.8668  0.6512
27306SOL    HW282497   5.435   9.319   9.152  1.1348 -1.0723  0.8721
27307SOL     OW82498   3.781   5.615   6.697 -0.0554 -0.0060 -0.6087
27307SOL    HW182499   3.832   5.681   6.743  0.5691 -0.1568 -1.0655
27307SOL    HW282500   3.722   5.579   6.763 -0.1885  0.7820 -0.2812
27308SOL     OW82501   5.624   5.389   9.430  0.1248  0.3864  0.0550
27308SOL    HW182502   5.642   5.301   9.398  0.4664  0.6812 -0.5890
27308SOL    HW282503   5.706   5.437   9.414  0.2976  0.5573  1.3524
27309SOL     OW82504   9.610   7.870   6.434  0.3485 -0.0239  0.8277
27309SOL    HW182505   9.574   7.944   6.385  0.9639  0.2298  0.7503
27309SOL    HW282506   9.656   7.818   6.367  1.2382  0.3523  1.1413
27310SOL     OW82507   5.096   3.839   6.044 -0.0224 -0.0422  0.3604
27310SOL    HW182508   5.125   3.838   6.136  0.5123 -1.0323  0.1992
27310SOL    HW282509   5.001   3.844   6.049 -0.0034 -0.1711  0.9802
27311SOL     OW82510   0.291   8.128   8.386  0.0136  0.9343  0.0848
27311SOL    HW182511   0.319   8.211   8.349  0.9615  0.6070  0.0256
27311SOL    HW282512   0.347   8.063   8.344 -1.4483  0.1211 -0.6875
27312SOL     OW82513   3.234   9.307   3.701  0.4400 -0.6766  0.1678
27312SOL    HW182514   3.309   9.289   3.757  0.3309 -2.0578 -0.1060
27312SOL    HW282515   3.247   9.397   3.671  1.9327 -0.8654  0.2055
27313SOL     OW82516   2.585   1.520   6.649 -0.1371  0.5891  0.3127
27313SOL    HW182517   2.650   1.590   6.660 -0.0803  0.5219  0.3984
27313SOL    HW282518   2.637   1.440   6.643 -0.2839  0.2758  2.4075
27314SOL     OW82519   3.356   9.390   5.506 -0.3388 -0.1087 -0.4927
27314SOL    HW182520   3.386   9.431   5.587 -0.4926  1.0328 -0.9893
27314SOL    HW282521   3.302   9.316   5.535 -4.3013  2.8730  0.7124
27315SOL     OW82522   1.049   0.482   3.661  0.3377  0.2204  0.2198
27315SOL    HW182523   0.971   0.441   3.699  0.4886 -0.4061 -0.1235
27315SOL    HW282524   1.068   0.429   3.583  0.5929  0.8987 -0.1873
27316SOL     OW82525   2.100   4.334   0.646 -0.4481 -0.4035  0.0453
27316SOL    HW182526   2.017   4.291   0.625 -0.2131 -1.1904  0.6837
27316SOL    HW282527   2.076   4.408   0.701 -0.8879  0.5379 -1.3369
27317SOL     OW82528   1.101   8.839   8.909 -0.1926 -0.2933  0.4492
27317SOL    HW182529   1.136   8.903   8.846  0.1610  0.5249  1.4557
27317SOL    HW282530   1.079   8.763   8.855  0.7920  0.1076 -0.5676
27318SOL     OW82531   3.995   2.270   9.348 -0.2041 -0.1211 -0.0131
27318SOL    HW182532   3.997   2.246   9.255  1.4479 -0.8967  0.1833
27318SOL    HW282533   4.079   2.312   9.364 -0.3358 -0.2833  1.1980
27319SOL     OW82534   6.611   4.262   0.786 -0.6709 -1.3159 -0.5702
27319SOL    HW182535   6.564   4.295   0.862  0.5088  1.0042 -0.7771
27319SOL    HW282536   6.546   4.262   0.715 -0.5577  1.5467 -0.7800
27320SOL     OW82537   1.882   6.114   8.607  0.1537 -0.1980 -0.5709
27320SOL    HW182538   1.824   6.158   8.669  1.0987  0.3045 -0.0341
27320SOL    HW282539   1.918   6.185   8.554  0.8936 -0.4266 -0.3769
27321SOL     OW82540   9.480   0.829   6.585  0.4395  0.5238  0.1379
27321SOL    HW182541   9.452   0.826   6.494  1.2597  1.3882 -0.1441
27321SOL    HW282542   9.516   0.742   6.602  0.2634  0.3568 -0.3446
27322SOL     OW82543   4.275   4.508   5.147  0.2468 -0.6138 -0.2523
27322SOL    HW182544   4.239   4.466   5.070  0.6787 -2.6918  0.6129
27322SOL    HW282545   4.365   4.476   5.153  0.5822  0.4030  0.4843
27323SOL     OW82546   8.588   3.503   9.011 -0.5373  0.2522 -0.4648
27323SOL    HW182547   8.579   3.413   9.042 -1.2906  0.1290 -1.0046
27323SOL    HW282548   8.678   3.528   9.034 -0.8818  0.0080  1.3351
27324SOL     OW82549   7.738   5.779   5.373 -0.0641 -0.3287  0.3364
27324SOL    HW182550   7.695   5.697   5.398 -0.1231 -0.4412 -0.1197
27324SOL    HW282551   7.823   5.752   5.339 -0.8257 -0.4019 -1.6516
27325SOL     OW82552   0.029   1.873   0.263  0.6246  0.0031 -0.2574
27325SOL    HW182553  -0.013   1.789   0.244  1.0825 -0.5424  1.0520
27325SOL    HW282554   0.001   1.930   0.192  0.7442 -1.4023 -1.4939
27326SOL     OW82555   6.728   1.060   2.728 -0.0474  0.7963  0.3586
27326SOL    HW182556   6.823   1.059   2.737  0.3604  0.9176 -2.8055
27326SOL    HW282557   6.701   0.969   2.742  0.7937  0.4002 -0.4943
27327SOL     OW82558   0.660   8.142   4.856  0.0897 -0.2038  0.0853
27327SOL    HW182559   0.667   8.196   4.934 -1.4556  0.2896 -0.0898
27327SOL    HW282560   0.580   8.172   4.812  1.5659  0.4334 -2.3747
27328SOL     OW82561   3.004   0.655   7.082  0.6378  0.0674 -0.4463
27328SOL    HW182562   3.048   0.735   7.053  1.8490 -0.4659 -0.1230
27328SOL    HW282563   3.031   0.588   7.019 -0.0453 -0.1865 -0.4801
27329SOL     OW82564   1.947   9.392   3.131  0.4130 -0.0174 -0.0161
27329SOL    HW182565   2.029   9.406   3.179  1.3700 -0.4531 -1.4458
27329SOL    HW282566   1.888   9.459   3.165  1.1997  0.0019  1.3901
27330SOL     OW82567   4.531   2.595   9.673 -0.4656 -0.4366  0.1954
27330SOL    HW182568   4.615   2.609   9.715 -0.7320 -0.0114  0.5921
27330SOL    HW282569   4.482   2.676   9.688 -0.2815  0.0618 -1.6100
27331SOL     OW82570   2.130   8.007   9.640 -0.3789  0.4549 -0.0099
27331SOL    HW182571   2.086   7.929   9.609  1.5563 -1.0169  0.7477
27331SOL    HW282572   2.156   8.054   9.561  0.3978 -0.8395 -0.5460
27332SOL     OW82573   3.746   9.210   1.543  0.3510  0.1215  0.1292
27332SOL    HW182574   3.788   9.126   1.564  1.5871  0.6672 -0.0778
27332SOL    HW282575   3.816   9.275   1.553 -0.8651  1.2942  1.4427
27333SOL     OW82576   3.557   9.696   8.900 -0.1210  0.5653 -0.7559
27333SOL    HW182577   3.474   9.724   8.862 -0.5882 -0.2503 -0.3718
27333SOL    HW282578   3.536   9.678   8.992  0.2834 -0.4200 -0.8451
27334SOL     OW82579   1.874   2.097   4.222  0.0272 -0.2821  0.6933
27334SOL    HW182580   1.891   2.170   4.162  1.2836 -1.2039 -0.1288
27334SOL    HW282581   1.780   2.100   4.237 -0.0988  0.8788 -0.1570
27335SOL     OW82582   5.354   9.720   8.763 -0.5716  0.0518  0.3453
27335SOL    HW182583   5.403   9.652   8.811 -0.5769 -0.3365 -0.1859
27335SOL    HW282584   5.364   9.799   8.816 -0.2257 -0.2716  0.7690
27336SOL     OW82585   9.310   9.153   0.043  0.5103 -0.1058  0.4201
27336SOL    HW182586   9.362   9.114  -0.027 -0.1682  0.6566 -0.5382
27336SOL    HW282587   9.309   9.247   0.022 -0.9832 -0.0643  0.5803
27337SOL     OW82588   5.019   8.330   7.374 -0.2574  0.2370  0.8577
27337SOL    HW182589   5.059   8.414   7.395  2.0710  0.2901 -2.9224
27337SOL    HW282590   5.085   8.265   7.395  0.6721  0.0302 -2.1851
27338SOL     OW82591   3.344   7.900   6.886 -0.4744  0.5852 -0.2472
27338SOL    HW182592   3.384   7.854   6.960  0.7173  0.6300 -0.8429
27338SOL    HW282593   3.328   7.831   6.822 -0.2202  0.7567 -0.4945
27339SOL     OW82594   3.865   1.802   6.121 -0.1486 -0.3892  0.7924
27339SOL    HW182595   3.919   1.861   6.069 -0.3207 -1.6027 -0.8449
27339SOL    HW282596   3.908   1.801   6.207  1.8620 -0.5096 -0.1448
27340SOL     OW82597   5.265   7.828   4.918  0.8233  0.0944 -0.1661
27340SOL    HW182598   5.212   7.751   4.896  0.4360 -0.3480  2.0600
27340SOL    HW282599   5.353   7.793   4.934  0.9993  0.3405 -0.5763
27341SOL     OW82600   1.185   4.048   6.897  0.2290  0.4931 -0.0282
27341SOL    HW182601   1.132   4.084   6.968 -0.2636  1.7934 -1.0131
27341SOL    HW282602   1.271   4.033   6.937 -0.2686  0.4258  1.0413
27342SOL     OW82603   2.337   7.679   0.063  0.2151  0.0941 -0.1022
27342SOL    HW182604   2.426   7.684   0.098  0.7093  0.1499 -1.3032
27342SOL    HW282605   2.345   7.713  -0.027 -0.5571 -2.0642 -1.0535
27343SOL     OW82606   9.462   3.380   5.279  0.8052  0.4042  0.5370
27343SOL    HW182607   9.412   3.461   5.271  1.6725  0.8718 -0.3633
27343SOL    HW282608   9.395   3.311   5.280  0.1094  1.0406 -0.0849
27344SOL     OW82609   6.693   2.599   8.913 -0.1579 -0.0262  0.0108
27344SOL    HW182610   6.752   2.529   8.885  0.0790  0.0806  0.2398
27344SOL    HW282611   6.608   2.557   8.922 -0.2791 -0.0261 -1.0442
27345SOL     OW82612   3.545   3.579   0.284 -0.0050 -0.1550  0.1776
27345SOL    HW182613   3.482   3.507   0.285  0.3839 -0.4947  0.3562
27345SOL    HW282614   3.577   3.582   0.193 -2.0471  1.5917 -0.5938
27346SOL     OW82615   3.713   1.584   9.248  0.1198 -0.5497 -0.6901
27346SOL    HW182616   3.677   1.673   9.240 -0.0967 -0.6067 -0.3387
27346SOL    HW282617   3.713   1.566   9.342  2.4911  0.0380 -0.4911
27347SOL     OW82618   9.544   9.466   0.310 -0.4840 -0.6340  0.0493
27347SOL    HW182619   9.488   9.542   0.327  1.8005  0.8173  1.8568
27347SOL    HW282620   9.503   9.421   0.237 -2.2188  2.0967 -0.8081
27348SOL     OW82621   5.482   9.581   1.747 -0.5341  0.0815 -0.3586
27348SOL    HW182622   5.446   9.646   1.687  1.4885  1.1618 -0.4828
27348SOL    HW282623   5.503   9.630   1.826  0.7534 -0.4312 -0.3512
27349SOL     OW82624   3.582   1.611   5.463 -0.1146  0.1991  0.0363
27349SOL    HW182625   3.648   1.601   5.394  0.4729 -0.4926  0.6725
27349SOL    HW282626   3.530   1.686   5.436  1.6963  1.5694  0.1030
27350SOL     OW82627   0.866   1.737   2.189  0.1352 -0.7119 -0.2191
27350SOL    HW182628   0.929   1.683   2.141  1.3975  0.9877 -0.5711
27350SOL    HW282629   0.890   1.724   2.281  0.0878 -1.1620 -0.2689
27351SOL     OW82630   2.426   5.705   1.237 -0.3770  0.1577 -0.4819
27351SOL    HW182631   2.341   5.728   1.201 -0.0153  1.1997 -0.6872
27351SOL    HW282632   2.489   5.740   1.175  0.2268  0.6896  0.4048
27352SOL     OW82633   0.134   7.692   7.619 -0.0725 -0.5881  0.1626
27352SOL    HW182634   0.090   7.663   7.539  3.0316 -1.0366 -1.5282
27352SOL    HW282635   0.198   7.757   7.588  1.2726 -0.8346  2.2634
27353SOL     OW82636   3.717   0.967   7.156  0.4433 -0.3198  0.0304
27353SOL    HW182637   3.780   1.036   7.175 -0.5603  1.1192 -1.5850
27353SOL    HW282638   3.766   0.903   7.105  0.7465  0.5375 -0.7819
27354SOL     OW82639   8.878   3.002   2.423  0.1010  0.5828 -0.8784
27354SOL    HW182640   8.844   3.029   2.338  1.7890  0.8229 -1.5191
27354SOL    HW282641   8.924   3.079   2.456 -1.6238  0.9241  0.8923
27355SOL     OW82642   7.106   7.716   9.700  0.6538  0.3964  0.3078
27355SOL    HW182643   7.144   7.644   9.649  4.0443  1.9930  0.2711
27355SOL    HW282644   7.082   7.782   9.635 -1.3467 -0.1578  0.4246
27356SOL     OW82645   9.362   8.883   8.115 -0.0198 -0.3611 -0.0702
27356SOL    HW182646   9.453   8.904   8.093 -0.9401  3.2653 -1.1684
27356SOL    HW282647   9.364   8.864   8.209  1.5536  2.8631  0.6953
27357SOL     OW82648   5.548   8.385   3.910 -0.7593  0.2610 -0.4474
27357SOL    HW182649   5.616   8.338   3.958 -0.2425  0.5211 -0.9195
27357SOL    HW282650   5.469   8.374   3.964 -0.3976 -0.2225 -0.0063
27358SOL     OW82651   7.661   6.061   2.355 -0.0719 -0.0028 -0.3409
27358SOL    HW182652   7.742   6.110   2.341  0.0524 -0.4160 -1.1185
27358SOL    HW282653   7.690   5.971   2.372 -0.3886 -0.5420 -2.3538
27359SOL     OW82654   8.414   2.050   4.417  0.2996 -0.0293  0.0011
27359SOL    HW182655   8.362   2.109   4.362  0.3080 -0.4014 -0.4097
27359SOL    HW282656   8.444   1.982   4.357  0.4802 -0.3265  0.4286
27360SOL     OW82657   7.129   8.478   7.200  0.1156 -0.0133 -0.4779
27360SOL    HW182658   7.151   8.479   7.107 -0.9835  0.0738 -0.7489
27360SOL    HW282659   7.179   8.551   7.237  2.2340 -1.3262 -0.5685
27361SOL     OW82660   3.961   6.789   3.427  0.1965  0.0245  0.3420
27361SOL    HW182661   4.022   6.842   3.377  0.7517 -1.6527 -0.8394
27361SOL    HW282662   3.874   6.814   3.395  0.4281  0.3893 -0.0036
27362SOL     OW82663   9.157   4.428   9.110  0.2230 -0.0210  0.0545
27362SOL    HW182664   9.190   4.378   9.035 -0.1002  0.1766 -0.2260
27362SOL    HW282665   9.222   4.497   9.123 -0.0143  0.2974 -0.4216
27363SOL     OW82666   3.095   1.121   9.465 -0.1001  0.3427 -0.4743
27363SOL    HW182667   3.138   1.162   9.390 -1.4785  1.7566 -0.5504
27363SOL    HW282668   3.075   1.032   9.436  1.7512  0.0127 -0.8134
27364SOL     OW82669   1.691   5.670   5.438 -0.1163  0.8351 -0.4785
27364SOL    HW182670   1.610   5.722   5.432 -1.1711 -0.5561  0.9996
27364SOL    HW282671   1.715   5.673   5.530  0.0318 -0.9063 -0.4274
27365SOL     OW82672   8.769   8.307   4.752 -0.3247  0.2279  0.0549
27365SOL    HW182673   8.814   8.355   4.683 -1.3559  1.0181 -0.0941
27365SOL    HW282674   8.800   8.347   4.833 -0.6584  0.6907 -0.0414
27366SOL     OW82675   6.746   8.627   1.049  0.2497  0.1532 -0.8666
27366SOL    HW182676   6.706   8.540   1.058  0.7550 -0.1861 -1.6927
27366SOL    HW282677   6.715   8.659   0.964  0.5534  0.5140 -0.8445
27367SOL     OW82678   1.615   3.883   4.300 -0.1612  0.4088 -0.2891
27367SOL    HW182679   1.706   3.898   4.274 -0.3011  1.8872 -0.0192
27367SOL    HW282680   1.600   3.945   4.372 -0.7754 -1.2610  1.0847
27368SOL     OW82681   4.790   3.355   3.661  0.2409  0.1453 -0.2711
27368SOL    HW182682   4.842   3.298   3.718 -1.7467 -1.3632  0.1446
27368SOL    HW282683   4.812   3.326   3.572  2.9102  2.1176 -0.3943
27369SOL     OW82684   3.248   6.243   0.815  0.8163 -0.0275  0.2048
27369SOL    HW182685   3.182   6.299   0.856 -1.7830 -4.0004  1.9750
27369SOL    HW282686   3.329   6.262   0.863  0.1950  2.3633  0.4433
27370SOL     OW82687   0.773   4.773   7.931 -0.8525 -0.0609 -0.3743
27370SOL    HW182688   0.732   4.854   7.961  1.1680  0.5031  1.0980
27370SOL    HW282689   0.862   4.776   7.966 -0.5003 -2.6469 -0.7838
27371SOL     OW82690   4.127   6.046   7.355  0.8696 -0.4478  0.3744
27371SOL    HW182691   4.109   6.111   7.287 -2.0370  0.3713  1.7880
27371SOL    HW282692   4.117   5.962   7.311 -0.4122  0.0735 -0.3839
27372SOL     OW82693   6.089   9.968   3.714 -0.6774  0.0566 -0.6733
27372SOL    HW182694   6.091   9.896   3.777  1.5838 -0.2719 -1.0536
27372SOL    HW282695   6.004   9.959   3.670 -1.1155 -1.3697  0.3968
27373SOL     OW82696   5.876   8.969   7.455 -0.1744  0.0310  0.0480
27373SOL    HW182697   5.921   8.998   7.535  1.2070  1.4096 -1.1361
27373SOL    HW282698   5.808   9.035   7.441  1.7559  1.8205 -1.6354
27374SOL     OW82699   4.607   7.395   5.119 -0.1428 -0.1396  0.2311
27374SOL    HW182700   4.606   7.477   5.168  0.0325  0.4021 -0.6442
27374SOL    HW282701   4.600   7.422   5.028  0.9422 -1.0493 -0.1341
27375SOL     OW82702   2.136   7.434   9.249  0.3869 -0.3529 -0.8196
27375SOL    HW182703   2.089   7.361   9.289  0.2252 -1.5768 -3.1272
27375SOL    HW282704   2.228   7.410   9.257  0.3894 -0.2934 -0.6543
27376SOL     OW82705   4.459   0.426   4.858  0.0312  0.4436 -0.1048
27376SOL    HW182706   4.546   0.408   4.896 -0.3127 -0.8978  0.0957
27376SOL    HW282707   4.401   0.362   4.899 -1.2750  1.9405  0.4915
27377SOL     OW82708   9.756   3.228   5.655  0.3246 -0.0512 -0.0532
27377SOL    HW182709   9.740   3.282   5.578  0.7443  1.0437  0.5951
27377SOL    HW282710   9.734   3.285   5.729 -3.5851 -2.1266  0.7061
27378SOL     OW82711   5.043   8.354   9.399 -0.3461  0.2857 -0.6457
27378SOL    HW182712   5.129   8.313   9.404 -0.5680 -0.0420  0.7312
27378SOL    HW282713   5.022   8.379   9.489 -1.6486  0.4579 -0.9694
27379SOL     OW82714   0.356   6.549   6.188  0.4135 -0.5204 -0.3924
27379SOL    HW182715   0.372   6.545   6.283 -0.8955  1.3063 -0.0292
27379SOL    HW282716   0.411   6.621   6.157 -0.8396  0.4056 -0.5672
27380SOL     OW82717   4.556   9.006   2.131 -0.0381 -0.0799 -0.3743
27380SOL    HW182718   4.494   9.072   2.161  0.3274  0.9413 -1.7500
27380SOL    HW282719   4.590   8.967   2.211 -0.9002  0.7983  0.4522
27381SOL     OW82720   5.764   3.190   3.353 -0.4509  0.3884  0.1830
27381SOL    HW182721   5.700   3.171   3.421 -0.5132 -0.5320 -0.1166
27381SOL    HW282722   5.716   3.241   3.288 -0.6426  0.4676  0.3880
27382SOL     OW82723   9.755   3.770   5.932  0.6067 -0.4266 -0.7384
27382SOL    HW182724   9.813   3.778   5.856 -0.5119 -0.0949 -1.5816
27382SOL    HW282725   9.814   3.760   6.007  1.8821  2.6166 -1.1867
27383SOL     OW82726   0.223   9.796   7.060 -0.2869 -0.0318  0.1782
27383SOL    HW182727   0.220   9.890   7.046 -0.1411  0.2943  2.0303
27383SOL    HW282728   0.148   9.761   7.012 -1.0426  1.1813  0.4444
27384SOL     OW82729   9.616   5.696   3.839  0.0672 -0.3509 -0.5394
27384SOL    HW182730   9.610   5.683   3.744  0.7231 -3.3687 -0.2791
27384SOL    HW282731   9.706   5.726   3.853  0.3456 -1.0356 -0.8096
27385SOL     OW82732   4.218   4.743   5.303  0.3890  0.4619 -0.1517
27385SOL    HW182733   4.156   4.721   5.372  2.7607  0.9946  2.2857
27385SOL    HW282734   4.238   4.659   5.262 -0.7284  0.0748  0.0505
27386SOL     OW82735   2.053   1.191   0.463 -0.5141 -0.5057  0.1298
27386SOL    HW182736   2.116   1.262   0.480  0.7439 -1.1930 -1.3665
27386SOL    HW282737   2.044   1.146   0.547  0.2000  0.2425  0.6288
27387SOL     OW82738   7.715   8.248   8.807  0.0436  0.4132 -0.3564
27387SOL    HW182739   7.779   8.288   8.747  0.6516  0.4320  0.2995
27387SOL    HW282740   7.660   8.321   8.835 -1.6494  0.0978 -2.5390
27388SOL     OW82741   9.335   4.761   5.995 -0.3352 -0.1138  0.0691
27388SOL    HW182742   9.247   4.731   5.972  0.5910 -2.5961 -0.5931
27388SOL    HW282743   9.344   4.739   6.088 -0.3795  0.0942  0.1238
27389SOL     OW82744   0.797   6.468   2.054 -0.1741  0.8697  0.2105
27389SOL    HW182745   0.733   6.398   2.069 -1.0796  1.8295  0.9120
27389SOL    HW282746   0.767   6.512   1.975 -0.8321  1.7780  0.9403
27390SOL     OW82747   0.495   9.456   4.181 -0.0163  0.2367  0.8480
27390SOL    HW182748   0.539   9.401   4.115 -1.6929 -1.8385  1.3548
27390SOL    HW282749   0.523   9.545   4.160  1.8820 -0.6627 -0.7803
27391SOL     OW82750   4.212   0.913   2.876  0.0932 -0.1643 -0.4022
27391SOL    HW182751   4.256   0.998   2.878 -0.8869  0.3722 -0.7631
27391SOL    HW282752   4.278   0.850   2.907  0.3490  0.9428  1.4703
27392SOL     OW82753   8.544   8.196   6.620 -0.4010 -0.4172 -0.2141
27392SOL    HW182754   8.621   8.147   6.650  0.1258 -1.0745 -2.4563
27392SOL    HW282755   8.498   8.220   6.701  2.6396  0.8703  1.2981
27393SOL     OW82756   4.702   0.707   6.884  0.3677  0.1330  0.2850
27393SOL    HW182757   4.760   0.640   6.920  0.3156  0.1367  0.3764
27393SOL    HW282758   4.752   0.788   6.889  0.2775  0.1715  0.5541
27394SOL     OW82759   7.193   5.317   4.231 -0.0083  0.1169  0.0478
27394SOL    HW182760   7.158   5.397   4.192 -0.6464 -0.7472 -1.2163
27394SOL    HW282761   7.261   5.288   4.171 -0.4369 -0.7935 -0.0194
27395SOL     OW82762   5.234   0.041   9.444  0.0511 -0.1172 -0.2667
27395SOL    HW182763   5.200   0.082   9.365 -0.4608 -1.2226 -0.6251
27395SOL    HW282764   5.214  -0.052   9.435 -2.1120  0.0004  2.2096
27396SOL     OW82765   2.247   9.400   1.828 -0.2886 -0.0443  0.2790
27396SOL    HW182766   2.225   9.493   1.828  0.2065  0.0800  0.8693
27396SOL    HW282767   2.343   9.399   1.823 -0.3466 -0.5430 -1.0884
27397SOL     OW82768   3.158   6.304   1.116 -0.8871 -0.6245 -0.9697
27397SOL    HW182769   3.231   6.364   1.132 -0.1461 -0.6034 -3.7828
27397SOL    HW282770   3.080   6.360   1.115 -0.4515 -0.0199 -1.5882
27398SOL     OW82771   5.933   8.553   2.264 -0.3192  0.3944 -0.4220
27398SOL    HW182772   5.907   8.624   2.205  0.3753  0.6158 -0.4701
27398SOL    HW282773   5.859   8.544   2.323 -0.2731  1.4201 -0.1781
27399SOL     OW82774   0.615   6.674   2.142 -0.0537 -0.1060  0.4194
27399SOL    HW182775   0.680   6.627   2.091 -0.0466  0.9256 -0.5651
27399SOL    HW282776   0.531   6.648   2.105 -0.1052 -0.0874  0.5210
27400SOL     OW82777   6.177   0.632   0.789 -0.2311  0.9282  0.1529
27400SOL    HW182778   6.203   0.540   0.787  0.4251  1.0870  0.9163
27400SOL    HW282779   6.256   0.679   0.815  0.0151  1.9330 -2.1936
27401SOL     OW82780   5.096   8.144   8.850 -0.1030 -0.2579 -0.2249
27401SOL    HW182781   5.112   8.070   8.908  2.0288  1.8511  2.0545
27401SOL    HW282782   5.170   8.143   8.789  0.3017  0.3898  0.2527
27402SOL     OW82783   2.188   2.437   3.119 -0.2257  0.1026  0.1191
27402SOL    HW182784   2.105   2.435   3.167  0.3084  1.5264  1.1657
27402SOL    HW282785   2.233   2.515   3.152  0.9397  0.1295 -1.4334
27403SOL     OW82786   6.720   4.167   2.805 -0.1387  0.2243 -0.2792
27403SOL    HW182787   6.667   4.089   2.823  0.8976 -0.8713 -1.6637
27403SOL    HW282788   6.691   4.196   2.718 -0.1557  1.0831  0.0058
27404SOL     OW82789   5.363   2.895   6.387  0.0769 -0.2311 -0.0218
27404SOL    HW182790   5.366   2.984   6.352 -1.0540 -0.6191 -1.1576
27404SOL    HW282791   5.372   2.907   6.482  2.2206  0.9081 -0.2939
27405SOL     OW82792   8.747   7.132   0.123 -0.1011 -0.4084 -0.7489
27405SOL    HW182793   8.748   7.181   0.205  0.2188  1.0502 -1.5856
27405SOL    HW282794   8.822   7.073   0.129 -0.1456 -0.4021  0.0429
27406SOL     OW82795   4.484   8.678   5.233 -0.5687 -0.4581 -0.1860
27406SOL    HW182796   4.490   8.773   5.219  0.6800 -0.6840 -1.5179
27406SOL    HW282797   4.407   8.667   5.288  0.5952  1.5206  2.0670
27407SOL     OW82798   7.667   5.627   3.430 -0.2571  0.4389  0.7715
27407SOL    HW182799   7.585   5.646   3.476 -1.2931  0.2047 -0.9020
27407SOL    HW282800   7.657   5.669   3.345  0.2906 -1.6566 -0.4104
27408SOL     OW82801   8.623   3.469   3.008  0.0169  0.3494  0.2943
27408SOL    HW182802   8.597   3.561   2.996  0.9676  0.7811  1.3671
27408SOL    HW282803   8.706   3.473   3.055 -0.6147 -1.0758  1.6413
27409SOL     OW82804   1.600   8.322   9.157  0.2041  0.5045 -0.1498
27409SOL    HW182805   1.556   8.293   9.077 -1.6754 -0.2862  1.1151
27409SOL    HW282806   1.584   8.416   9.161  0.5749  0.6083 -0.8256
27410SOL     OW82807   7.368   4.202   8.722 -0.0454  0.6493  0.4083
27410SOL    HW182808   7.309   4.262   8.769 -0.4206 -1.9889  3.6897
27410SOL    HW282809   7.440   4.187   8.784  0.0588 -2.1410 -0.2659
27411SOL     OW82810   6.961   5.622   7.554  0.4248  0.1925  0.0960
27411SOL    HW182811   6.894   5.596   7.491  2.4787 -0.7936 -1.8198
27411SOL    HW282812   6.950   5.561   7.627  0.4150 -1.2350 -1.0468
27412SOL     OW82813   6.946   5.300   3.649 -0.2691  0.0763 -0.0271
27412SOL    HW182814   6.869   5.253   3.681 -1.1454  0.2919 -1.6915
27412SOL    HW282815   6.947   5.381   3.701 -1.6089  0.3966 -0.4384
27413SOL     OW82816   9.870   0.098   1.615 -0.0581 -0.4941 -0.1402
27413SOL    HW182817   9.798   0.112   1.676  0.3838  0.0243  0.2719
27413SOL    HW282818   9.945   0.141   1.656  0.3469 -0.5139 -0.8440
27414SOL     OW82819   0.205   4.692   8.624 -0.1110  0.0836  0.4218
27414SOL    HW182820   0.248   4.610   8.602 -0.0107  0.3596 -0.4250
27414SOL    HW282821   0.129   4.666   8.677 -0.2374 -0.5724 -0.0784
27415SOL     OW82822   0.282   0.307   3.293  0.2311 -0.4300  1.0620
27415SOL    HW182823   0.195   0.344   3.305 -0.7753 -1.3397 -2.3809
27415SOL    HW282824   0.273   0.216   3.323  0.6709  0.0507  2.7428
27416SOL     OW82825   5.521   3.622   3.480 -0.4610  0.1081  0.5875
27416SOL    HW182826   5.595   3.589   3.531  1.2048  1.4861 -0.8365
27416SOL    HW282827   5.450   3.632   3.544  0.3594 -1.7990  1.8831
27417SOL     OW82828   7.867   1.061   5.628  0.2535 -0.0579  0.5920
27417SOL    HW182829   7.806   0.995   5.595  2.7713 -2.3441  0.0297
27417SOL    HW282830   7.908   1.097   5.549 -0.2792  1.3648  0.9513
27418SOL     OW82831   0.238   7.318   0.838 -0.9904 -0.4546 -0.2679
27418SOL    HW182832   0.266   7.343   0.750  0.2562 -0.6606  0.0386
27418SOL    HW282833   0.207   7.399   0.877 -1.8556 -0.4227 -0.9888
27419SOL     OW82834   5.770   8.041   1.282  0.6318  0.5580  0.0875
27419SOL    HW182835   5.753   8.063   1.374  0.2204  1.4938 -0.1973
27419SOL    HW282836   5.848   8.091   1.259  3.0986 -2.5537  0.9528
27420SOL     OW82837   6.255   0.514   3.259 -0.2098  0.2235 -0.5274
27420SOL    HW182838   6.336   0.465   3.266 -0.7771 -0.4934  1.9606
27420SOL    HW282839   6.187   0.452   3.285 -1.2833  1.4423 -0.3164
27421SOL     OW82840   4.998   6.856   6.567  0.8013  0.2773  0.3405
27421SOL    HW182841   5.083   6.854   6.522  1.5458 -1.9927  1.6718
27421SOL    HW282842   4.951   6.781   6.531  0.5017 -0.1753  1.6324
27422SOL     OW82843   4.359   1.741   0.656  0.2194 -0.3499  0.1482
27422SOL    HW182844   4.417   1.720   0.584 -0.9794  1.1698 -1.3537
27422SOL    HW282845   4.363   1.836   0.663 -2.3047 -0.1460 -0.2794
27423SOL     OW82846   3.636   0.973   6.162  0.2245  0.9533  0.0565
27423SOL    HW182847   3.725   0.991   6.129  0.0100  4.2051  0.8955
27423SOL    HW282848   3.644   0.981   6.257 -0.8400  0.3647  0.2092
27424SOL     OW82849   9.273   2.021   3.783  0.0364 -0.4183 -0.2769
27424SOL    HW182850   9.355   2.030   3.832 -0.0487 -1.0340 -0.0102
27424SOL    HW282851   9.290   1.951   3.720  0.1804  0.4433 -1.2173
27425SOL     OW82852   1.497   4.828   6.375  0.2848  0.0463  1.0576
27425SOL    HW182853   1.411   4.784   6.373  0.8787 -1.1271  0.4736
27425SOL    HW282854   1.511   4.848   6.467 -0.8572  0.7499  1.0969
27426SOL     OW82855   5.025   4.513   6.845  0.3468  0.1731  0.0810
27426SOL    HW182856   4.993   4.455   6.776  0.5562  0.7129 -0.4750
27426SOL    HW282857   5.101   4.556   6.807  1.3057 -0.5314  1.1173
27427SOL     OW82858   2.181   0.645   4.265 -0.3334  0.3234  0.3424
27427SOL    HW182859   2.244   0.573   4.276  0.1412  0.7330  0.3565
27427SOL    HW282860   2.101   0.614   4.308  0.0484  0.0365  0.8556
27428SOL     OW82861   7.563   2.676   9.641  0.1234 -0.5739 -0.0607
27428SOL    HW182862   7.572   2.770   9.625  1.4927 -0.2513  2.1753
27428SOL    HW282863   7.468   2.660   9.640 -0.0827  0.3160 -2.7302
27429SOL     OW82864   3.777   1.986   3.310 -0.3009  0.0578 -0.4045
27429SOL    HW182865   3.834   2.008   3.384 -0.9423  0.9156 -0.1462
27429SOL    HW282866   3.735   2.069   3.288 -1.7854 -0.6484 -0.3054
27430SOL     OW82867   4.398   7.673   4.269  0.2312  0.1577  0.0811
27430SOL    HW182868   4.327   7.687   4.332 -0.3949 -0.5016 -0.4669
27430SOL    HW282869   4.379   7.588   4.230 -0.2910  1.2397 -2.1738
27431SOL     OW82870   3.041   0.348   5.738 -0.0202  0.6239  0.0069
27431SOL    HW182871   3.129   0.325   5.768 -0.1984  1.5348  1.3330
27431SOL    HW282872   3.013   0.417   5.799 -1.3618  0.8641 -0.8505
27432SOL     OW82873   6.545   7.478   5.124 -0.1068 -0.4388  0.0823
27432SOL    HW182874   6.592   7.442   5.049 -1.0211  1.5455 -1.5118
27432SOL    HW282875   6.578   7.567   5.133 -1.2049 -0.1047  1.0114
27433SOL     OW82876   9.935   7.424   8.903 -0.2531 -0.6644  0.4912
27433SOL    HW182877   9.987   7.503   8.889 -1.1320 -0.0364  0.6774
27433SOL    HW282878   9.946   7.374   8.822 -1.5432  0.7405 -0.6231
27434SOL     OW82879   1.913   5.276   9.451  0.7114 -0.2895  0.0052
27434SOL    HW182880   2.000   5.258   9.416  0.0446 -0.8520 -1.4482
27434SOL    HW282881   1.873   5.334   9.387 -0.5718 -1.3921 -0.2459
27435SOL     OW82882   5.841   9.146   4.193  0.2491  0.4406  0.0452
27435SOL    HW182883   5.894   9.225   4.195 -0.1740  0.7459 -0.5750
27435SOL    HW282884   5.751   9.176   4.201  0.1148 -0.0272  0.4038
27436SOL     OW82885   5.827   1.360   5.227  0.1923  0.0780 -0.2026
27436SOL    HW182886   5.778   1.340   5.306  0.4729  1.1208  0.2431
27436SOL    HW282887   5.763   1.401   5.169  0.6929  2.3325  0.7414
27437SOL     OW82888   8.510   7.476   7.743 -0.2766 -0.3421  0.2725
27437SOL    HW182889   8.448   7.415   7.783 -0.1880  0.3509  1.4858
27437SOL    HW282890   8.539   7.430   7.664 -2.0513 -0.8369 -0.1461
27438SOL     OW82891   5.586   3.445   1.653 -0.4521 -0.0758 -0.6250
27438SOL    HW182892   5.669   3.444   1.701 -0.4022  0.5083 -0.6978
27438SOL    HW282893   5.611   3.466   1.563 -0.7654  0.9730 -0.4721
27439SOL     OW82894   3.672   7.448   7.373  0.5565  0.3076 -0.0539
27439SOL    HW182895   3.766   7.438   7.383  0.8459  0.0941 -2.3938
27439SOL    HW282896   3.652   7.532   7.413  2.0406  1.1384 -0.9919
27440SOL     OW82897   0.961   8.892   0.607 -0.1939 -0.3268 -0.2346
27440SOL    HW182898   0.973   8.925   0.697 -0.7830 -2.0169  0.4990
27440SOL    HW282899   0.867   8.883   0.597 -0.1377 -0.0162 -1.0829
27441SOL     OW82900   0.298   9.572   5.915 -0.0657 -0.1292 -0.2841
27441SOL    HW182901   0.299   9.607   5.826 -0.9770  1.9773  0.4662
27441SOL    HW282902   0.212   9.530   5.923  0.3011 -0.9608 -0.6028
27442SOL     OW82903   3.745   4.850   1.786 -0.2026  0.3543  0.0710
27442SOL    HW182904   3.720   4.933   1.824  1.2310  1.7165 -1.7543
27442SOL    HW282905   3.827   4.826   1.830 -0.5500 -0.0475  0.5092
27443SOL     OW82906   2.721   3.128   2.800 -0.2976  0.3780 -0.5451
27443SOL    HW182907   2.785   3.139   2.870  1.7873 -1.1289 -2.0693
27443SOL    HW282908   2.761   3.173   2.725 -1.1104 -0.4407 -1.4904
27444SOL     OW82909   3.327   3.007   4.805 -0.3335  0.5361  0.0012
27444SOL    HW182910   3.297   2.944   4.870 -0.5297  0.3488 -0.2665
27444SOL    HW282911   3.423   3.000   4.806 -0.3818 -1.4827 -1.6658
27445SOL     OW82912   2.183   8.089   1.367 -0.1653 -0.5030  0.0933
27445SOL    HW182913   2.240   8.105   1.291 -1.0355  0.6170 -0.3587
27445SOL    HW282914   2.109   8.148   1.353 -0.7491 -0.9066  1.3940
27446SOL     OW82915   2.013   7.457   3.956  0.6706  1.1310  0.1814
27446SOL    HW182916   2.046   7.404   3.884  0.8676 -2.2155  2.4918
27446SOL    HW282917   1.919   7.466   3.939  0.7825  0.7259 -0.6733
27447SOL     OW82918   4.324   8.580   6.169  0.4217 -0.0398 -0.3800
27447SOL    HW182919   4.407   8.551   6.132 -1.1429 -4.2396 -1.2040
27447SOL    HW282920   4.298   8.654   6.114  2.5182 -0.1731 -1.6526
27448SOL     OW82921   0.718   2.568   3.770 -0.5261  0.4025  0.1600
27448SOL    HW182922   0.674   2.483   3.772  1.4028 -0.6658 -0.3032
27448SOL    HW282923   0.732   2.590   3.862 -0.5260 -0.0624  0.2722
27449SOL     OW82924   7.341   4.184   0.284  0.4005 -0.6513  0.1588
27449SOL    HW182925   7.374   4.246   0.219 -1.3718 -0.9158 -1.0610
27449SOL    HW282926   7.419   4.139   0.316  1.7279  1.9292  0.8501
27450SOL     OW82927   0.252   3.617   2.417  0.9874 -0.4036 -0.2390
27450SOL    HW182928   0.162   3.588   2.407  1.2644 -1.0025 -1.0618
27450SOL    HW282929   0.245   3.713   2.422  0.3501 -0.4125 -0.7813
27451SOL     OW82930   2.187   0.777   5.331 -0.5953 -0.0012  0.0100
27451SOL    HW182931   2.263   0.835   5.343 -0.2431 -0.5236  0.3119
27451SOL    HW282932   2.154   0.799   5.244  0.3744 -0.3086 -0.4461
27452SOL     OW82933   3.780   9.696   7.900  0.2203 -0.8832  0.1821
27452SOL    HW182934   3.863   9.678   7.855  1.7850  0.3446  2.3692
27452SOL    HW282935   3.775   9.629   7.969  0.0902 -0.1835  0.8730
27453SOL     OW82936   4.602   5.523   8.690  0.3830  0.2270 -0.5354
27453SOL    HW182937   4.641   5.584   8.627  0.7922  1.1835  0.6041
27453SOL    HW282938   4.625   5.436   8.657  0.2321  0.6825 -1.9156
27454SOL     OW82939   4.138   9.246   8.923  0.1361 -0.1902 -0.3615
27454SOL    HW182940   4.228   9.232   8.893  0.4011 -0.8582  0.6880
27454SOL    HW282941   4.148   9.289   9.008 -0.5945  1.7440 -1.2093
27455SOL     OW82942   1.506   1.050   7.541  0.4443  0.6922 -0.3556
27455SOL    HW182943   1.583   1.107   7.542  0.5426  0.5721 -0.9876
27455SOL    HW282944   1.458   1.075   7.462 -0.8482  1.6501  0.6937
27456SOL     OW82945   9.314   6.626   0.566  0.2693  0.4632 -0.4319
27456SOL    HW182946   9.402   6.656   0.590  0.3697 -0.5309  0.4903
27456SOL    HW282947   9.267   6.707   0.545  0.5026  1.3412  2.0748
27457SOL     OW82948   6.796   5.589   8.136  0.0470  0.0128 -0.4984
27457SOL    HW182949   6.824   5.549   8.219 -1.6633 -1.1645 -0.4458
27457SOL    HW282950   6.710   5.551   8.118 -0.1477  1.1411 -2.2285
27458SOL     OW82951   7.240   0.128   3.260  0.0211  0.0631 -0.7166
27458SOL    HW182952   7.308   0.115   3.326  0.6303  0.5593 -1.2273
27458SOL    HW282953   7.288   0.157   3.182 -0.6388 -0.7740 -1.4699
27459SOL     OW82954   3.541   3.326   2.600 -0.0144 -0.9211 -0.8831
27459SOL    HW182955   3.630   3.292   2.585  0.3835  0.0340 -0.7526
27459SOL    HW282956   3.491   3.249   2.626  0.7663 -1.4873 -0.9899
27460SOL     OW82957   1.437   5.899   4.205 -0.3990  0.3278 -0.2140
27460SOL    HW182958   1.493   5.893   4.283  0.9485 -0.0209 -1.1731
27460SOL    HW282959   1.439   5.992   4.181  1.1860  0.0799 -1.2020
27461SOL     OW82960   7.571   7.380   6.276  0.2852 -0.6229 -0.0609
27461SOL    HW182961   7.660   7.399   6.247  0.1490 -1.8395 -1.3192
27461SOL    HW282962   7.544   7.303   6.226 -1.0328 -1.0299  1.1924
27462SOL     OW82963   1.528   6.495   5.778  0.0255  0.0501  0.4075
27462SOL    HW182964   1.496   6.498   5.869  0.4778  0.3659  0.5609
27462SOL    HW282965   1.585   6.418   5.776  0.8616  0.6465  0.6847
27463SOL     OW82966   8.474   9.774   5.288 -0.2126  0.4871  0.3385
27463SOL    HW182967   8.436   9.855   5.254  2.2854  1.2802 -0.8116
27463SOL    HW282968   8.525   9.738   5.215 -1.2829 -2.2314  0.7778
27464SOL     OW82969   0.530   1.236   6.287  0.0412 -0.2021 -0.4010
27464SOL    HW182970   0.547   1.305   6.351 -1.9955 -0.0994  0.0808
27464SOL    HW282971   0.609   1.182   6.290  0.8560  0.9694  0.6586
27465SOL     OW82972   7.215   3.770   6.934 -0.0485 -0.1922 -0.7523
27465SOL    HW182973   7.286   3.821   6.897 -0.4325  1.6974  0.9376
27465SOL    HW282974   7.136   3.823   6.918 -0.5475 -0.5118  0.4759
27466SOL     OW82975   1.373   0.816   7.572 -0.4356  0.3391 -0.3777
27466SOL    HW182976   1.310   0.842   7.505 -0.0022  0.1766 -0.8561
27466SOL    HW282977   1.431   0.891   7.580 -0.2814  0.2282 -0.4386
27467SOL     OW82978   0.624   8.557   7.777 -0.5586 -0.4332  0.1234
27467SOL    HW182979   0.539   8.599   7.761 -0.5131 -0.0461  0.8738
27467SOL    HW282980   0.679   8.626   7.813  0.4767 -0.3745 -1.5085
27468SOL     OW82981   6.567   4.537   9.560 -0.1272  0.2615  0.0195
27468SOL    HW182982   6.547   4.457   9.608  1.1953  0.6437  1.2834
27468SOL    HW282983   6.646   4.571   9.602  1.4253  0.3638 -2.7484
27469SOL     OW82984   0.439   4.174   8.227  0.2468 -0.0100  0.4419
27469SOL    HW182985   0.519   4.213   8.193  0.3745  0.6893  1.4868
27469SOL    HW282986   0.386   4.248   8.255  0.4790 -0.5374  2.4432
27470SOL     OW82987   3.068   0.256   7.319 -0.0585  0.5820  0.7990
27470SOL    HW182988   3.151   0.279   7.361  0.0318  1.4677  0.1638
27470SOL    HW282989   3.035   0.182   7.369  1.8460 -0.7734  0.1485
27471SOL     OW82990   8.165   2.744   7.962  0.1400 -0.2028 -0.3867
27471SOL    HW182991   8.225   2.685   7.915  1.5332 -0.4411  1.5641
27471SOL    HW282992   8.131   2.691   8.034 -0.8478  0.5556 -0.2770
27472SOL     OW82993   7.660   9.516   2.193 -0.7039 -0.4370 -0.3447
27472SOL    HW182994   7.655   9.600   2.238  1.3810 -1.4569  2.0503
27472SOL    HW282995   7.583   9.468   2.224 -0.6558 -0.2060  0.1553
27473SOL     OW82996   0.143   8.492   4.267  0.2367  0.1445 -0.0755
27473SOL    HW182997   0.218   8.476   4.210  0.3265 -3.0023  0.7410
27473SOL    HW282998   0.116   8.405   4.296 -1.6132  1.4059  2.3750
27474SOL     OW82999   7.254   6.596   2.147  0.0604  0.2899 -0.1080
27474SOL    HW183000   7.285   6.525   2.090 -0.6322 -0.0898 -0.0235
27474SOL    HW283001   7.218   6.661   2.087 -1.1590 -0.3459 -0.1156
27475SOL     OW83002   6.998   7.452   6.529  0.1027 -0.3659  0.1275
27475SOL    HW183003   7.083   7.450   6.484  0.7057 -0.6451  1.2584
27475SOL    HW283004   7.016   7.497   6.612 -1.0381  0.3170  0.0293
27476SOL     OW83005   6.187   2.261   4.251 -0.3552 -0.1682  0.5339
27476SOL    HW183006   6.122   2.269   4.181  0.1809 -0.7913 -0.0498
27476SOL    HW283007   6.157   2.322   4.319 -0.8222  0.5296 -0.2785
27477SOL     OW83008   4.260   9.813   4.704  0.3163  0.3734  0.0580
27477SOL    HW183009   4.347   9.828   4.667  0.8837  1.8543  1.8306
27477SOL    HW283010   4.209   9.891   4.680 -0.3294 -0.1883 -0.4251
27478SOL     OW83011   4.242   3.438   6.357  0.7344  0.0983  0.1505
27478SOL    HW183012   4.232   3.393   6.441 -2.9578 -1.0051 -0.7108
27478SOL    HW283013   4.196   3.521   6.368 -0.4728 -0.3837 -0.9200
27479SOL     OW83014   1.137   5.948   5.372 -0.6402  0.2714  0.3808
27479SOL    HW183015   1.109   5.910   5.289  0.1849 -1.2034  0.7360
27479SOL    HW283016   1.087   5.901   5.439  0.2849 -0.1084  0.8273
27480SOL     OW83017   2.760   0.546   2.204  0.0100  0.1284 -0.1160
27480SOL    HW183018   2.773   0.547   2.299 -1.4009  0.5212  0.1017
27480SOL    HW283019   2.665   0.544   2.193  0.1163 -2.3074 -1.5169
27481SOL     OW83020   5.209   2.843   1.444 -0.0720 -0.2295 -0.9325
27481SOL    HW183021   5.199   2.924   1.394 -1.5722 -0.0238 -0.3593
27481SOL    HW283022   5.144   2.783   1.406 -0.0563 -0.6360 -0.3370
27482SOL     OW83023   0.744   0.461   0.481  0.7233  0.1079  0.0935
27482SOL    HW183024   0.674   0.526   0.473  0.5566  0.1729  1.6941
27482SOL    HW283025   0.713   0.386   0.431  0.3027  0.7694 -0.6621
27483SOL     OW83026   6.750   7.889   4.091  0.4868 -0.0988 -0.0638
27483SOL    HW183027   6.665   7.934   4.081 -0.9687 -2.4850  0.7872
27483SOL    HW283028   6.734   7.821   4.156  2.8761 -1.1699 -0.4872
27484SOL     OW83029   0.517   5.159   4.829  0.5577 -0.1322 -0.1375
27484SOL    HW183030   0.596   5.205   4.857  0.2295  0.5742 -0.3521
27484SOL    HW283031   0.449   5.189   4.889  0.3494 -0.3809 -0.2456
27485SOL     OW83032   4.813   3.242   6.054  0.0807 -0.0010 -0.2774
27485SOL    HW183033   4.768   3.252   6.139  1.9368  0.4929  0.6947
27485SOL    HW283034   4.754   3.285   5.992 -1.5262 -0.7368  0.6693
27486SOL     OW83035   5.369   5.268   8.790 -0.5369  0.5240 -0.1902
27486SOL    HW183036   5.348   5.360   8.774  0.1480  1.3045  2.8630
27486SOL    HW283037   5.417   5.268   8.873 -2.3262 -2.8027  1.0057
27487SOL     OW83038   4.659   2.654   0.061  0.4790 -0.3007  0.6033
27487SOL    HW183039   4.741   2.649   0.110  1.3352  0.5760 -0.6694
27487SOL    HW283040   4.659   2.576   0.005  1.4087  0.6117 -0.7523
27488SOL     OW83041   9.743   8.732   4.420 -0.1236 -0.5595 -0.6503
27488SOL    HW183042   9.658   8.769   4.443  0.5498 -0.2740  1.6076
27488SOL    HW283043   9.724   8.673   4.346 -1.7787  1.5280 -2.0090
27489SOL     OW83044   2.146   1.269   0.824  0.5293  0.0750 -0.2737
27489SOL    HW183045   2.114   1.197   0.879  0.1662  0.5324  0.1158
27489SOL    HW283046   2.077   1.335   0.827  1.2310  0.8073  0.0673
27490SOL     OW83047   7.537   4.860   4.458  0.1993 -0.3241 -0.0240
27490SOL    HW183048   7.493   4.775   4.454 -1.8761  0.5417  2.1475
27490SOL    HW283049   7.470   4.923   4.431  0.9872  0.8188  0.6071
27491SOL     OW83050   8.046   6.752   7.896  0.4776 -0.7356  0.2124
27491SOL    HW183051   8.006   6.680   7.848  0.5294  0.2531 -1.3871
27491SOL    HW283052   7.981   6.776   7.963 -0.1598 -1.2976 -0.1992
27492SOL     OW83053   3.868   5.879   4.382  0.2811  0.2085 -0.2450
27492SOL    HW183054   3.904   5.946   4.441 -1.5244  2.2175 -1.2990
27492SOL    HW283055   3.932   5.808   4.386  1.7087  1.4806  1.8464
27493SOL     OW83056   7.759   8.693   4.286 -0.3069  0.3544 -0.4378
27493SOL    HW183057   7.774   8.786   4.307 -0.7923  0.1082  1.1397
27493SOL    HW283058   7.687   8.667   4.344  2.0061 -1.8969  1.6519
27494SOL     OW83059   9.803   8.149   6.365  0.1826 -1.0563  0.0509
27494SOL    HW183060   9.773   8.134   6.454  0.2404  1.3777  0.5479
27494SOL    HW283061   9.723   8.155   6.313  0.0186 -0.1042  0.3919
27495SOL     OW83062   2.620   7.548   1.205 -0.0540 -0.1832 -0.2485
27495SOL    HW183063   2.659   7.517   1.123  0.1175 -1.7023  0.3781
27495SOL    HW283064   2.583   7.470   1.245  0.1291  0.4797  1.2783
27496SOL     OW83065   0.473   6.771   6.079  0.8145  0.1071  0.2959
27496SOL    HW183066   0.536   6.834   6.113  0.0752  0.7944  0.4142
27496SOL    HW283067   0.395   6.823   6.059  0.1895 -0.7665  0.4035
27497SOL     OW83068   4.383   8.544   3.581  0.4611 -0.8390 -0.4449
27497SOL    HW183069   4.400   8.616   3.521  2.1835 -1.1797 -0.4071
27497SOL    HW283070   4.290   8.552   3.602  0.2910  0.4927 -1.5586
27498SOL     OW83071   8.734   9.665   7.768  0.1149  0.2114  0.3489
27498SOL    HW183072   8.693   9.623   7.844 -1.5666  0.9403 -0.1058
27498SOL    HW283073   8.787   9.736   7.804  0.1661 -0.1097  0.9027
27499SOL     OW83074   6.968   3.108   4.445  0.6089 -0.4178 -0.1435
27499SOL    HW183075   7.051   3.084   4.404  0.1645  0.1131 -1.4231
27499SOL    HW283076   6.917   3.027   4.443  0.5244 -0.3547 -0.8495
27500SOL     OW83077   1.419   7.407   6.122  0.1186 -0.1129 -0.2608
27500SOL    HW183078   1.399   7.454   6.203  1.0244 -0.0252 -0.0793
27500SOL    HW283079   1.500   7.359   6.142 -0.0470 -0.6662 -0.8821
27501SOL     OW83080   9.388   8.914   0.514  0.2608 -0.1226 -0.1900
27501SOL    HW183081   9.422   8.964   0.588 -1.5405  0.5910  0.2152
27501SOL    HW283082   9.390   8.975   0.440 -0.3590  0.0288 -0.0914
27502SOL     OW83083   1.761   0.703   8.761  0.1377  0.4533  0.3117
27502SOL    HW183084   1.692   0.764   8.736 -0.1404 -0.3121 -0.8515
27502SOL    HW283085   1.752   0.629   8.700  1.3751 -0.0959  0.7533
27503SOL     OW83086   6.499   1.782   0.616 -0.0132  0.4098 -0.7358
27503SOL    HW183087   6.416   1.827   0.597 -0.0405  0.6030 -0.1860
27503SOL    HW283088   6.559   1.812   0.547  0.2189  2.0028  0.0939
27504SOL     OW83089   9.066   1.550   4.401  0.0921  0.3594 -0.4464
27504SOL    HW183090   9.088   1.595   4.482 -2.4711 -1.2978  1.3580
27504SOL    HW283091   9.023   1.616   4.347 -1.1528  0.7954  0.9970
27505SOL     OW83092   8.726   4.227   9.185  0.1425 -0.3185  0.0502
27505SOL    HW183093   8.685   4.216   9.270  0.8696 -1.9818  0.2205
27505SOL    HW283094   8.653   4.233   9.123 -0.4592  2.5958  0.8682
27506SOL     OW83095   7.286   8.425   5.896 -0.5607  0.1885 -0.1239
27506SOL    HW183096   7.362   8.374   5.869  1.1980  1.2406  2.4562
27506SOL    HW283097   7.223   8.415   5.824  2.5139  0.3802 -3.0767
27507SOL     OW83098   3.972   5.515   5.537  0.2973  0.7781 -0.1512
27507SOL    HW183099   4.027   5.514   5.458 -0.1508  1.5281 -0.4842
27507SOL    HW283100   4.021   5.464   5.601  0.1147 -0.9056 -1.2772
27508SOL     OW83101   3.439   0.256   5.638 -0.2210  0.4384 -0.4311
27508SOL    HW183102   3.352   0.291   5.617 -0.2625  0.4595 -0.2299
27508SOL    HW283103   3.490   0.269   5.559 -0.2180  1.0126 -0.3395
27509SOL     OW83104   7.863   9.814   0.391 -0.5663  0.0031 -0.5164
27509SOL    HW183105   7.941   9.854   0.352 -1.0846  0.1892 -1.3897
27509SOL    HW283106   7.874   9.829   0.485  0.1541  0.5703 -0.6736
27510SOL     OW83107   9.439   9.615   4.292  0.2187  0.5399  0.1687
27510SOL    HW183108   9.512   9.671   4.265  0.4340  1.4255  2.3180
27510SOL    HW283109   9.481   9.534   4.322  0.2346  0.6203  0.3671
27511SOL     OW83110   6.246   0.201   6.137  0.2665  0.4321  0.1564
27511SOL    HW183111   6.216   0.110   6.140  2.1102 -0.2064  0.5197
27511SOL    HW283112   6.203   0.242   6.212  0.0250 -0.3480  0.4633
27512SOL     OW83113   7.431   9.806   8.458  0.2213 -0.1112 -0.2889
27512SOL    HW183114   7.450   9.840   8.545  1.7535 -0.7880 -0.3222
27512SOL    HW283115   7.456   9.714   8.462 -0.9306 -0.4852 -1.0832
27513SOL     OW83116   1.182   3.443   8.772  0.1415  0.9005 -0.4169
27513SOL    HW183117   1.246   3.379   8.742 -0.7422 -0.5518  0.6592
27513SOL    HW283118   1.234   3.508   8.819  0.9624  0.4235 -0.6480
27514SOL     OW83119   9.813   4.499   0.018 -0.2779 -0.2003 -0.0244
27514SOL    HW183120   9.907   4.517   0.021 -0.3636  0.4158 -0.6836
27514SOL    HW283121   9.806   4.411  -0.019  0.0379 -0.1634 -0.1781
27515SOL     OW83122   0.391   2.253   0.603  0.1422 -0.0058 -0.1175
27515SOL    HW183123   0.417   2.340   0.635  0.8841  0.1221 -1.0155
27515SOL    HW283124   0.363   2.269   0.513 -1.2666 -0.4637  0.2170
27516SOL     OW83125   3.397   4.716   1.420  0.5276  0.0504 -0.0770
27516SOL    HW183126   3.451   4.639   1.440 -0.2928 -0.4481  0.2568
27516SOL    HW283127   3.389   4.715   1.324 -0.9903 -1.3493  0.0258
27517SOL     OW83128   5.896   2.219   7.668 -0.0146  0.1950  0.2268
27517SOL    HW183129   5.839   2.295   7.676 -1.1577 -0.6479  0.2502
27517SOL    HW283130   5.975   2.243   7.717 -0.7401  0.9931  1.0233
27518SOL     OW83131   2.722   1.171   0.563 -0.3349 -0.0301  0.2316
27518SOL    HW183132   2.672   1.231   0.618 -0.0784  0.0960  0.3275
27518SOL    HW283133   2.807   1.164   0.606 -0.3825 -0.5024  0.2465
27519SOL     OW83134   0.252   4.672   0.915  0.0285  0.0027  0.3065
27519SOL    HW183135   0.245   4.620   0.834 -0.1377 -2.1142  1.6060
27519SOL    HW283136   0.321   4.629   0.965 -1.6130 -0.3180  2.3848
27520SOL     OW83137   3.819   6.127   8.374 -0.4864 -0.4882  0.5364
27520SOL    HW183138   3.764   6.054   8.350  1.5308 -2.1199  0.5947
27520SOL    HW283139   3.903   6.088   8.397  0.2254  1.7124  2.0757
27521SOL     OW83140   4.655   8.964   8.529 -0.2554  0.2202  0.2001
27521SOL    HW183141   4.664   8.985   8.436 -0.6864  0.4793  0.2133
27521SOL    HW283142   4.640   8.869   8.531 -0.4757  0.2497 -0.0119
27522SOL     OW83143   1.491   3.546   5.862  0.1139 -1.0289 -0.2180
27522SOL    HW183144   1.560   3.565   5.926 -0.3352 -1.2821  0.3515
27522SOL    HW283145   1.425   3.499   5.912 -2.9092  3.4432  0.6163
27523SOL     OW83146   8.139   3.841   9.572  0.0844 -0.3162 -0.0362
27523SOL    HW183147   8.060   3.801   9.608 -0.5531  1.2474  0.3925
27523SOL    HW283148   8.107   3.897   9.502  0.7034  0.8956  0.6157
27524SOL     OW83149   9.628   9.300   4.943 -0.1839 -0.4236 -0.1824
27524SOL    HW183150   9.658   9.267   5.028  0.4307  0.2070 -0.1477
27524SOL    HW283151   9.580   9.380   4.964  0.3816 -0.0083 -0.4712
27525SOL     OW83152   2.799   6.377   9.856 -0.4045 -0.1129  0.2954
27525SOL    HW183153   2.743   6.377   9.779  1.1584  3.9289 -1.1196
27525SOL    HW283154   2.873   6.320   9.833 -0.0658  0.8698 -1.1775
27526SOL     OW83155   4.545   8.010   7.534 -0.2374  0.0562 -0.6326
27526SOL    HW183156   4.618   8.063   7.567 -0.1402 -0.0217 -0.7220
27526SOL    HW283157   4.584   7.953   7.468 -0.6367  0.9979 -1.7204
27527SOL     OW83158   5.478   8.817   5.869 -0.6216  0.0480  0.0045
27527SOL    HW183159   5.516   8.887   5.921 -1.3116  1.9493 -1.9113
27527SOL    HW283160   5.385   8.816   5.894 -1.0579  1.2901 -1.4412
27528SOL     OW83161   7.981   2.775   4.227  0.2223  0.0621 -0.3182
27528SOL    HW183162   8.075   2.787   4.237  0.2576 -0.4894  0.0598
27528SOL    HW283163   7.971   2.685   4.196 -0.2291 -0.2422  0.6624
27529SOL     OW83164   4.598   8.469   5.014  0.0223 -0.3266 -0.1498
27529SOL    HW183165   4.655   8.518   4.956  0.6330 -0.8188  0.0287
27529SOL    HW283166   4.561   8.535   5.073 -1.1791  0.2989 -1.5234
27530SOL     OW83167   6.389   5.846   5.859 -0.1691  0.3924  0.0098
27530SOL    HW183168   6.305   5.873   5.822 -0.2360 -0.9266 -0.8711
27530SOL    HW283169   6.423   5.782   5.797 -0.9425 -3.0297  2.8201
27531SOL     OW83170   9.240   3.257   4.455  0.0561  0.4494 -0.1917
27531SOL    HW183171   9.271   3.330   4.401  2.4431 -0.1662  0.2075
27531SOL    HW283172   9.206   3.299   4.534 -0.8530  1.2095 -0.9493
27532SOL     OW83173   0.464   3.889   4.914 -0.1989  1.0062  0.2659
27532SOL    HW183174   0.533   3.869   4.851 -0.7303  1.4005 -0.4542
27532SOL    HW283175   0.384   3.852   4.876 -0.2834 -0.0568  1.4163
27533SOL     OW83176   7.850   9.313   9.640 -0.5762 -0.0808  0.7851
27533SOL    HW183177   7.768   9.337   9.598  0.5245  0.7971 -0.9737
27533SOL    HW283178   7.832   9.229   9.683 -2.9573  1.1178  2.2991
27534SOL     OW83179   2.789   3.719   5.013  0.2731  0.7702 -0.3776
27534SOL    HW183180   2.711   3.723   5.069  1.8697  1.9523  1.9250
27534SOL    HW283181   2.862   3.709   5.074  2.0166  0.4558 -2.3966
27535SOL     OW83182   1.077   5.731   5.145  0.3551 -0.0595 -0.5971
27535SOL    HW183183   1.051   5.643   5.118  0.4376 -0.5904  0.9703
27535SOL    HW283184   1.145   5.717   5.211 -1.2354  1.0713  1.4083
27536SOL     OW83185   7.611   1.801   9.158  0.7302 -0.5243  0.1931
27536SOL    HW183186   7.680   1.744   9.191  1.6979  1.6292  2.2340
27536SOL    HW283187   7.657   1.865   9.103 -0.2759 -1.4267 -1.7812
27537SOL     OW83188   2.037   7.938   4.419  0.4617  0.1272 -0.4722
27537SOL    HW183189   1.968   8.001   4.437 -0.6930 -1.3707  0.6041
27537SOL    HW283190   2.053   7.945   4.325 -2.2497 -0.5251 -1.0550
27538SOL     OW83191   4.206   7.499   1.567 -0.4385  0.3188  0.2106
27538SOL    HW183192   4.172   7.439   1.501 -1.5030  0.2443  0.8031
27538SOL    HW283193   4.171   7.466   1.650  0.6911  0.5422  0.7890
27539SOL     OW83194   1.971   0.227   1.520 -0.2135 -0.1522  0.2012
27539SOL    HW183195   2.005   0.268   1.599  1.2891  0.3421 -0.6505
27539SOL    HW283196   2.048   0.192   1.476 -0.6695  1.4534 -2.0751
27540SOL     OW83197   7.090   1.320   3.328  0.2151 -0.3500 -0.0549
27540SOL    HW183198   7.175   1.276   3.318 -0.1594 -1.1024 -0.0614
27540SOL    HW283199   7.038   1.287   3.256 -0.5172 -0.9864  0.7376
27541SOL     OW83200   3.951   4.777   3.742  0.6248  0.5348  0.1877
27541SOL    HW183201   4.002   4.841   3.693  0.7137  0.2749 -0.0633
27541SOL    HW283202   3.982   4.692   3.711  0.5693  0.3658  0.5765
27542SOL     OW83203   0.349   6.417   4.416  0.4960 -0.4191  0.1391
27542SOL    HW183204   0.434   6.462   4.413 -0.4445  1.4367  0.3309
27542SOL    HW283205   0.350   6.370   4.499  1.0335  0.2270  0.5087
27543SOL     OW83206   1.265   8.492   5.055  0.1679 -0.0974 -0.2024
27543SOL    HW183207   1.349   8.448   5.048  0.5335  0.8095 -2.5671
27543SOL    HW283208   1.276   8.573   5.006 -2.4664 -0.6321 -1.8989
27544SOL     OW83209   2.688   6.908   3.115  0.3733 -0.1366 -0.3683
27544SOL    HW183210   2.696   7.003   3.113 -2.7000  0.2554  0.5117
27544SOL    HW283211   2.673   6.883   3.024 -2.7280  0.7997 -0.2280
27545SOL     OW83212   2.534   5.551   9.043  0.3345 -0.9603  0.4574
27545SOL    HW183213   2.599   5.497   8.997  1.0655  0.1294  0.1853
27545SOL    HW283214   2.580   5.583   9.120  0.2349  0.0893  0.0936
27546SOL     OW83215   8.005   7.299   7.210  0.6420  0.0810  0.4150
27546SOL    HW183216   7.937   7.280   7.145  0.3763 -1.7765  1.1606
27546SOL    HW283217   8.080   7.330   7.159 -0.3193  0.8958 -0.5436
27547SOL     OW83218   1.737   3.675   4.612 -0.3599 -0.5764  0.4270
27547SOL    HW183219   1.711   3.588   4.581  0.8288 -1.2202  1.1589
27547SOL    HW283220   1.829   3.665   4.636 -0.1136  0.9834  0.2048
27548SOL     OW83221   5.387   4.647   3.365 -0.5767  0.5001 -0.4550
27548SOL    HW183222   5.293   4.663   3.374 -0.7041  0.3257 -1.3586
27548SOL    HW283223   5.396   4.599   3.283  0.4252  1.7002 -1.0991
27549SOL     OW83224   5.746   0.438   6.524 -0.2634 -0.3792 -0.6643
27549SOL    HW183225   5.731   0.500   6.595 -1.0687 -0.9000 -0.3648
27549SOL    HW283226   5.821   0.386   6.552  0.0375  0.0556 -0.6481
27550SOL     OW83227   7.848   2.212   5.542 -0.0310 -0.0595 -0.2979
27550SOL    HW183228   7.890   2.126   5.536  0.0816  0.0730 -1.7556
27550SOL    HW283229   7.903   2.269   5.489 -0.7062  0.6793 -0.2243
27551SOL     OW83230   3.015   0.128   7.628 -0.1731 -0.2548 -0.1166
27551SOL    HW183231   2.970   0.091   7.552  0.3568 -2.6957  0.6650
27551SOL    HW283232   2.945   0.170   7.678 -1.0434 -1.1898 -0.5034
27552SOL     OW83233   8.889   7.599   3.058  0.2473 -0.1444 -0.0203
27552SOL    HW183234   8.878   7.681   3.105  0.5157 -0.9139  1.4717
27552SOL    HW283235   8.981   7.599   3.031 -0.1121  0.6680 -1.3148
27553SOL     OW83236   6.558   6.913   9.529  0.3746 -0.4041 -0.6497
27553SOL    HW183237   6.568   6.974   9.602  2.8013 -0.4370 -0.8415
27553SOL    HW283238   6.525   6.833   9.568  0.1294  0.0693  0.1352
27554SOL     OW83239   3.402   6.228   4.835  0.7824 -0.3149  0.3215
27554SOL    HW183240   3.463   6.259   4.901  0.6530 -0.2848  0.4279
27554SOL    HW283241   3.445   6.245   4.752  1.1852 -0.8511  0.4163
27555SOL     OW83242   1.070   8.003   2.362  0.1826 -0.6291  0.1590
27555SOL    HW183243   1.058   7.935   2.428 -0.0387 -0.5634  0.1853
27555SOL    HW283244   0.993   8.059   2.371  0.9759  0.3686  1.0232
27556SOL     OW83245   3.277   5.520   8.837 -0.0306 -0.1891  0.3618
27556SOL    HW183246   3.371   5.509   8.830  0.2013  1.0971  1.1397
27556SOL    HW283247   3.262   5.545   8.929 -0.9644  0.8876 -0.0522
27557SOL     OW83248   7.578   4.494   2.714  0.0135  0.1593 -0.3704
27557SOL    HW183249   7.548   4.547   2.787  0.8267 -0.2559  0.2782
27557SOL    HW283250   7.623   4.420   2.755  2.6023  1.1164 -1.2576
27558SOL     OW83251   4.088   1.088   0.575  0.1429 -0.1770 -0.7184
27558SOL    HW183252   4.173   1.071   0.535  0.4784 -3.5395  1.0214
27558SOL    HW283253   4.100   1.067   0.668 -1.6187  3.3005  0.4555
27559SOL     OW83254   9.477   1.888   3.659  0.3411  0.5939  0.7164
27559SOL    HW183255   9.538   1.960   3.672  2.1024 -0.9877  1.8279
27559SOL    HW283256   9.497   1.856   3.571 -0.4638  1.4424  0.2102
27560SOL     OW83257   5.043   5.110   0.811  0.0915 -0.1840  0.0749
27560SOL    HW183258   5.077   5.193   0.843 -0.7805  0.5327 -0.7943
27560SOL    HW283259   5.056   5.113   0.716  0.0835 -1.0568  0.0355
27561SOL     OW83260   5.635   3.083   4.373 -0.2186  0.0540 -0.5320
27561SOL    HW183261   5.722   3.113   4.399  0.9794 -2.5270 -1.2266
27561SOL    HW283262   5.595   3.052   4.455 -0.9177  2.0137 -0.0602
27562SOL     OW83263   0.623   0.286   9.893  0.2317 -0.2761  0.6168
27562SOL    HW183264   0.713   0.262   9.872  0.4053 -0.2386  1.2770
27562SOL    HW283265   0.572   0.257   9.818  0.6522 -1.2992  0.7086
27563SOL     OW83266   6.943   9.401   2.720  0.1895 -0.2374  0.0592
27563SOL    HW183267   6.943   9.434   2.809 -1.7483  1.2050 -0.4101
27563SOL    HW283268   6.851   9.390   2.697  0.6449 -1.1842 -1.5667
27564SOL     OW83269   9.649   6.268   4.145 -0.3136 -0.1820 -0.2815
27564SOL    HW183270   9.583   6.331   4.117  0.1957  0.0502 -0.9890
27564SOL    HW283271   9.684   6.232   4.063 -0.1812 -0.9468  0.1035
27565SOL     OW83272   5.150   8.152   6.780 -0.0644 -0.6546 -0.1350
27565SOL    HW183273   5.109   8.108   6.854 -0.8537  1.2284  0.6139
27565SOL    HW283274   5.197   8.082   6.734 -2.2244 -2.4867  0.2537
27566SOL     OW83275   4.510   4.772   5.098  0.3755 -0.5967  0.0501
27566SOL    HW183276   4.419   4.753   5.078  0.3934 -1.0593  0.4220
27566SOL    HW283277   4.555   4.761   5.014 -0.0519  0.5960 -0.3634
27567SOL     OW83278   8.359   2.137   6.879 -0.4134  0.2078  0.4874
27567SOL    HW183279   8.267   2.119   6.859 -0.1332 -1.0612  0.2432
27567SOL    HW283280   8.383   2.068   6.941  0.8783 -0.6329 -0.8887
27568SOL     OW83281   0.339   9.670   8.563  0.4806 -0.1837  0.1723
27568SOL    HW183282   0.279   9.694   8.633  0.4869  0.1035  0.0809
27568SOL    HW283283   0.291   9.689   8.482  0.0550 -1.5462  0.0839
27569SOL     OW83284   0.604   9.130   4.513 -0.0659  0.6330  0.3715
27569SOL    HW183285   0.518   9.158   4.480 -1.2510  0.4907  3.0848
27569SOL    HW283286   0.662   9.203   4.492 -1.3300  1.6497  0.2845
27570SOL     OW83287   9.419   4.245   3.392 -0.2734  0.9543  0.4549
27570SOL    HW183288   9.500   4.215   3.351  0.4842  0.8853  1.9151
27570SOL    HW283289   9.349   4.208   3.339  0.6592  0.5534 -0.5159
27571SOL     OW83290   4.219   3.046   3.278  0.0764 -0.1671 -0.2518
27571SOL    HW183291   4.206   2.952   3.262  0.0431  0.1558 -2.4377
27571SOL    HW283292   4.313   3.056   3.290 -0.0080 -0.5658  0.9200
27572SOL     OW83293   3.363   5.113   1.310  0.1545 -0.5993 -0.1878
27572SOL    HW183294   3.339   5.205   1.313 -0.2569 -0.5535 -2.9012
27572SOL    HW283295   3.280   5.066   1.307  0.3394 -0.8493 -2.0834
27573SOL     OW83296   5.877   6.629   8.355  0.0028 -0.0293  0.2986
27573SOL    HW183297   5.903   6.543   8.321  1.3383  0.2264  0.6221
27573SOL    HW283298   5.949   6.655   8.412 -0.5420  1.1655  0.4675
27574SOL     OW83299   1.218   9.034   2.127 -0.0903  0.8469  0.1268
27574SOL    HW183300   1.176   9.085   2.058  0.2053  0.5104 -0.3061
27574SOL    HW283301   1.215   8.944   2.096 -0.2407  0.6468  0.7016
27575SOL     OW83302   6.882   3.527   0.328  0.1377  0.2696  0.0640
27575SOL    HW183303   6.871   3.518   0.423  0.0195  2.0402  0.2617
27575SOL    HW283304   6.970   3.495   0.311  0.7122  1.2463  1.0245
27576SOL     OW83305   7.458   0.054   0.567  0.4311  0.0840 -0.1570
27576SOL    HW183306   7.519   0.113   0.524  0.3776  0.1832 -0.0969
27576SOL    HW283307   7.423  -0.000   0.497  0.6252 -0.0061 -0.1856
27577SOL     OW83308   9.413   5.868   9.055 -0.1223  0.1534 -0.0301
27577SOL    HW183309   9.466   5.795   9.022 -0.7879 -0.1939 -0.3307
27577SOL    HW283310   9.323   5.839   9.045 -0.4026  1.1584 -0.4600
27578SOL     OW83311   5.216   3.626   2.591  0.1064 -0.1776  0.4312
27578SOL    HW183312   5.204   3.579   2.508 -1.8980  1.5383 -0.3449
27578SOL    HW283313   5.311   3.633   2.601  0.4071 -1.1453 -1.2930
27579SOL     OW83314   1.747   5.071   3.792 -0.2921  0.4459 -0.0600
27579SOL    HW183315   1.746   4.981   3.760 -1.5462  1.0730 -1.9917
27579SOL    HW283316   1.655   5.095   3.800  0.0210  1.5348  0.4903
27580SOL     OW83317   3.965   5.240   1.807 -0.3770  0.6748  0.4905
27580SOL    HW183318   4.033   5.175   1.826 -0.7863  0.4972  1.4413
27580SOL    HW283319   3.958   5.241   1.712 -0.0241 -0.3270  0.4413
27581SOL     OW83320   9.502   1.882   7.948  0.9311 -0.5775  0.7085
27581SOL    HW183321   9.537   1.853   8.033  1.1884 -0.9670  0.4754
27581SOL    HW283322   9.476   1.972   7.962 -1.8579 -1.4937  2.0643
27582SOL     OW83323   2.145   9.063   3.504 -0.4321 -0.1937  0.4349
27582SOL    HW183324   2.085   9.019   3.564  0.3744  0.6934  1.9873
27582SOL    HW283325   2.091   9.128   3.459 -1.0404 -0.8153  0.2514
27583SOL     OW83326   4.556   2.036   9.558  0.3424  0.0002 -0.2893
27583SOL    HW183327   4.645   2.016   9.589  0.1627 -2.5027 -1.1314
27583SOL    HW283328   4.561   2.025   9.463 -1.1691 -1.7861 -0.2238
27584SOL     OW83329   3.050   3.278   9.841 -0.1161  0.2266 -0.1921
27584SOL    HW183330   3.002   3.310   9.917 -0.2711 -2.0144  0.7553
27584SOL    HW283331   2.989   3.286   9.768 -0.9906 -0.1298  0.4821
27585SOL     OW83332   3.507   9.496   1.823  0.5334  0.0009 -0.4284
27585SOL    HW183333   3.587   9.445   1.812  1.3220  1.2214 -0.6265
27585SOL    HW283334   3.448   9.465   1.755  1.4588  0.2153 -1.3422
27586SOL     OW83335   5.359   3.880   1.188  0.1056  0.1390 -0.0454
27586SOL    HW183336   5.331   3.968   1.161 -0.3150  0.1681  0.4627
27586SOL    HW283337   5.306   3.861   1.265  1.3970  0.1334  0.8820
27587SOL     OW83338   6.620   6.235   1.141  0.7004 -0.2126  0.1603
27587SOL    HW183339   6.646   6.312   1.090 -1.2711  0.8840  0.6723
27587SOL    HW283340   6.674   6.240   1.220  3.3009 -1.5580 -1.4151
27588SOL     OW83341   9.445   6.213   8.944  0.5138  0.0538  0.1070
27588SOL    HW183342   9.420   6.263   8.866  0.0086  0.8536  0.7515
27588SOL    HW283343   9.534   6.243   8.965  0.8589 -0.5663 -0.4719
27589SOL     OW83344   6.300   8.843   4.330  0.1344  0.4417 -0.2464
27589SOL    HW183345   6.315   8.752   4.355 -1.2571 -0.2447 -1.7551
27589SOL    HW283346   6.275   8.887   4.412  0.8946 -0.4979  0.5049
27590SOL     OW83347   4.109   9.419   4.356 -0.4422 -0.3829  0.0682
27590SOL    HW183348   4.148   9.480   4.419 -0.5560  0.7984 -0.9678
27590SOL    HW283349   4.156   9.434   4.274 -1.3622 -0.7395 -0.5523
27591SOL     OW83350   5.073   8.130   4.329  0.4289  0.5564  0.4387
27591SOL    HW183351   5.088   8.223   4.344 -0.2790  0.4407  2.0349
27591SOL    HW283352   5.026   8.100   4.407  1.6711 -1.3940  0.5209
27592SOL     OW83353   5.057   9.540   8.818  0.2244  0.2437  0.6215
27592SOL    HW183354   5.131   9.483   8.837  0.9241  1.3526  1.3310
27592SOL    HW283355   4.997   9.485   8.769  1.8704 -0.4639 -0.6993
27593SOL     OW83356   8.558   7.425   9.592  0.0020  0.1987  0.3286
27593SOL    HW183357   8.484   7.371   9.619 -0.0712  1.3211  2.6351
27593SOL    HW283358   8.635   7.375   9.619 -0.0474  0.8171  1.6870
27594SOL     OW83359   5.294   4.128   2.140  0.3409 -0.8296 -0.5480
27594SOL    HW183360   5.228   4.153   2.205 -0.1305 -0.9306 -0.9766
27594SOL    HW283361   5.325   4.211   2.104  2.1417 -0.6343  1.2504
27595SOL     OW83362   7.975   4.739   4.942 -0.2023  0.3813  0.4231
27595SOL    HW183363   8.071   4.740   4.943 -0.1883  2.4302  0.7627
27595SOL    HW283364   7.951   4.663   4.996  1.1980 -0.8023 -0.5407
27596SOL     OW83365   0.133   4.259   6.732  0.4009  0.1187  0.0842
27596SOL    HW183366   0.055   4.221   6.692  0.1572  0.1171  0.5484
27596SOL    HW283367   0.103   4.289   6.819  0.9009  0.1730  0.2418
27597SOL     OW83368   8.323   4.880   7.181  0.0513  0.5946 -0.1144
27597SOL    HW183369   8.391   4.906   7.243  0.7519 -0.2548 -0.5177
27597SOL    HW283370   8.248   4.859   7.237 -0.0054  1.8212  0.3132
27598SOL     OW83371   0.773   8.347   2.230 -0.1160 -0.3187  0.4401
27598SOL    HW183372   0.686   8.378   2.257  0.5720  3.5158 -1.2122
27598SOL    HW283373   0.756   8.292   2.154 -1.1108 -0.1625  0.5285
27599SOL     OW83374   0.614   1.271   1.601 -0.1114  0.0703  1.1188
27599SOL    HW183375   0.645   1.317   1.679  1.7692 -1.1640  1.1538
27599SOL    HW283376   0.553   1.332   1.561  0.9707  1.8885  2.0823
27600SOL     OW83377   6.813   0.184   3.532  0.3610 -0.3542  0.4270
27600SOL    HW183378   6.760   0.148   3.603 -0.1173 -1.1704 -0.3236
27600SOL    HW283379   6.855   0.108   3.492 -0.4424 -0.0929 -1.0044
27601SOL     OW83380   7.428   9.807   2.614 -0.2684 -0.2607  0.2226
27601SOL    HW183381   7.428   9.848   2.701 -0.6835  0.7987 -0.2615
27601SOL    HW283382   7.371   9.731   2.623  0.5322 -0.7748  1.1477
27602SOL     OW83383   8.202   7.178   5.592 -0.1853 -0.2941  0.6388
27602SOL    HW183384   8.149   7.255   5.613 -0.1352 -0.1963  0.4083
27602SOL    HW283385   8.293   7.208   5.600 -0.1498 -0.6547  1.7548
27603SOL     OW83386   7.314   1.437   1.435 -0.2797  1.2150 -0.1142
27603SOL    HW183387   7.361   1.356   1.419 -1.0422  1.0627 -1.7385
27603SOL    HW283388   7.367   1.483   1.501  1.7543  0.7334 -1.3330
27604SOL     OW83389   5.795   8.470   0.030 -0.1919  0.2031  0.1468
27604SOL    HW183390   5.784   8.563   0.011  1.5370  0.2077 -0.9753
27604SOL    HW283391   5.885   8.451   0.006 -0.1020 -1.4775  1.6435
27605SOL     OW83392   2.197   8.537   3.024 -0.0255  0.2061 -0.6662
27605SOL    HW183393   2.261   8.468   3.007 -0.5559 -0.1667 -1.1770
27605SOL    HW283394   2.142   8.502   3.094  0.8937  0.9099  0.4417
27606SOL     OW83395   1.595   3.526   2.415 -0.3381 -0.4007 -0.2956
27606SOL    HW183396   1.645   3.460   2.463 -0.2074  0.9830  1.5564
27606SOL    HW283397   1.505   3.492   2.413 -0.3672 -0.4245  1.0408
27607SOL     OW83398   9.437   6.172   7.334  0.3435 -0.5831 -0.0836
27607SOL    HW183399   9.463   6.260   7.362 -0.6382 -0.0509 -0.7492
27607SOL    HW283400   9.408   6.184   7.243  2.1304 -1.9832 -0.9114
27608SOL     OW83401   3.072   9.347   2.860 -0.4188  0.0885 -0.0034
27608SOL    HW183402   3.021   9.282   2.908  1.1602  0.0937  1.7767
27608SOL    HW283403   3.032   9.430   2.882 -0.0249  0.0422  0.9126
27609SOL     OW83404   8.076   4.694   2.962 -0.2105  0.3162 -0.2807
27609SOL    HW183405   8.022   4.767   2.992 -1.1388 -0.2043 -0.6445
27609SOL    HW283406   8.149   4.691   3.024 -0.6672  0.9532  0.3019
27610SOL     OW83407   7.413   5.884   2.438 -0.4580 -0.2514  0.1955
27610SOL    HW183408   7.332   5.841   2.464 -0.3963 -0.6570 -0.2752
27610SOL    HW283409   7.482   5.823   2.463 -0.4645 -1.3319 -2.1995
27611SOL     OW83410   4.769   8.541   0.554 -0.1778 -0.5619 -0.0985
27611SOL    HW183411   4.742   8.511   0.468 -1.3740  1.2834 -0.4251
27611SOL    HW283412   4.710   8.499   0.615 -2.0794  1.2500 -0.5776
27612SOL     OW83413   5.334   6.419   4.235 -0.1509  0.6092 -0.5653
27612SOL    HW183414   5.354   6.472   4.312 -1.6442  0.8777 -0.3203
27612SOL    HW283415   5.396   6.346   4.238  1.5670  2.0204 -0.5907
27613SOL     OW83416   5.697   9.215   5.034 -0.5562  1.0341  0.4075
27613SOL    HW183417   5.623   9.239   5.090 -0.6072  0.7529  0.4628
27613SOL    HW283418   5.743   9.297   5.018 -0.4979  1.1081  0.9274
27614SOL     OW83419   1.869   7.858   1.825  0.1316  0.2735  0.1246
27614SOL    HW183420   1.927   7.889   1.895 -0.1406  0.8740  0.0877
27614SOL    HW283421   1.810   7.931   1.808  1.3891  0.8520 -2.0751
27615SOL     OW83422   7.041   2.229   8.717 -0.4916 -0.5027  0.0843
27615SOL    HW183423   7.007   2.296   8.777 -1.9150 -0.7760 -0.3765
27615SOL    HW283424   7.034   2.147   8.767  0.8230 -0.4040  0.4815
27616SOL     OW83425   9.146   7.293   3.502  0.2171  0.9246 -0.2083
27616SOL    HW183426   9.217   7.355   3.516  0.4214  0.5231  0.6014
27616SOL    HW283427   9.187   7.221   3.454 -0.0276  1.4207 -1.1736
27617SOL     OW83428   2.600   5.598   6.460  0.2050  0.0993 -0.1867
27617SOL    HW183429   2.550   5.543   6.519  0.5267  0.1275  0.1156
27617SOL    HW283430   2.608   5.682   6.505 -0.2663  0.3920 -0.6355
27618SOL     OW83431   1.813   1.970   7.086  0.0690  0.1429  0.0934
27618SOL    HW183432   1.751   1.977   7.159 -0.5881  2.8074 -0.6379
27618SOL    HW283433   1.784   1.892   7.038 -0.9292 -0.2915  1.3304
27619SOL     OW83434   6.851   6.918   7.205  0.3035  0.2106  0.0152
27619SOL    HW183435   6.846   6.830   7.241  0.7846  0.7251  1.4317
27619SOL    HW283436   6.793   6.970   7.261 -0.0808  0.7697 -0.8838
27620SOL     OW83437   3.651   4.619   8.531  0.2798 -0.0412 -0.2720
27620SOL    HW183438   3.563   4.606   8.495  0.2622 -0.1888 -0.1755
27620SOL    HW283439   3.679   4.532   8.559 -0.4139  0.3060  1.7126
27621SOL     OW83440   7.453   7.879   1.197 -0.2198  0.0775  0.8828
27621SOL    HW183441   7.420   7.790   1.184 -0.9534  0.1674  2.0039
27621SOL    HW283442   7.409   7.909   1.277 -1.5427  2.1615 -0.5189
27622SOL     OW83443   1.645   2.033   2.812 -0.4048 -0.7406  0.4116
27622SOL    HW183444   1.731   2.060   2.844 -0.0202  0.5436 -1.5235
27622SOL    HW283445   1.648   1.937   2.813  0.1887 -0.7494  2.4624
27623SOL     OW83446   9.807   8.337   7.248  0.5188 -0.3847  0.6187
27623SOL    HW183447   9.864   8.394   7.196 -2.2653  1.7006 -0.3722
27623SOL    HW283448   9.722   8.343   7.206 -0.7712 -2.4027  2.7211
27624SOL     OW83449   7.024   9.797   1.204 -0.4165  0.2554 -0.1060
27624SOL    HW183450   6.961   9.740   1.160 -2.1679  1.9264  0.0704
27624SOL    HW283451   6.975   9.878   1.221  0.9608  0.6579  2.5312
27625SOL     OW83452   0.809   7.531   6.539 -0.0647  0.1598 -0.3503
27625SOL    HW183453   0.742   7.484   6.589 -0.6632 -0.1373 -1.3956
27625SOL    HW283454   0.813   7.617   6.581 -1.2167  0.2363 -0.3558
27626SOL     OW83455   2.384   7.257   4.003 -0.4045  0.1066  0.0054
27626SOL    HW183456   2.467   7.251   4.052 -0.4483  0.9709  0.2014
27626SOL    HW283457   2.354   7.167   3.996  0.0783 -0.1228  0.7671
27627SOL     OW83458   9.054   6.526   8.715  0.3665 -0.4184  0.1633
27627SOL    HW183459   8.980   6.581   8.741  0.3137 -1.1200  1.6476
27627SOL    HW283460   9.124   6.587   8.692 -0.5593  0.2475 -0.9209
27628SOL     OW83461   8.696   8.269   1.503  0.0162  0.3045  0.9276
27628SOL    HW183462   8.675   8.355   1.538 -0.7403  0.3889  0.2778
27628SOL    HW283463   8.759   8.286   1.432 -2.0655  0.6034 -0.9495
27629SOL     OW83464   1.567   6.629   3.029  0.0015 -0.1354  0.2296
27629SOL    HW183465   1.481   6.596   3.001 -0.1864  0.3581  0.2128
27629SOL    HW283466   1.604   6.670   2.951 -1.0215  2.2809  0.9295
27630SOL     OW83467   3.783   8.210   4.861 -0.6585 -0.2435  0.2566
27630SOL    HW183468   3.840   8.250   4.927 -0.5134 -1.2160  0.7333
27630SOL    HW283469   3.719   8.278   4.841 -0.4226  0.2319  1.0585
27631SOL     OW83470   4.309   8.777   3.449  0.7095  0.0281 -0.1853
27631SOL    HW183471   4.327   8.853   3.394 -0.6400  0.5770  0.0908
27631SOL    HW283472   4.213   8.771   3.452  0.7582 -0.6283  1.2207
27632SOL     OW83473   1.931   1.760   9.954  0.3034  0.2356  0.3664
27632SOL    HW183474   1.873   1.710   9.896  0.4246  0.0411  0.4109
27632SOL    HW283475   1.970   1.826   9.897  0.2303  0.2068  0.2811
27633SOL     OW83476   1.002   5.772   9.435  0.5761  0.4863 -0.0902
27633SOL    HW183477   1.021   5.692   9.484  0.7574  0.7255  0.2374
27633SOL    HW283478   0.910   5.764   9.410 -0.4728  1.7337  2.9414
27634SOL     OW83479   3.090   2.774   4.486 -0.1377 -0.0451 -0.2744
27634SOL    HW183480   3.061   2.844   4.545 -0.3992 -0.5461  0.1961
27634SOL    HW283481   3.023   2.707   4.494  0.2151 -0.4376 -0.5713
27635SOL     OW83482   0.173   4.797   6.613  0.0181  0.8631 -0.4604
27635SOL    HW183483   0.093   4.818   6.566  0.9443 -0.6480 -2.8754
27635SOL    HW283484   0.231   4.758   6.547  2.7228  1.7951  1.1953
27636SOL     OW83485   1.415   5.805   3.625  0.4430  0.1356 -0.2594
27636SOL    HW183486   1.505   5.795   3.656  0.4054  1.8789  0.5275
27636SOL    HW283487   1.423   5.860   3.547  0.0712  0.2599 -0.2094
27637SOL     OW83488   5.399   4.110   2.557 -0.6849  0.3475 -0.0892
27637SOL    HW183489   5.389   4.038   2.495  2.0843 -1.4295  1.2991
27637SOL    HW283490   5.384   4.070   2.643 -1.5187  2.0568  0.6138
27638SOL     OW83491   5.678   1.235   5.704 -0.4580 -0.1336 -0.5494
27638SOL    HW183492   5.688   1.261   5.796  0.7268  1.2530 -1.0321
27638SOL    HW283493   5.637   1.149   5.708 -1.1315  0.2130  1.2548
27639SOL     OW83494   3.371   3.785   3.696  0.1507  0.7481  0.1821
27639SOL    HW183495   3.364   3.704   3.746  0.3690  0.5152 -0.1680
27639SOL    HW283496   3.314   3.846   3.743  0.4576  0.5710  0.7975
27640SOL     OW83497   2.773   2.544   4.589  0.0038  0.1218 -0.2492
27640SOL    HW183498   2.783   2.530   4.495  0.4703 -0.7022 -0.0894
27640SOL    HW283499   2.848   2.598   4.613 -1.1718  2.0291 -0.6677
27641SOL     OW83500   4.565   2.818   0.621 -0.9218 -0.5613 -0.0355
27641SOL    HW183501   4.627   2.771   0.677 -0.1598 -0.0015 -0.3857
27641SOL    HW283502   4.563   2.906   0.658 -2.2266 -0.8117  0.5282
27642SOL     OW83503   7.257   0.604   1.819  0.6634 -0.5112 -0.6073
27642SOL    HW183504   7.196   0.602   1.893  1.7916 -0.3674  0.3433
27642SOL    HW283505   7.291   0.514   1.813 -0.0918 -0.7597 -1.5526
27643SOL     OW83506   7.119   3.066   9.095  0.5871  0.5778  0.0185
27643SOL    HW183507   7.087   3.156   9.104  1.6322  1.2274 -2.0984
27643SOL    HW283508   7.123   3.051   9.001  0.5477 -1.6793  0.3192
27644SOL     OW83509   4.881   3.261   0.992 -0.3773 -0.2800 -0.0737
27644SOL    HW183510   4.846   3.336   1.042  0.9672  0.7890 -0.6724
27644SOL    HW283511   4.818   3.248   0.921  0.2298  1.4717 -1.0004
27645SOL     OW83512   5.277   1.926   6.266 -0.7933 -0.0636  0.1808
27645SOL    HW183513   5.248   2.007   6.308 -0.1139  0.6896 -0.7930
27645SOL    HW283514   5.284   1.864   6.339  0.1449  1.1535  1.1753
27646SOL     OW83515   3.948   5.906   2.688  0.1024  0.9763 -0.2912
27646SOL    HW183516   3.911   5.883   2.602 -0.1159  0.7113 -0.1288
27646SOL    HW283517   3.880   5.960   2.728 -0.6288 -0.4639  0.4750
27647SOL     OW83518   6.564   8.348   5.837 -0.4808 -0.6535  0.3682
27647SOL    HW183519   6.541   8.336   5.745  0.3990  1.6435 -0.2152
27647SOL    HW283520   6.530   8.435   5.859  1.9717  0.1338  1.3150
27648SOL     OW83521   1.891   7.458   9.476 -0.1505  0.3170 -0.5572
27648SOL    HW183522   1.862   7.493   9.560 -1.4617 -0.5785 -0.6196
27648SOL    HW283523   1.914   7.536   9.424 -0.2699  0.9177  0.2765
27649SOL     OW83524   4.778   9.531   4.771 -0.1610  0.3519 -0.2518
27649SOL    HW183525   4.784   9.627   4.770  2.4523  0.2629  0.4488
27649SOL    HW283526   4.830   9.504   4.846 -2.2835 -1.6235  0.6639
27650SOL     OW83527   9.241   5.208   7.406 -0.5856 -0.2534 -0.2709
27650SOL    HW183528   9.199   5.146   7.466 -2.7044 -0.7905 -2.2091
27650SOL    HW283529   9.247   5.161   7.323  0.6101  1.0999 -0.9945
27651SOL     OW83530   4.025   4.032   1.868  0.0232 -0.2220  0.4049
27651SOL    HW183531   4.091   4.099   1.883 -0.0020  0.0756 -0.7541
27651SOL    HW283532   3.944   4.080   1.854 -0.3747 -0.5729  1.4338
27652SOL     OW83533   5.211   2.640   3.940  0.4335 -0.7925  0.1009
27652SOL    HW183534   5.171   2.721   3.971  0.0293 -0.9908  0.1087
27652SOL    HW283535   5.137   2.582   3.922  0.7319 -1.3055  0.4920
27653SOL     OW83536   5.251   5.251   0.208  0.3549  0.1078  0.4155
27653SOL    HW183537   5.263   5.200   0.127  1.7047  1.5885 -0.3719
27653SOL    HW283538   5.227   5.186   0.273 -2.4852 -0.9480 -1.5079
27654SOL     OW83539   4.659   9.937   5.287  0.0648 -0.1143 -0.2314
27654SOL    HW183540   4.626  10.023   5.312  0.1523 -0.5152  1.4081
27654SOL    HW283541   4.629   9.924   5.197 -1.6787  0.7883  0.1863
27655SOL     OW83542   9.988   4.732   5.825  0.0647  0.1896 -0.2876
27655SOL    HW183543   9.931   4.663   5.789  0.1951 -2.0217  3.2595
27655SOL    HW283544   9.931   4.783   5.882  0.2376  2.4652 -2.0229
27656SOL     OW83545   0.304   7.729   1.834 -0.2276  0.0772  0.0993
27656SOL    HW183546   0.320   7.746   1.741 -0.6747  1.2948  0.2308
27656SOL    HW283547   0.278   7.814   1.870 -0.5223 -0.4779  1.2413
27657SOL     OW83548   4.702   5.869   0.956 -0.3256  0.2801  0.0232
27657SOL    HW183549   4.720   5.937   0.892  0.4183 -0.1501 -0.2441
27657SOL    HW283550   4.677   5.792   0.904 -1.6764  0.4771  0.3396
27658SOL     OW83551   3.055   1.488   9.498  0.0693 -0.4918 -0.1210
27658SOL    HW183552   3.007   1.524   9.423 -0.5463 -3.9491 -1.5862
27658SOL    HW283553   2.987   1.469   9.563  0.6132  2.5899  1.5144
27659SOL     OW83554   6.246   8.933   4.590  0.3636  0.4785 -0.1293
27659SOL    HW183555   6.193   8.863   4.628  0.8497  0.1202 -0.1020
27659SOL    HW283556   6.211   9.013   4.629  0.0961  0.2138  0.1850
27660SOL     OW83557   4.799   1.210   6.736  0.3673  0.1546 -0.1314
27660SOL    HW183558   4.819   1.120   6.713  0.8092  0.2397 -0.0964
27660SOL    HW283559   4.711   1.207   6.773  0.4470 -0.2882  0.0278
27661SOL     OW83560   4.452   1.153   5.470 -0.2322 -0.5266  0.7593
27661SOL    HW183561   4.406   1.237   5.464 -1.6843 -1.3496 -0.0191
27661SOL    HW283562   4.501   1.146   5.389 -2.2561 -1.6047 -0.4437
27662SOL     OW83563   9.680   0.693   6.267  0.3131  0.4119 -0.4670
27662SOL    HW183564   9.745   0.632   6.303  0.0457  0.6160  0.3741
27662SOL    HW283565   9.727   0.777   6.262 -0.4988  1.1251  2.3052
27663SOL     OW83566   5.177   4.548   9.584 -0.4017  0.1198  0.4378
27663SOL    HW183567   5.272   4.541   9.596 -0.4983  0.7516  1.7387
27663SOL    HW283568   5.163   4.637   9.553 -0.6881  0.6540  1.9959
27664SOL     OW83569   1.880   1.304   5.758 -0.0774  0.3693 -0.0040
27664SOL    HW183570   1.917   1.390   5.737 -0.7942  0.3097 -1.6669
27664SOL    HW283571   1.948   1.242   5.731  0.0747  0.3774  0.3552
27665SOL     OW83572   2.782   8.118   8.647  0.2874  0.2308  0.4637
27665SOL    HW183573   2.842   8.090   8.577  1.2797 -1.8448  2.0190
27665SOL    HW283574   2.766   8.210   8.629  1.3297  0.0382 -1.8921
27666SOL     OW83575   9.012   1.481   2.983  0.5182 -0.2243  0.6160
27666SOL    HW183576   8.984   1.515   2.898  0.3064 -1.4783  0.1610
27666SOL    HW283577   9.075   1.546   3.016 -1.4350  1.7201  0.7978
27667SOL     OW83578   6.547   7.021   4.283 -0.2785 -0.1943 -0.6019
27667SOL    HW183579   6.560   6.976   4.366 -0.6455 -0.7371 -0.8327
27667SOL    HW283580   6.509   7.106   4.308 -0.4541 -0.3823 -0.2221
27668SOL     OW83581   8.611   5.102   9.060  0.3033  0.0441 -0.0135
27668SOL    HW183582   8.684   5.108   8.998 -0.5113 -0.2234 -1.0327
27668SOL    HW283583   8.606   5.010   9.084  0.0714 -0.0061 -0.2443
27669SOL     OW83584   2.387   2.400   7.569  0.1777  0.4389  0.3846
27669SOL    HW183585   2.428   2.386   7.484 -0.8254  1.9537 -0.4036
27669SOL    HW283586   2.455   2.375   7.633  0.5807 -1.7325 -0.8036
27670SOL     OW83587   2.067   4.682   0.212  0.0790  0.0079  0.0125
27670SOL    HW183588   2.081   4.732   0.292 -0.4356 -1.7865  1.2959
27670SOL    HW283589   2.048   4.747   0.145  1.7856  1.6617  1.0383
27671SOL     OW83590   1.103   4.110   0.712  0.0247  0.4486  0.7683
27671SOL    HW183591   1.178   4.056   0.686 -0.4485 -1.0623  2.3551
27671SOL    HW283592   1.027   4.058   0.687 -0.4539  0.8319  1.4158
27672SOL     OW83593   3.473   8.172   9.592 -0.0630  1.0058  0.1910
27672SOL    HW183594   3.438   8.096   9.638  0.0561  1.4063  0.9575
27672SOL    HW283595   3.427   8.173   9.508 -0.0985  0.1227  0.1933
27673SOL     OW83596   5.680   0.958   0.531 -0.4807 -0.0500  0.7950
27673SOL    HW183597   5.647   1.041   0.497 -1.6104 -1.2326 -1.2284
27673SOL    HW283598   5.772   0.975   0.552 -0.4909  1.5322 -0.2969
27674SOL     OW83599   1.511   3.856   0.903 -0.5386 -0.8969  0.3410
27674SOL    HW183600   1.436   3.796   0.904 -1.5681  0.2902 -0.8600
27674SOL    HW283601   1.513   3.893   0.991 -2.4521  0.2719 -0.0409
27675SOL     OW83602   9.401   5.700   6.977 -0.1946  0.2000 -0.0826
27675SOL    HW183603   9.326   5.710   6.918 -2.1061  0.2617  2.2122
27675SOL    HW283604   9.362   5.691   7.064  2.4320 -1.2026  1.0645
27676SOL     OW83605   0.048   6.164   7.636 -0.5700 -0.0333  0.5493
27676SOL    HW183606   0.065   6.234   7.699 -0.7484  1.2845 -0.7996
27676SOL    HW283607  -0.002   6.207   7.566  0.5804 -1.1443 -1.0258
27677SOL     OW83608   1.531   7.796   1.958 -0.3428  0.4771 -0.2638
27677SOL    HW183609   1.545   7.846   1.878  1.0994  0.9829  0.2643
27677SOL    HW283610   1.573   7.848   2.026  0.3595 -0.9796  0.4603
27678SOL     OW83611   3.593   3.519   5.541 -0.5739  0.0701 -0.0152
27678SOL    HW183612   3.498   3.518   5.529 -0.5999  1.4548 -0.0633
27678SOL    HW283613   3.611   3.441   5.594 -1.7967  0.0712  0.4388
27679SOL     OW83614   0.143   0.965   0.726 -0.3956 -0.1131  0.2150
27679SOL    HW183615   0.078   1.015   0.775 -0.5625 -0.1221  0.0039
27679SOL    HW283616   0.226   1.009   0.745 -0.7316  1.3055 -1.2806
27680SOL     OW83617   7.969   5.141   8.067  0.3479  0.5758 -0.9541
27680SOL    HW183618   7.941   5.176   8.152  0.6572  1.6120 -1.2735
27680SOL    HW283619   8.062   5.163   8.062  0.2717  0.7336 -1.6757
27681SOL     OW83620   0.355   5.595   4.389 -0.3084  0.3437  0.1336
27681SOL    HW183621   0.433   5.545   4.412  0.5797  0.1293 -2.9667
27681SOL    HW283622   0.387   5.683   4.371 -0.8133  0.3452 -0.8206
27682SOL     OW83623   4.354   9.759   3.038  0.1793 -0.2975 -0.0689
27682SOL    HW183624   4.443   9.726   3.026  0.2466 -0.1798  0.0968
27682SOL    HW283625   4.319   9.709   3.111  0.4715  0.3610  0.5376
27683SOL     OW83626   8.934   8.596   9.716 -0.8028 -0.2609 -0.4567
27683SOL    HW183627   8.931   8.523   9.777  0.2292 -0.2551 -0.3723
27683SOL    HW283628   9.028   8.611   9.701 -0.9738  1.2286 -0.2269
27684SOL     OW83629   5.100   5.338   6.881 -0.2561  0.2467  0.0881
27684SOL    HW183630   5.076   5.391   6.958  1.7623  0.9316  0.2973
27684SOL    HW283631   5.186   5.303   6.902 -0.2401 -0.6261 -1.3447
27685SOL     OW83632   2.665   8.445   3.413 -0.1967  0.0658 -0.0200
27685SOL    HW183633   2.739   8.425   3.470  0.2785 -1.2468 -1.0500
27685SOL    HW283634   2.681   8.535   3.384 -0.8119  1.0273  2.3879
27686SOL     OW83635   5.964   6.302   9.734 -0.6023 -0.4556  0.0633
27686SOL    HW183636   6.047   6.275   9.774 -1.2301 -0.8242  1.1609
27686SOL    HW283637   5.938   6.228   9.680 -0.3538 -0.4534 -0.0589
27687SOL     OW83638   0.167   2.102   8.361 -0.0281 -0.0080  0.1863
27687SOL    HW183639   0.175   2.126   8.269 -0.5967 -0.7685 -0.0667
27687SOL    HW283640   0.073   2.089   8.375  0.0945 -0.3130  0.7661
27688SOL     OW83641   5.186   5.864   1.172 -0.0791  0.5129 -0.1506
27688SOL    HW183642   5.258   5.906   1.125  0.7936 -1.9102 -1.1787
27688SOL    HW283643   5.186   5.774   1.139 -1.7131 -0.3488  1.9825
27689SOL     OW83644   3.713   3.156   3.745  0.2890 -0.5242  0.1608
27689SOL    HW183645   3.619   3.173   3.740  0.5189  0.8672  0.2524
27689SOL    HW283646   3.747   3.182   3.660  0.6182 -0.8508  0.1913
27690SOL     OW83647   9.039   2.187   2.780 -0.1376 -0.3176  0.2043
27690SOL    HW183648   9.093   2.126   2.829 -1.4406 -1.2945  0.4882
27690SOL    HW283649   9.079   2.190   2.693  2.1747  1.4010  1.2141
27691SOL     OW83650   3.035   7.141   1.488 -0.1192 -0.1695 -0.2841
27691SOL    HW183651   3.045   7.056   1.531  0.0067  1.0457  2.2564
27691SOL    HW283652   3.114   7.151   1.436  0.2508 -1.2419  0.0367
27692SOL     OW83653   5.708   9.750   6.629  0.4535 -0.1109 -0.2337
27692SOL    HW183654   5.761   9.671   6.617  1.3458  0.5190 -0.5902
27692SOL    HW283655   5.703   9.761   6.724 -0.9411 -1.3997 -0.1207
27693SOL     OW83656   1.856   5.759   2.395  0.1332  0.5579  0.1322
27693SOL    HW183657   1.947   5.740   2.374 -0.3122 -0.4603 -0.9988
27693SOL    HW283658   1.853   5.854   2.409  1.1118  0.7803 -1.0890
27694SOL     OW83659   2.095   9.522   7.326  0.3538 -0.4488  0.6826
27694SOL    HW183660   2.145   9.579   7.385  0.9697 -1.6746  1.3739
27694SOL    HW283661   2.140   9.438   7.329  0.3156 -0.5946 -1.4667
27695SOL     OW83662   3.416   9.842   4.560 -0.6047  0.1471  0.0211
27695SOL    HW183663   3.386   9.823   4.471 -0.7411  0.1834  0.0586
27695SOL    HW283664   3.380   9.771   4.613 -2.0157  1.0704  0.3404
27696SOL     OW83665   4.085   1.829   3.237  0.5072  0.5326  0.7980
27696SOL    HW183666   4.024   1.756   3.230  1.5907 -0.4909  1.6522
27696SOL    HW283667   4.153   1.809   3.173  1.2911  0.2965  1.6856
27697SOL     OW83668   9.097   0.319   5.905 -0.6901 -0.0645  0.0499
27697SOL    HW183669   9.005   0.294   5.898 -0.3935 -0.8652 -1.4131
27697SOL    HW283670   9.107   0.389   5.840 -0.4934  0.7691  0.9590
27698SOL     OW83671   4.355   8.346   5.660 -0.0943 -0.0434  0.2787
27698SOL    HW183672   4.339   8.271   5.602 -2.8391  0.0091  0.8223
27698SOL    HW283673   4.405   8.310   5.733 -0.3453 -1.1063 -0.0586
27699SOL     OW83674   4.430   0.179   2.058  0.1295  0.2483 -0.0511
27699SOL    HW183675   4.355   0.127   2.086  1.0311 -1.3771 -0.5308
27699SOL    HW283676   4.396   0.269   2.050 -1.9969 -0.5946 -1.1847
27700SOL     OW83677   1.050   3.822   3.331  0.7113 -0.8525  0.2858
27700SOL    HW183678   1.046   3.849   3.239  0.1242 -1.0729  0.2407
27700SOL    HW283679   0.996   3.743   3.335  1.1982 -1.1649  0.7090
27701SOL     OW83680   9.673   6.341   0.614  0.4530  0.2374 -0.2595
27701SOL    HW183681   9.677   6.265   0.671  0.4794  1.7295  1.8221
27701SOL    HW283682   9.604   6.321   0.551  0.1562 -1.3120  0.5212
27702SOL     OW83683   1.802   3.675   7.565  0.5941  0.4934 -0.3085
27702SOL    HW183684   1.773   3.689   7.475  2.6634  1.1321 -0.9188
27702SOL    HW283685   1.768   3.589   7.588 -0.0260  0.3573 -1.6585
27703SOL     OW83686   2.447   2.680   7.239 -0.3257 -0.5030  0.2667
27703SOL    HW183687   2.507   2.689   7.165  0.4041  0.2473  0.9243
27703SOL    HW283688   2.361   2.669   7.199  0.0824 -0.3310 -0.6921
27704SOL     OW83689   1.779   9.921   8.691  0.0260 -0.7236  0.1566
27704SOL    HW183690   1.854   9.978   8.672 -0.0997 -0.3756  0.6837
27704SOL    HW283691   1.741   9.957   8.771 -1.1217 -0.4779 -0.4797
27705SOL     OW83692   9.319   9.683   7.501  0.3253  0.0958 -0.0072
27705SOL    HW183693   9.394   9.732   7.534  1.2707  0.3180 -2.2958
27705SOL    HW283694   9.328   9.596   7.540  1.5558  0.2472  0.0966
27706SOL     OW83695   8.190   0.599   8.834  0.6053 -0.0633  0.3153
27706SOL    HW183696   8.099   0.571   8.830  0.8377 -1.0022  1.1406
27706SOL    HW283697   8.230   0.561   8.755  0.4981 -0.5176  0.4732
27707SOL     OW83698   7.604   0.820   5.274 -0.0523  0.4013  0.4573
27707SOL    HW183699   7.534   0.876   5.239  0.8853  1.1345 -0.3077
27707SOL    HW283700   7.589   0.735   5.232 -0.6637  0.4620  0.5430
27708SOL     OW83701   0.381   8.255   0.470  0.4759 -0.1133 -0.6635
27708SOL    HW183702   0.404   8.163   0.480 -0.1620 -0.1338  0.9227
27708SOL    HW283703   0.344   8.262   0.382 -0.1692 -1.5387 -0.5257
27709SOL     OW83704   2.506   3.191   0.186 -0.3199  0.4858  0.6570
27709SOL    HW183705   2.467   3.271   0.221  0.3535  1.0635  0.1512
27709SOL    HW283706   2.437   3.151   0.134 -1.3021 -0.3442  2.5353
27710SOL     OW83707   2.054   3.880   0.646  0.2209 -0.5978  0.0051
27710SOL    HW183708   2.042   3.882   0.551  5.5210  0.6051 -0.9352
27710SOL    HW283709   2.027   3.967   0.676 -0.1520 -0.5023 -0.5999
27711SOL     OW83710   2.229   6.238   2.030 -0.6725  0.0651  0.2401
27711SOL    HW183711   2.235   6.143   2.024  0.2929  0.1061  0.3164
27711SOL    HW283712   2.288   6.270   1.962 -0.7573  0.6028  0.4148
27712SOL     OW83713   4.190   5.598   6.121 -0.1519  0.4272  0.1635
27712SOL    HW183714   4.237   5.607   6.038  0.0983  1.9904  0.4488
27712SOL    HW283715   4.257   5.607   6.188 -0.6276  1.3202  0.5478
27713SOL     OW83716   6.586   7.128   2.525  0.5360  0.2151 -0.4843
27713SOL    HW183717   6.650   7.059   2.507 -0.0988 -0.7272  0.7097
27713SOL    HW283718   6.514   7.083   2.569 -0.6498  1.3720 -1.1664
27714SOL     OW83719   0.885   3.225   2.099 -0.2796 -0.0094  0.3335
27714SOL    HW183720   0.852   3.200   2.012 -2.1367  1.1797  0.6550
27714SOL    HW283721   0.841   3.164   2.159  0.2815 -0.2289  0.5214
27715SOL     OW83722   9.594   4.236   4.314  0.4252  0.1130  0.1711
27715SOL    HW183723   9.658   4.195   4.256 -2.0395 -0.7689 -2.1266
27715SOL    HW283724   9.594   4.181   4.393  2.7574  0.4381  0.4720
27716SOL     OW83725   2.893   1.902   5.855 -0.2728  0.4283 -0.0073
27716SOL    HW183726   2.862   1.983   5.894 -0.1406  0.3399  0.2852
27716SOL    HW283727   2.850   1.833   5.906  0.6216  0.3026  0.5864
27717SOL     OW83728   3.797   0.747   8.820 -0.3646 -0.5257  0.6141
27717SOL    HW183729   3.886   0.715   8.809 -0.6300 -1.0238 -0.0865
27717SOL    HW283730   3.778   0.795   8.739 -0.8639 -0.7228  0.6119
27718SOL     OW83731   3.400   3.374   7.379  0.3930 -0.0404 -0.2324
27718SOL    HW183732   3.402   3.316   7.456  0.5843  0.0937 -0.1365
27718SOL    HW283733   3.440   3.455   7.409  0.4019  0.0384 -0.4557
27719SOL     OW83734   3.899   1.374   9.201  0.0986 -0.0390  0.3979
27719SOL    HW183735   3.810   1.409   9.203 -0.0930 -0.4861 -0.0239
27719SOL    HW283736   3.932   1.400   9.115  0.7864  1.1079  0.9974
27720SOL     OW83737   6.022   5.001   9.202  0.1752  0.0470 -0.2130
27720SOL    HW183738   6.104   5.025   9.160  0.6810  0.5768  1.0233
27720SOL    HW283739   5.960   4.990   9.130  1.3851 -0.6239 -1.1787
27721SOL     OW83740   7.892   8.854   6.140 -0.0338  0.7778 -0.1920
27721SOL    HW183741   7.979   8.882   6.168 -0.3832 -0.5276  2.5695
27721SOL    HW283742   7.880   8.768   6.181 -2.8852  1.2688  0.2276
27722SOL     OW83743   4.123   4.082   5.359 -0.1411  0.3484  0.1079
27722SOL    HW183744   4.087   4.014   5.415 -0.2630  1.1543  1.0398
27722SOL    HW283745   4.047   4.131   5.328  0.0745  2.2313  2.3089
27723SOL     OW83746   6.505   5.203   6.686  0.3553  0.5714 -0.1362
27723SOL    HW183747   6.459   5.141   6.743 -0.0142  1.4138  0.5126
27723SOL    HW283748   6.484   5.289   6.722  1.5626  1.0434 -0.4949
27724SOL     OW83749   4.545   5.763   4.983 -0.0590  0.0642 -0.1487
27724SOL    HW183750   4.494   5.838   5.013 -0.3474  0.0878 -0.6789
27724SOL    HW283751   4.512   5.746   4.894 -1.5807 -2.0793  0.7317
27725SOL     OW83752   4.048   7.854   8.996  0.3741  0.3765 -0.6133
27725SOL    HW183753   4.095   7.936   9.004 -1.8998  1.5414  3.1411
27725SOL    HW283754   4.100   7.803   8.933  3.8292  3.2551 -0.4184
27726SOL     OW83755   7.909   2.595   8.427 -0.0873 -0.4816  0.6908
27726SOL    HW183756   7.857   2.650   8.368  1.3248 -0.5528 -0.7080
27726SOL    HW283757   7.849   2.526   8.454 -0.6175 -0.9094 -1.3533
27727SOL     OW83758   0.718   7.864   4.513  0.2044 -0.2659 -0.8912
27727SOL    HW183759   0.790   7.807   4.543  0.7355 -0.2629 -2.1090
27727SOL    HW283760   0.639   7.823   4.548  0.7449 -0.5379  0.0711
27728SOL     OW83761   9.543   0.127   2.317 -0.3280 -0.3111  0.4962
27728SOL    HW183762   9.618   0.081   2.355 -0.3647 -0.3509  0.5202
27728SOL    HW283763   9.566   0.220   2.324  0.8291 -0.3620 -1.7233
27729SOL     OW83764   5.108   8.559   5.720 -0.1402 -0.5441 -0.1795
27729SOL    HW183765   5.138   8.475   5.755 -2.7141 -1.6994 -0.5682
27729SOL    HW283766   5.140   8.559   5.630  3.1724  0.7252  0.8352
27730SOL     OW83767   1.070   5.075   6.275  0.1411  0.3021 -0.2331
27730SOL    HW183768   1.158   5.109   6.291  1.0079 -0.6520 -2.5596
27730SOL    HW283769   1.012   5.147   6.298  1.5165  1.0113  1.1922
27731SOL     OW83770   2.355   0.618   6.968 -0.2166 -0.1599  0.0318
27731SOL    HW183771   2.261   0.613   6.986  0.1442 -0.3736  2.0003
27731SOL    HW283772   2.365   0.701   6.920 -1.3531  0.0238  0.0802
27732SOL     OW83773   4.317   9.891   0.179  0.0326 -0.6280 -0.0007
27732SOL    HW183774   4.381   9.845   0.125  0.9022  1.2734 -0.6646
27732SOL    HW283775   4.369   9.954   0.230 -1.1593  0.0834  0.3794
27733SOL     OW83776   1.542   4.963   6.152 -0.0401  0.1322  0.5664
27733SOL    HW183777   1.544   4.884   6.098  0.7332  0.2980  0.3420
27733SOL    HW283778   1.551   4.930   6.242  1.4930  0.0238  0.3944
27734SOL     OW83779   9.718   7.675   6.234 -0.4087  0.0886 -0.1234
27734SOL    HW183780   9.783   7.613   6.267  0.1153  0.5857 -0.2151
27734SOL    HW283781   9.634   7.631   6.248 -0.2033  0.2379  1.7966
27735SOL     OW83782   6.605   2.047   3.143 -0.6893 -0.1795  0.0391
27735SOL    HW183783   6.591   1.969   3.196  2.0736 -1.4031 -0.8511
27735SOL    HW283784   6.659   2.104   3.199  0.5054 -0.5886 -0.6743
27736SOL     OW83785   3.121   0.876   6.983  0.3198 -0.4889  0.2676
27736SOL    HW183786   3.170   0.943   6.935 -0.2774 -0.0816  0.2251
27736SOL    HW283787   3.094   0.919   7.064 -0.9286 -0.3569 -0.2044
27737SOL     OW83788   2.275   4.724   5.097  0.1403  0.1051 -0.8346
27737SOL    HW183789   2.199   4.770   5.132  0.7108 -1.2749  2.6475
27737SOL    HW283790   2.246   4.633   5.088  0.9467 -0.1592 -0.8799
27738SOL     OW83791   3.982   3.475   3.529 -0.0575 -0.4241  0.3869
27738SOL    HW183792   4.007   3.469   3.621  0.4102  3.1220  0.6210
27738SOL    HW283793   4.063   3.494   3.483 -0.8342  2.0044 -0.1146
27739SOL     OW83794   7.282   6.950   0.804 -0.1333 -0.2757  0.0426
27739SOL    HW183795   7.378   6.949   0.810 -0.2153 -0.1281  2.4208
27739SOL    HW283796   7.262   7.023   0.746  1.1872  1.5362  1.7341
27740SOL     OW83797   1.818   2.336   9.002  0.6168  0.0979  0.5735
27740SOL    HW183798   1.877   2.337   8.926  0.2873  2.0208  0.2709
27740SOL    HW283799   1.761   2.261   8.987  0.8786  0.1506 -0.8367
27741SOL     OW83800   3.559   3.816   4.095 -0.9243 -0.4317 -0.0542
27741SOL    HW183801   3.597   3.832   4.008  1.3228  1.3712  1.1526
27741SOL    HW283802   3.600   3.735   4.124 -1.4424 -0.8716 -0.5178
27742SOL     OW83803   8.613   3.860   9.285  0.2331 -0.6615 -0.1289
27742SOL    HW183804   8.543   3.911   9.326  0.7743  1.2081 -1.3960
27742SOL    HW283805   8.604   3.879   9.192  1.1974 -2.0018 -0.5135
27743SOL     OW83806   7.125   9.145   1.171 -0.2663 -0.1883 -0.5039
27743SOL    HW183807   7.203   9.175   1.216  0.6436  0.2962 -2.3058
27743SOL    HW283808   7.132   9.181   1.082 -1.5333 -1.7712 -1.3186
27744SOL     OW83809   9.687   3.875   1.069  0.4550 -0.3473  0.3466
27744SOL    HW183810   9.630   3.951   1.065 -0.0843 -0.5860  2.4219
27744SOL    HW283811   9.772   3.907   1.039  0.0590  0.8910  0.4918
27745SOL     OW83812   4.555   0.157   0.717  0.5485 -0.0077  0.0885
27745SOL    HW183813   4.595   0.139   0.802  0.8680 -0.1643 -0.0938
27745SOL    HW283814   4.619   0.210   0.671  0.5255 -0.2218 -0.1896
27746SOL     OW83815   3.828   7.167   1.845 -0.0314 -0.1962 -0.0885
27746SOL    HW183816   3.901   7.145   1.787 -0.6154 -2.3674 -0.0844
27746SOL    HW283817   3.765   7.211   1.788  1.2989  1.9017 -0.0470
27747SOL     OW83818   5.293   0.024   5.932 -0.0791 -0.3342  0.5143
27747SOL    HW183819   5.320   0.113   5.912  1.6582 -0.7331  0.9472
27747SOL    HW283820   5.363  -0.011   5.987  0.1891 -2.5600 -1.1085
27748SOL     OW83821   2.135   9.092   8.790 -0.3411  0.0825  0.6279
27748SOL    HW183822   2.052   9.067   8.749 -1.0218  1.9495  0.7994
27748SOL    HW283823   2.110   9.132   8.873  0.7773  0.2183  0.9163
27749SOL     OW83824   1.797   0.663   7.496  0.4556  0.3676 -0.4203
27749SOL    HW183825   1.751   0.735   7.452  0.7021  0.1754 -1.0060
27749SOL    HW283826   1.834   0.703   7.575 -0.1943  0.6632 -0.2589
27750SOL     OW83827   3.524   6.017   3.274  0.4970 -0.0258 -0.1283
27750SOL    HW183828   3.600   6.071   3.297  2.0110 -2.3260  0.5844
27750SOL    HW283829   3.520   5.951   3.342 -1.6371 -0.5057 -0.6535
27751SOL     OW83830   1.561   6.370   3.616  0.3612 -1.1477 -0.1380
27751SOL    HW183831   1.609   6.419   3.682  1.1932 -1.6961 -0.3209
27751SOL    HW283832   1.586   6.279   3.630 -0.9005 -1.4887 -0.0203
27752SOL     OW83833   2.554   4.405   2.517  0.3292  0.0102 -0.0938
27752SOL    HW183834   2.549   4.482   2.460  0.3722 -1.0298 -1.5500
27752SOL    HW283835   2.493   4.342   2.478  0.1129 -0.6333  1.2057
27753SOL     OW83836   5.989   0.940   4.116 -0.6142 -0.1880 -0.6827
27753SOL    HW183837   5.938   0.863   4.092 -2.1186 -0.4003  2.6100
27753SOL    HW283838   6.081   0.913   4.107 -1.1153 -1.9610 -0.7369
27754SOL     OW83839   1.337   2.761   7.038  0.5724  0.6874  0.2542
27754SOL    HW183840   1.300   2.776   6.951 -0.8686  0.8305  0.8701
27754SOL    HW283841   1.424   2.725   7.021  0.2272  0.4984 -1.2389
27755SOL     OW83842   6.942   2.907   7.290  1.0418  0.1891 -0.3012
27755SOL    HW183843   6.875   2.962   7.248 -0.2980 -1.7362 -0.7896
27755SOL    HW283844   7.024   2.934   7.247  0.2836  1.0814 -1.2562
27756SOL     OW83845   7.269   1.172   9.511 -0.1127 -0.2624 -0.9250
27756SOL    HW183846   7.352   1.163   9.466  0.4935  0.9594 -0.0922
27756SOL    HW283847   7.292   1.178   9.604 -1.1055  0.2936 -0.6951
27757SOL     OW83848   3.443   8.983   3.625  0.2435 -0.2642  0.4444
27757SOL    HW183849   3.524   8.977   3.574 -0.4448 -1.6788 -0.5183
27757SOL    HW283850   3.444   8.905   3.680 -0.5534 -0.3822  0.2936
27758SOL     OW83851   5.289   8.696   5.377  0.1894 -0.1891  0.0837
27758SOL    HW183852   5.321   8.755   5.445  0.5353  1.0781 -1.1457
27758SOL    HW283853   5.331   8.612   5.397 -0.1296 -0.0094  1.7133
27759SOL     OW83854   9.896   4.840   0.969 -0.2552 -0.1917 -0.2522
27759SOL    HW183855   9.820   4.877   0.925 -0.9121  0.4681  1.3626
27759SOL    HW283856   9.955   4.915   0.982  0.2832 -0.5309 -0.7037
27760SOL     OW83857   1.188   0.400   7.376 -0.0309 -0.0247 -0.3646
27760SOL    HW183858   1.097   0.371   7.382  0.2242 -0.7008  0.3964
27760SOL    HW283859   1.228   0.372   7.458  0.3750  2.0490  0.2100
27761SOL     OW83860   5.970   8.791   3.990  0.1713 -0.2953 -0.1599
27761SOL    HW183861   5.885   8.796   3.946  0.9491 -0.8275 -1.7768
27761SOL    HW283862   5.948   8.768   4.081 -1.3959 -0.9640 -0.6684
27762SOL     OW83863   8.115   8.964   6.220 -0.2408  0.8114  0.2814
27762SOL    HW183864   8.062   9.043   6.236 -0.5163  0.3524  1.7244
27762SOL    HW283865   8.191   8.973   6.277  0.9799  1.1651 -1.3296
27763SOL     OW83866   1.134   2.954   4.345 -0.1761  0.0520  0.1959
27763SOL    HW183867   1.070   3.025   4.339 -0.3418 -0.0683  0.5032
27763SOL    HW283868   1.217   2.999   4.366 -0.0830  0.2387 -0.5394
27764SOL     OW83869   7.086   2.406   4.934  0.4417 -0.3079 -0.1201
27764SOL    HW183870   7.111   2.473   4.870  0.3709  0.5145  0.6984
27764SOL    HW283871   7.160   2.345   4.936  0.3123 -0.5221 -1.2055
27765SOL     OW83872   5.056   7.556   1.659 -0.2586  0.5319  0.2099
27765SOL    HW183873   4.982   7.562   1.719  0.8419  1.4387  1.5696
27765SOL    HW283874   5.131   7.583   1.712  0.7669  1.4658 -1.6282
27766SOL     OW83875   1.458   2.842   1.851  0.1050  0.5880 -0.0772
27766SOL    HW183876   1.422   2.760   1.886 -1.7837  0.8172 -1.2986
27766SOL    HW283877   1.434   2.908   1.915  0.5915  0.3637  0.3403
27767SOL     OW83878   2.185   0.202   4.500  0.1002  0.1011 -0.8534
27767SOL    HW183879   2.131   0.124   4.510 -0.4916  0.7442  1.5360
27767SOL    HW283880   2.136   0.258   4.439 -0.1815 -0.7571 -1.4307
27768SOL     OW83881   0.923   5.469   4.110  0.8048  0.3367  0.6330
27768SOL    HW183882   1.006   5.428   4.086  1.4214 -0.0620  3.2485
27768SOL    HW283883   0.948   5.557   4.138  0.2446  0.4668  0.7247
27769SOL     OW83884   5.696   0.808   2.198  0.0072  0.5437 -0.2677
27769SOL    HW183885   5.712   0.892   2.242  1.0478 -0.9567  2.4580
27769SOL    HW283886   5.781   0.782   2.162  0.3773 -0.5510  1.2957
27770SOL     OW83887   1.584   6.735   1.371  0.4290  0.2116  0.1066
27770SOL    HW183888   1.664   6.689   1.344  0.7756 -0.7363  2.4826
27770SOL    HW283889   1.614   6.792   1.442 -0.7556  1.0622 -0.0591
27771SOL     OW83890   9.369   8.944   1.798  0.6134 -0.4380  0.2340
27771SOL    HW183891   9.373   9.034   1.832 -2.4434  0.1777 -0.6979
27771SOL    HW283892   9.428   8.945   1.723  1.4784  0.4336  0.8931
27772SOL     OW83893   8.694   9.195   5.997 -0.3759 -0.3907  0.0095
27772SOL    HW183894   8.750   9.120   6.016 -2.8244 -1.6238  3.2310
27772SOL    HW283895   8.615   9.156   5.959 -0.7233  0.8651 -0.6016
27773SOL     OW83896   5.231   2.610   1.287 -0.1330 -0.0079  0.0103
27773SOL    HW183897   5.310   2.662   1.279  0.9979 -1.3439  1.6708
27773SOL    HW283898   5.226   2.559   1.206  0.9785 -0.2518  0.0856
27774SOL     OW83899   4.040   5.656   2.162  0.0680  0.0647 -0.3163
27774SOL    HW183900   4.110   5.698   2.111 -0.8988  0.7999 -1.0614
27774SOL    HW283901   4.003   5.590   2.104 -0.1583 -0.0122 -0.0883
27775SOL     OW83902   9.371   3.707   8.965 -0.3945 -0.9347 -0.5390
27775SOL    HW183903   9.457   3.680   8.934  0.1788  2.0428 -1.8883
27775SOL    HW283904   9.328   3.746   8.888 -2.0067 -0.2611  0.6271
27776SOL     OW83905   3.845   7.817   7.772 -0.3586  0.1069 -0.0252
27776SOL    HW183906   3.822   7.855   7.687  0.4595  0.3771 -0.1361
27776SOL    HW283907   3.939   7.799   7.766 -0.5463 -1.0984  0.3560
27777SOL     OW83908   8.649   0.429   0.517 -0.2437 -0.4546 -0.1790
27777SOL    HW183909   8.659   0.356   0.455 -0.5134 -0.2513 -0.4633
27777SOL    HW283910   8.555   0.430   0.536 -0.6239  1.1977 -1.8692
27778SOL     OW83911   1.869   0.632   3.340 -0.2140  0.3461  0.3221
27778SOL    HW183912   1.881   0.633   3.245 -1.6442  2.3294  0.1036
27778SOL    HW283913   1.850   0.540   3.361  1.9566 -0.4771 -0.9986
27779SOL     OW83914   3.895   2.128   0.337 -0.2309 -0.0779 -0.2159
27779SOL    HW183915   3.910   2.049   0.285 -1.1548 -0.7368  0.4884
27779SOL    HW283916   3.917   2.200   0.278  0.6150 -0.8541 -0.8777
27780SOL     OW83917   9.527   0.094   3.734  0.5454 -0.6368 -0.1465
27780SOL    HW183918   9.436   0.085   3.706  0.6167  0.1735 -0.6484
27780SOL    HW283919   9.523   0.079   3.829 -0.4352  1.3641  0.1862
27781SOL     OW83920   9.497   5.494   6.266 -0.2329 -0.6517  0.4918
27781SOL    HW183921   9.571   5.455   6.312 -0.0951 -0.6635  0.2584
27781SOL    HW283922   9.470   5.567   6.322  1.5499  0.9612 -0.6337
27782SOL     OW83923   4.532   6.502   5.495 -0.2128 -0.6762  0.4450
27782SOL    HW183924   4.484   6.438   5.547 -0.0588 -2.1190 -1.1142
27782SOL    HW283925   4.611   6.456   5.467 -0.0774  0.1975 -0.7001
27783SOL     OW83926   3.671   1.576   1.648  0.1976 -0.0195  0.2556
27783SOL    HW183927   3.743   1.556   1.588  0.7231 -0.4586  1.0274
27783SOL    HW283928   3.620   1.496   1.653 -0.9735  0.5876 -1.0946
27784SOL     OW83929   5.600   2.642   9.152  0.2058  0.0529  0.1232
27784SOL    HW183930   5.552   2.595   9.083 -2.3697  1.6885  0.6576
27784SOL    HW283931   5.650   2.709   9.105 -0.5506  0.3652 -0.2522
27785SOL     OW83932   6.219   3.149   9.855 -0.5252  0.1574 -0.2460
27785SOL    HW183933   6.127   3.156   9.828 -1.1644  0.2330  1.7872
27785SOL    HW283934   6.268   3.189   9.783 -2.2305  1.8240 -0.5666
27786SOL     OW83935   4.467   2.526   1.775 -0.3322  0.0548  0.2886
27786SOL    HW183936   4.474   2.452   1.836  0.0810 -0.8902 -0.8710
27786SOL    HW283937   4.408   2.587   1.819  1.7456  0.4839  2.6956
27787SOL     OW83938   1.937   8.533   1.429  0.8217 -0.6814  0.3071
27787SOL    HW183939   1.874   8.552   1.498  0.6675 -1.8045  0.4965
27787SOL    HW283940   1.984   8.615   1.416 -0.7791  0.2463  0.0551
27788SOL     OW83941   2.166   2.831   7.300  0.2400 -0.2743 -0.3488
27788SOL    HW183942   2.162   2.919   7.262  2.5044  1.2691  2.5776
27788SOL    HW283943   2.256   2.803   7.284  0.6461 -0.4299  1.9193
27789SOL     OW83944   8.007   5.671   1.484  0.0230  0.2544  0.0504
27789SOL    HW183945   7.959   5.605   1.534  0.4496  0.8447  1.2812
27789SOL    HW283946   8.091   5.629   1.464 -1.1708 -1.0615 -2.7543
27790SOL     OW83947   5.334   0.721   5.626  0.2027  0.0292  0.3224
27790SOL    HW183948   5.401   0.706   5.692  0.9448  1.6696 -0.0289
27790SOL    HW283949   5.360   0.666   5.552  0.8833  0.2972  0.3652
27791SOL     OW83950   7.666   6.743   4.460 -0.2898  0.4751 -0.5287
27791SOL    HW183951   7.667   6.727   4.555  2.3031  0.6599 -0.4482
27791SOL    HW283952   7.661   6.655   4.422  3.4404 -0.0978 -0.1033
27792SOL     OW83953   7.090   8.787   3.169 -0.3004 -0.0206 -0.4129
27792SOL    HW183954   7.129   8.711   3.127  0.9710  0.6603 -0.5191
27792SOL    HW283955   7.009   8.804   3.119  0.2107 -0.3649 -1.3772
27793SOL     OW83956   3.138   0.731   0.793 -0.2077  0.3054  0.0804
27793SOL    HW183957   3.095   0.655   0.833 -1.6645  0.1598 -1.6156
27793SOL    HW283958   3.135   0.799   0.860  1.1824 -1.1112  1.6522
27794SOL     OW83959   8.236   1.592   2.095 -0.1624  0.4463  0.3165
27794SOL    HW183960   8.168   1.591   2.163 -1.2898  1.3122 -0.7587
27794SOL    HW283961   8.212   1.665   2.038  0.6363 -0.4123 -1.1677
27795SOL     OW83962   2.788   2.755   6.098  0.3193  0.1434 -0.2297
27795SOL    HW183963   2.833   2.787   6.177 -1.9489 -1.1531  1.7405
27795SOL    HW283964   2.740   2.678   6.128 -1.9570  0.5500 -2.5003
27796SOL     OW83965   7.877   4.407   1.564  0.7268  0.0207 -0.0117
27796SOL    HW183966   7.797   4.438   1.606  0.6739 -0.9911  0.6744
27796SOL    HW283967   7.851   4.329   1.516  0.4774  1.9273 -3.2461
27797SOL     OW83968   6.277   8.167   3.081  0.4108 -0.6235 -0.6022
27797SOL    HW183969   6.277   8.074   3.102 -0.8260 -0.1694  1.7286
27797SOL    HW283970   6.190   8.184   3.045  1.6780 -0.8870 -4.3224
27798SOL     OW83971   1.301   2.912   5.035  0.3300  0.1637 -0.4107
27798SOL    HW183972   1.208   2.915   5.059  0.5858  0.0436  0.6497
27798SOL    HW283973   1.344   2.875   5.113  1.1281 -0.8462 -1.3062
27799SOL     OW83974   6.995   8.958   6.643 -0.7101 -0.1163  0.3379
27799SOL    HW183975   7.008   8.877   6.692 -1.1322 -0.6783 -0.4512
27799SOL    HW283976   7.081   8.977   6.605 -0.8610 -0.8407 -0.4130
27800SOL     OW83977   7.129   4.251   8.218  0.3652 -0.0540  0.2414
27800SOL    HW183978   7.150   4.344   8.215  2.4244 -0.3414  2.3760
27800SOL    HW283979   7.046   4.243   8.171  0.6332  2.6756 -0.8569
27801SOL     OW83980   1.000   9.777   0.210  0.7872 -0.0701 -0.3113
27801SOL    HW183981   1.013   9.871   0.194 -2.0747  0.1770 -1.9088
27801SOL    HW283982   1.055   9.734   0.144  1.2825  0.4851 -0.2754
27802SOL     OW83983   0.487   5.487   9.718  0.1529 -0.2267  0.0334
27802SOL    HW183984   0.399   5.450   9.726  0.0606  0.0072  0.1306
27802SOL    HW283985   0.543   5.429   9.769  0.0112 -0.2350  0.1804
27803SOL     OW83986   6.993   4.441   4.494  0.2722  0.3336  0.2489
27803SOL    HW183987   7.077   4.470   4.531 -1.0229  0.7208  3.0790
27803SOL    HW283988   6.977   4.501   4.421  1.1198  2.1102  1.4614
27804SOL     OW83989   9.490   1.140   1.464  0.2872 -0.1062  0.8981
27804SOL    HW183990   9.543   1.200   1.411  0.1385 -1.9477 -1.5455
27804SOL    HW283991   9.443   1.197   1.524  0.8442  2.1442 -0.6406
27805SOL     OW83992   7.252   6.221   7.746 -0.1809 -0.2980  0.0521
27805SOL    HW183993   7.329   6.185   7.788 -1.3987 -1.1437  1.6748
27805SOL    HW283994   7.181   6.205   7.808 -1.2979  2.4772 -0.3524
27806SOL     OW83995   3.976   9.848   5.198 -0.2553 -0.6106  0.3679
27806SOL    HW183996   3.922   9.824   5.273 -0.4371  0.5343  0.6122
27806SOL    HW283997   4.064   9.861   5.235 -0.2555 -0.4547  0.3143
27807SOL     OW83998   6.539   2.932   8.256 -0.1579 -0.2647 -0.2040
27807SOL    HW183999   6.469   2.998   8.257 -1.8051 -1.9457  1.0474
27807SOL    HW284000   6.573   2.936   8.166 -3.2621 -0.7406 -1.5402
27808SOL     OW84001   8.423   2.263   8.114  0.1602  0.0867  0.2448
27808SOL    HW184002   8.403   2.179   8.073 -0.5224  0.0227  0.6907
27808SOL    HW284003   8.482   2.242   8.186  0.1645  0.0189  0.2208
27809SOL     OW84004   0.261   0.620   0.368 -0.0880  0.1597 -0.4035
27809SOL    HW184005   0.166   0.618   0.357 -0.2278 -0.9908  0.8117
27809SOL    HW284006   0.287   0.704   0.329 -1.6320  0.6534 -0.4617
27810SOL     OW84007   6.667   7.788   3.202 -0.0057  0.1067 -0.0620
27810SOL    HW184008   6.654   7.883   3.196 -0.3338  0.0206 -0.9582
27810SOL    HW284009   6.610   7.760   3.274 -0.8527  0.4338 -0.5885
27811SOL     OW84010   3.819   6.439   6.687 -0.1863  0.3156 -0.1514
27811SOL    HW184011   3.857   6.381   6.753 -0.3406  1.3509  0.8767
27811SOL    HW284012   3.894   6.486   6.651 -0.1258 -0.0926 -0.5587
27812SOL     OW84013   9.048   7.213   5.812 -0.2430 -1.0510  0.1316
27812SOL    HW184014   9.097   7.295   5.821 -0.8979 -0.5287 -0.7606
27812SOL    HW284015   9.011   7.197   5.898 -3.1461  1.6254 -0.3907
27813SOL     OW84016   8.650   8.260   2.657 -0.0967  0.0967  0.0740
27813SOL    HW184017   8.608   8.216   2.584 -1.1789 -0.5949  1.0770
27813SOL    HW284018   8.726   8.206   2.678  0.3303  0.4043 -0.6444
27814SOL     OW84019   1.021   8.149   8.101 -0.3510  0.1411 -0.1190
27814SOL    HW184020   0.963   8.142   8.025  1.3918 -1.5579 -1.4072
27814SOL    HW284021   1.101   8.190   8.066  0.1647  0.0963  0.9748
27815SOL     OW84022   9.920   6.123   9.344  0.0580 -0.2393  0.5549
27815SOL    HW184023   9.861   6.198   9.341  1.2859  0.7880  1.2775
27815SOL    HW284024   9.883   6.066   9.412 -0.4568  0.0913  0.5542
27816SOL     OW84025   1.439   8.986   3.032 -0.3986  0.4120  0.4260
27816SOL    HW184026   1.466   9.015   3.120  0.5734  1.0124 -0.0538
27816SOL    HW284027   1.493   9.038   2.972 -0.5178 -0.5235 -0.5183
27817SOL     OW84028   8.518   5.135   1.070 -0.0926 -0.2229  0.8927
27817SOL    HW184029   8.461   5.062   1.096  0.4324 -0.3930  1.5801
27817SOL    HW284030   8.509   5.199   1.140 -2.3679  1.4725 -0.7644
27818SOL     OW84031   1.263   6.961   0.868  0.4250 -0.1677 -1.3341
27818SOL    HW184032   1.356   6.960   0.890  0.7927  0.5831 -2.7605
27818SOL    HW284033   1.245   6.872   0.836  0.8725 -0.0580 -1.8983
27819SOL     OW84034   9.276   3.176   0.921 -0.6548  0.0182  0.5442
27819SOL    HW184035   9.208   3.237   0.891 -1.4267 -1.0443  0.0466
27819SOL    HW284036   9.340   3.231   0.966 -0.3372  1.4835 -1.5301
27820SOL     OW84037   4.083   7.399   7.029  0.3942 -0.7744  0.0543
27820SOL    HW184038   4.007   7.364   7.076 -1.3215  1.6754 -0.6870
27820SOL    HW284039   4.077   7.359   6.942 -0.4951 -0.0799 -0.2214
27821SOL     OW84040   4.803   7.362   4.222 -0.0373 -0.4840 -0.0425
27821SOL    HW184041   4.783   7.440   4.170 -0.7307  0.5498  1.6768
27821SOL    HW284042   4.757   7.291   4.178 -1.6024  0.5755 -0.1934
27822SOL     OW84043   9.486   7.414   8.833 -0.1181 -0.0182 -0.6057
27822SOL    HW184044   9.501   7.398   8.740 -0.4621 -1.0143 -0.5030
27822SOL    HW284045   9.397   7.449   8.838 -0.2158 -0.2579 -0.6301
27823SOL     OW84046   2.849   3.446   0.391  0.1844 -0.2168 -0.0335
27823SOL    HW184047   2.830   3.532   0.353 -0.9058 -0.6538 -0.5242
27823SOL    HW284048   2.770   3.425   0.442  0.7806 -0.5678  0.7614
27824SOL     OW84049   0.221   0.183   2.325  0.5066  0.2865  0.3488
27824SOL    HW184050   0.263   0.246   2.382 -0.3268 -0.6841  2.1201
27824SOL    HW284051   0.143   0.154   2.373 -0.6700 -0.0242 -1.6068
27825SOL     OW84052   2.542   8.285   2.617  0.2406  0.2344 -0.3924
27825SOL    HW184053   2.581   8.208   2.658 -0.6762 -1.6953 -2.9010
27825SOL    HW284054   2.448   8.272   2.626  0.0666  1.4780 -0.2138
27826SOL     OW84055   0.877   0.378   8.375 -0.3856  0.5160  0.6141
27826SOL    HW184056   0.899   0.470   8.391  0.2221  0.6689 -0.9849
27826SOL    HW284057   0.849   0.375   8.284  1.8187 -1.2418 -0.0947
27827SOL     OW84058   0.774   3.855   9.900  0.5500  0.2187  0.0651
27827SOL    HW184059   0.738   3.913   9.967  1.2899  2.0399 -1.0219
27827SOL    HW284060   0.717   3.868   9.824 -0.8531 -2.5407  0.5607
27828SOL     OW84061   7.388   4.375   7.609 -0.2774  0.0999 -0.2278
27828SOL    HW184062   7.446   4.451   7.620 -1.3632  0.9140  0.0674
27828SOL    HW284063   7.348   4.362   7.695  0.8935 -1.6882  0.0951
27829SOL     OW84064   7.054   0.883   6.240  0.1090 -0.7679 -0.2763
27829SOL    HW184065   7.131   0.907   6.293 -0.7654  0.6321  0.4300
27829SOL    HW284066   7.088   0.879   6.151  0.4558  3.3164 -0.5300
27830SOL     OW84067   2.664   2.439   8.190 -0.1270 -0.3787 -0.1955
27830SOL    HW184068   2.751   2.399   8.191 -0.1075 -0.3669 -0.8432
27830SOL    HW284069   2.604   2.365   8.183 -0.0312 -0.3030 -3.2192
27831SOL     OW84070   1.715   3.026   9.954 -0.1880  0.0335  0.0345
27831SOL    HW184071   1.665   3.096   9.996 -2.1821 -0.0868 -1.9660
27831SOL    HW284072   1.745   3.064   9.871  2.1589 -0.2798  0.6690
27832SOL     OW84073   4.776   7.685   1.574 -0.6485 -0.1363  0.2368
27832SOL    HW184074   4.707   7.752   1.574 -1.8141 -1.2795  0.3920
27832SOL    HW284075   4.728   7.603   1.577  0.7602 -0.9576  1.5435
27833SOL     OW84076   6.068   5.985   6.748 -0.2452  0.6008 -0.0816
27833SOL    HW184077   6.009   6.008   6.676 -0.9203  1.3241  0.6789
27833SOL    HW284078   6.136   5.932   6.708 -2.2705 -1.6709 -0.7450
27834SOL     OW84079   5.835   0.861   6.858 -0.2267 -0.1997 -0.0439
27834SOL    HW184080   5.796   0.791   6.910 -0.1722 -0.1798  0.0235
27834SOL    HW284081   5.928   0.839   6.855  0.8883  2.6335  4.4913
27835SOL     OW84082   4.995   5.544   2.630 -0.0103  0.2962  0.0307
27835SOL    HW184083   5.069   5.543   2.570  0.7951 -0.6331  0.9855
27835SOL    HW284084   4.927   5.494   2.585  0.8470 -1.0479  0.1676
27836SOL     OW84085   7.217   3.291   1.630  0.1957  0.0404 -0.0728
27836SOL    HW184086   7.274   3.360   1.665 -1.1720  1.2490 -0.1190
27836SOL    HW284087   7.266   3.210   1.643  0.9638  0.7720  1.9614
27837SOL     OW84088   6.280   2.634   7.417  0.4196  0.1035  0.0053
27837SOL    HW184089   6.282   2.672   7.505  0.5262  0.7667 -0.2771
27837SOL    HW284090   6.371   2.638   7.388  0.3738 -0.0656 -0.1590
27838SOL     OW84091   2.508   9.350   3.348  0.2831 -0.5748 -0.6516
27838SOL    HW184092   2.475   9.262   3.332 -0.4658 -0.5552  0.6345
27838SOL    HW284093   2.450   9.408   3.300  1.2467 -0.7973 -2.1520
27839SOL     OW84094   7.406   8.230   8.120  0.1341  0.0736  0.0343
27839SOL    HW184095   7.389   8.144   8.083 -0.0560  0.2117 -0.1966
27839SOL    HW284096   7.396   8.291   8.047  0.6506  0.2563  0.1072
27840SOL     OW84097   6.939   9.951   7.924  0.2271 -0.1968 -0.1579
27840SOL    HW184098   6.945   9.862   7.958  0.7417  0.2253  0.8815
27840SOL    HW284099   6.883   9.997   7.986  1.4507  0.6724  0.3383
27841SOL     OW84100   2.122   7.065   0.297  0.0931 -0.2060 -0.4176
27841SOL    HW184101   2.082   7.137   0.346 -0.1272 -1.6692  1.7001
27841SOL    HW284102   2.195   7.106   0.250  0.5313  1.2667  1.4006
27842SOL     OW84103   4.022   0.764   1.021  0.4085  0.1546  0.3327
27842SOL    HW184104   4.027   0.678   0.981  0.7713 -1.3150  3.3154
27842SOL    HW284105   3.928   0.782   1.028  0.2850 -0.7173  1.0644
27843SOL     OW84106   3.400   7.476   5.659  0.5882 -0.3114 -0.0591
27843SOL    HW184107   3.415   7.471   5.565 -1.0623 -1.0480 -0.3276
27843SOL    HW284108   3.472   7.426   5.698 -0.4682 -2.9003 -1.1669
27844SOL     OW84109   2.961   3.009   8.899  0.2270  0.1214 -0.0020
27844SOL    HW184110   2.874   3.036   8.929  0.3841 -0.6796  1.2447
27844SOL    HW284111   3.011   3.090   8.894 -0.4309  0.5249 -0.2051
27845SOL     OW84112   3.568   2.363   0.975  0.1841 -0.1161 -0.7572
27845SOL    HW184113   3.562   2.332   0.885 -0.1928 -0.0764 -0.7461
27845SOL    HW284114   3.484   2.407   0.991 -0.4679 -1.6528  0.1911
27846SOL     OW84115   0.987   3.519   5.963  0.4928  0.7531  0.2928
27846SOL    HW184116   0.989   3.515   5.867  1.1996  3.1480  0.1411
27846SOL    HW284117   1.079   3.513   5.989  0.5084  2.3000  0.6559
27847SOL     OW84118   4.081   2.735   7.474 -0.7996 -0.4049  0.2722
27847SOL    HW184119   4.150   2.758   7.536 -0.1694  0.9043 -0.8308
27847SOL    HW284120   3.999   2.749   7.522 -0.3673  1.6651  0.5301
27848SOL     OW84121   8.059   3.224   4.921  0.0126  0.1668 -0.2157
27848SOL    HW184122   8.049   3.224   5.016  1.5370  1.6861  0.0103
27848SOL    HW284123   8.083   3.134   4.899  0.1300 -0.0877  0.9054
27849SOL     OW84124   6.507   0.887   2.567 -0.5982  0.3092 -0.1043
27849SOL    HW184125   6.520   0.897   2.661 -1.1305 -0.9100  0.1096
27849SOL    HW284126   6.519   0.794   2.550  0.2482  0.6248 -1.3773
27850SOL     OW84127   0.720   5.329   4.869 -0.0314  0.5252  0.3615
27850SOL    HW184128   0.765   5.404   4.908  0.7783  0.2672 -0.0597
27850SOL    HW284129   0.785   5.289   4.811 -1.0732  0.6653 -0.9617
27851SOL     OW84130   6.041   1.627   5.763 -0.4187 -0.7496 -0.2092
27851SOL    HW184131   5.970   1.619   5.699 -0.2036 -0.7938 -0.4427
27851SOL    HW284132   6.023   1.710   5.807 -0.7402 -0.8676 -0.1137
27852SOL     OW84133   7.738   0.460   5.740  0.0533  0.1380 -0.1022
27852SOL    HW184134   7.676   0.394   5.772  0.5162  0.2179  1.0302
27852SOL    HW284135   7.711   0.541   5.783 -0.3743  0.6488 -1.3119
27853SOL     OW84136   5.750   7.193   6.802  0.4170  0.4716  0.0772
27853SOL    HW184137   5.694   7.217   6.728  0.3537  3.0885  0.8880
27853SOL    HW284138   5.764   7.275   6.850  1.7667 -0.8351  2.0880
27854SOL     OW84139   4.014   4.775   8.193 -0.5618 -0.2409  0.7185
27854SOL    HW184140   4.068   4.772   8.271  0.6921 -0.0523 -0.1124
27854SOL    HW284141   3.982   4.865   8.188 -0.3739 -0.1672  0.8431
27855SOL     OW84142   4.082   8.853   1.722 -0.9098 -0.4077 -0.0584
27855SOL    HW184143   4.097   8.940   1.761 -0.7177 -0.5582  0.2026
27855SOL    HW284144   4.157   8.801   1.749 -0.3697 -0.2888 -1.3003
27856SOL     OW84145   7.861   3.037   0.567 -0.3937  0.2607 -0.3461
27856SOL    HW184146   7.862   3.007   0.658 -0.4928  0.5705 -0.2426
27856SOL    HW284147   7.952   3.059   0.549 -0.2828 -0.2936 -0.4889
27857SOL     OW84148   2.117   5.815   6.279  0.1953 -0.2791 -0.1490
27857SOL    HW184149   2.190   5.804   6.218  0.8735 -1.5509  0.8578
27857SOL    HW284150   2.146   5.774   6.360 -1.5726 -0.6799  0.3321
27858SOL     OW84151   1.270   7.938   1.945  0.1316 -0.3002 -0.5656
27858SOL    HW184152   1.199   7.920   2.006 -0.6321  1.4627 -0.8827
27858SOL    HW284153   1.345   7.891   1.980 -0.6749 -0.5256  0.9054
27859SOL     OW84154   7.380   4.537   7.333 -0.4999 -0.7575 -0.3087
27859SOL    HW184155   7.321   4.597   7.378 -0.2167  0.1035 -1.0645
27859SOL    HW284156   7.450   4.520   7.397 -1.1767 -1.2258  0.3289
27860SOL     OW84157   1.758   1.631   8.809  0.0672 -0.2940  0.0045
27860SOL    HW184158   1.683   1.685   8.786  1.0829  2.0061  1.7355
27860SOL    HW284159   1.719   1.552   8.847 -1.4659  0.4935  0.1596
27861SOL     OW84160   1.940   8.313   4.201 -0.3582 -0.3592 -0.1522
27861SOL    HW184161   1.989   8.324   4.119 -0.4889  1.8073  0.0071
27861SOL    HW284162   1.889   8.393   4.210  0.5907  0.0578  2.6698
27862SOL     OW84163   9.359   4.618   5.346  0.0728 -0.3253 -0.9058
27862SOL    HW184164   9.427   4.684   5.359  0.3005 -0.8118  0.6723
27862SOL    HW284165   9.309   4.648   5.270 -0.2188  2.0230  0.1233
27863SOL     OW84166   8.070   8.979   7.102  0.0645 -0.1828  0.2463
27863SOL    HW184167   8.011   9.052   7.082 -0.8700 -0.7329  0.8902
27863SOL    HW284168   8.123   8.968   7.023 -0.8659  0.1762 -0.4431
27864SOL     OW84169   3.401   9.691   3.775 -0.7337  0.4539 -0.0481
27864SOL    HW184170   3.456   9.672   3.699 -1.6463  0.6638 -0.7770
27864SOL    HW284171   3.415   9.617   3.834 -0.9075 -0.3039 -0.9359
27865SOL     OW84172   8.962   9.635   5.861  0.0775 -0.0065 -0.6162
27865SOL    HW184173   8.949   9.699   5.931 -0.6480  0.3397 -1.0721
27865SOL    HW284174   8.903   9.563   5.884  1.6840 -1.0626  0.5121
27866SOL     OW84175   3.203   0.567   8.585  0.1804 -0.2539 -0.6318
27866SOL    HW184176   3.254   0.486   8.578 -1.0728 -1.2569  1.1235
27866SOL    HW284177   3.258   0.626   8.636  0.9822 -0.0569 -1.6801
27867SOL     OW84178   7.056   7.041   9.916 -0.6040 -0.1150 -0.0022
27867SOL    HW184179   7.136   6.990   9.931  0.4411  1.5887  0.4331
27867SOL    HW284180   7.061   7.068   9.824 -0.4524  0.3604  0.1433
27868SOL     OW84181   9.784   8.192   2.509 -0.7143  0.0473 -0.1768
27868SOL    HW184182   9.755   8.168   2.597 -0.0928  0.7478  0.2387
27868SOL    HW284183   9.754   8.282   2.498  1.1860  0.8007  0.2649
27869SOL     OW84184   9.217   9.767   6.532  0.5605 -0.0305 -0.4223
27869SOL    HW184185   9.225   9.714   6.453  0.3860  1.2551 -1.3256
27869SOL    HW284186   9.146   9.725   6.581  0.0947 -0.3593 -1.3463
27870SOL     OW84187   9.464   1.430   8.323  0.5022 -0.7358  0.8115
27870SOL    HW184188   9.498   1.345   8.354 -1.9977 -2.3061 -0.4328
27870SOL    HW284189   9.539   1.470   8.279  1.5373 -2.7367  0.5961
27871SOL     OW84190   5.399   5.405   4.453 -0.0656  0.3944  0.2551
27871SOL    HW184191   5.473   5.349   4.433 -0.9756 -1.0493  0.7910
27871SOL    HW284192   5.327   5.370   4.399 -1.2461 -0.4465  2.2575
27872SOL     OW84193   4.596   1.089   4.286  0.1186 -0.0814  0.5223
27872SOL    HW184194   4.624   1.051   4.369 -1.6259 -3.6595 -0.2936
27872SOL    HW284195   4.500   1.080   4.287 -0.0202  0.6424 -1.4628
27873SOL     OW84196   4.869   9.278   4.627 -0.5519  0.2350  0.5478
27873SOL    HW184197   4.845   9.358   4.673  2.5809  0.4129  2.1215
27873SOL    HW284198   4.953   9.252   4.665 -0.0548 -2.2501 -1.8843
27874SOL     OW84199   8.594   7.450   2.309  0.1536 -0.5437  0.1828
27874SOL    HW184200   8.530   7.381   2.292  0.3035 -0.7611  0.5016
27874SOL    HW284201   8.566   7.523   2.252  0.1999 -0.9805 -0.4059
27875SOL     OW84202   0.257   3.831   2.829  0.2613  0.5693  0.5988
27875SOL    HW184203   0.349   3.839   2.802 -0.2983  1.9236 -1.1028
27875SOL    HW284204   0.243   3.737   2.838  1.7464  0.3208  0.6574
27876SOL     OW84205   1.524   0.313   9.381  0.1566 -0.5171  0.2758
27876SOL    HW184206   1.474   0.274   9.453 -0.6487 -2.0630 -1.0442
27876SOL    HW284207   1.604   0.260   9.377  0.4855 -0.0315  0.4365
27877SOL     OW84208   8.036   5.138   5.667 -0.1882  0.0514 -0.0596
27877SOL    HW184209   7.960   5.191   5.645 -0.3578  0.1229  0.6941
27877SOL    HW284210   8.006   5.047   5.657 -0.6950  0.0603  1.2739
27878SOL     OW84211   4.676   4.784   0.987 -0.3292 -0.2230  0.0621
27878SOL    HW184212   4.604   4.844   0.968 -1.2572 -0.9493  1.1389
27878SOL    HW284213   4.678   4.725   0.911 -1.4786 -0.7362  0.3923
27879SOL     OW84214   6.179   6.972   0.125 -0.4123  0.0319  0.2880
27879SOL    HW184215   6.160   6.994   0.034  0.3216 -0.1385  0.0859
27879SOL    HW284216   6.217   7.053   0.162  1.3313 -0.5317 -0.1744
27880SOL     OW84217   6.417   4.704   4.631 -0.1099 -0.2499  0.9348
27880SOL    HW184218   6.502   4.661   4.631 -0.4000 -0.8840 -0.3586
27880SOL    HW284219   6.432   4.788   4.587 -0.0514 -0.1195  1.1999
27881SOL     OW84220   3.948   4.566   4.500  0.4182 -0.2802 -0.0118
27881SOL    HW184221   3.932   4.483   4.545  0.7514 -1.3582 -1.7958
27881SOL    HW284222   4.005   4.543   4.426  1.3326  1.7062  0.0035
27882SOL     OW84223   6.604   2.261   9.528  0.0568  0.1975  0.4976
27882SOL    HW184224   6.564   2.183   9.566  0.2226 -0.3256 -0.3638
27882SOL    HW284225   6.591   2.251   9.433  0.2030  1.1460  0.3589
27883SOL     OW84226   0.457   5.787   4.062  0.3115 -0.4267 -0.2184
27883SOL    HW184227   0.482   5.818   4.149 -0.2492  0.4284 -0.3554
27883SOL    HW284228   0.397   5.714   4.080 -0.4089  0.2333  0.1296
27884SOL     OW84229   7.368   1.623   0.289  0.4795 -0.2728 -0.8010
27884SOL    HW184230   7.406   1.560   0.228  4.5194  2.7846 -1.8708
27884SOL    HW284231   7.353   1.701   0.236 -0.0772  1.1197  1.3144
27885SOL     OW84232   7.720   5.276   3.592 -0.1234 -0.1246 -0.3405
27885SOL    HW184233   7.665   5.272   3.514 -0.5682  0.4541 -0.0668
27885SOL    HW284234   7.671   5.227   3.659 -0.7748  1.1647  0.1653
27886SOL     OW84235   1.321   6.533   0.861 -0.0933 -0.2017 -0.1790
27886SOL    HW184236   1.247   6.593   0.859  0.1344  0.0658 -1.1237
27886SOL    HW284237   1.283   6.448   0.883 -0.3629  0.3454  1.5808
27887SOL     OW84238   0.281   6.924   4.322 -0.4860  0.3261 -0.0073
27887SOL    HW184239   0.333   6.850   4.351  0.1190  0.0119 -1.7893
27887SOL    HW284240   0.190   6.896   4.332 -0.2643 -0.4498 -0.1611
27888SOL     OW84241   7.711   6.107   7.816  0.2047 -0.0162 -0.3110
27888SOL    HW184242   7.709   6.140   7.726 -1.3067  1.6129  0.2552
27888SOL    HW284243   7.751   6.179   7.866  1.0281 -0.9044  0.3332
27889SOL     OW84244   5.744   7.057   3.861 -0.2757  0.1063  0.1425
27889SOL    HW184245   5.733   7.148   3.832 -3.3301 -0.2301 -0.1517
27889SOL    HW284246   5.756   7.008   3.780 -2.7403 -0.1268 -0.1762
27890SOL     OW84247   1.427   4.165   3.045 -0.1679  0.1539 -0.3458
27890SOL    HW184248   1.516   4.150   3.075 -1.1691 -0.9668  2.3850
27890SOL    HW284249   1.434   4.167   2.949  2.9042  1.3974 -0.2040
27891SOL     OW84250   7.418   7.469   9.775  0.5245  0.0605 -0.1488
27891SOL    HW184251   7.395   7.436   9.688 -0.1353  1.1272 -0.3938
27891SOL    HW284252   7.347   7.437   9.832  1.1212 -0.9071  0.0812
27892SOL     OW84253   3.845   8.173   0.717 -0.2694  0.4872 -0.0159
27892SOL    HW184254   3.916   8.231   0.690  1.8716 -0.1424  3.6350
27892SOL    HW284255   3.812   8.212   0.798 -1.0628 -1.5939  0.7180
27893SOL     OW84256   6.461   1.651   6.592  0.2148 -0.0508 -0.2125
27893SOL    HW184257   6.458   1.600   6.673  2.5372 -0.1996 -0.1407
27893SOL    HW284258   6.554   1.652   6.568 -0.2801  0.8630 -2.3284
27894SOL     OW84259   2.758   2.184   0.250 -0.3993 -0.5580 -0.2864
27894SOL    HW184260   2.750   2.109   0.191 -0.4877  0.3733 -1.4919
27894SOL    HW284261   2.730   2.259   0.198 -2.8230  0.0154  1.6337
27895SOL     OW84262   8.670   0.172   9.660 -0.0583 -0.5033 -0.4177
27895SOL    HW184263   8.586   0.216   9.655  0.3537  0.3751  0.1323
27895SOL    HW284264   8.708   0.181   9.573  0.3343  0.8951 -0.1221
27896SOL     OW84265   3.587   5.612   1.626 -0.2928  0.4400  0.1591
27896SOL    HW184266   3.649   5.685   1.623  0.1196  0.3998  3.5111
27896SOL    HW284267   3.502   5.652   1.644 -0.2986  0.1970  0.6954
27897SOL     OW84268   6.371   9.211   8.031  0.0662 -0.1150 -0.2938
27897SOL    HW184269   6.456   9.198   8.072 -0.6919  0.7880  1.6839
27897SOL    HW284270   6.364   9.139   7.968  1.3695 -1.5137  1.0481
27898SOL     OW84271   0.992   8.351   5.822  0.2556  0.2858  0.4152
27898SOL    HW184272   0.995   8.373   5.915  1.2769  0.0822  0.4392
27898SOL    HW284273   1.065   8.399   5.783  0.5934 -0.5875 -0.0635
27899SOL     OW84274   3.419   9.512   4.468 -0.1344 -0.1099 -0.0587
27899SOL    HW184275   3.437   9.502   4.562 -0.3288 -0.1487 -0.0249
27899SOL    HW284276   3.365   9.436   4.446 -0.0655 -0.1159 -0.2081
27900SOL     OW84277   7.527   4.772   6.159  0.5320 -0.7384  0.2218
27900SOL    HW184278   7.554   4.861   6.181 -0.9799 -0.0572 -0.4678
27900SOL    HW284279   7.558   4.759   6.069 -0.8688 -0.1502 -0.3805
27901SOL     OW84280   8.136   3.091   3.920 -0.1780  0.5032  0.1549
27901SOL    HW184281   8.208   3.120   3.975  0.4237  0.1046 -0.4209
27901SOL    HW284282   8.060   3.091   3.979  0.8177 -1.9427  1.5912
27902SOL     OW84283   7.315   8.043   0.816  0.2831  0.3887  0.0775
27902SOL    HW184284   7.407   8.036   0.792 -0.1462  1.1410 -1.9298
27902SOL    HW284285   7.304   8.134   0.843  0.7124 -0.3817  3.2257
27903SOL     OW84286   2.497   6.273   0.170 -0.2974  0.0557 -0.4619
27903SOL    HW184287   2.582   6.316   0.163 -0.1492 -0.2323 -0.4677
27903SOL    HW284288   2.473   6.252   0.080 -1.0593  1.4279 -0.6038
27904SOL     OW84289   8.941   9.604   0.322 -0.1262  0.0168  0.7301
27904SOL    HW184290   9.007   9.581   0.257 -0.8870  0.2983 -0.1797
27904SOL    HW284291   8.943   9.700   0.325  0.3716 -0.0183  1.6315
27905SOL     OW84292   9.141   4.194   5.446  0.0883 -0.1639 -0.7198
27905SOL    HW184293   9.228   4.223   5.419  0.2470  0.2051  0.1749
27905SOL    HW284294   9.157   4.115   5.497  0.4473  2.5202  3.8007
27906SOL     OW84295   1.821   9.119   1.242  0.0042  0.2242  0.0924
27906SOL    HW184296   1.745   9.177   1.230 -1.3269 -1.6889 -1.2994
27906SOL    HW284297   1.848   9.133   1.333 -0.6328  2.5409 -0.0135
27907SOL     OW84298   5.104   9.839   0.999  0.0837  0.0318  0.5424
27907SOL    HW184299   5.180   9.784   0.982  0.4696  1.0137 -1.1524
27907SOL    HW284300   5.030   9.789   0.966  0.5053  0.7048 -1.5960
27908SOL     OW84301   9.332   2.994   0.723  0.3513 -0.1928 -0.2660
27908SOL    HW184302   9.357   2.904   0.744  0.4303 -0.0913  0.0816
27908SOL    HW284303   9.323   3.037   0.809  0.6475  0.2171 -0.4382
27909SOL     OW84304   0.991   8.982   1.779  0.8155 -0.4937 -0.2712
27909SOL    HW184305   1.082   8.956   1.797  0.6939 -0.9358 -0.2768
27909SOL    HW284306   0.969   9.042   1.850  2.1089  2.0973 -1.9280
27910SOL     OW84307   3.443   0.365   3.306 -0.1279  0.4190  0.2740
27910SOL    HW184308   3.459   0.411   3.224  3.0699 -1.2635 -0.1754
27910SOL    HW284309   3.383   0.294   3.283  0.4261  0.2026 -0.5355
27911SOL     OW84310   9.573   5.310   0.732  0.4886  0.1576  0.0369
27911SOL    HW184311   9.620   5.241   0.779  0.2083  0.5205  0.8742
27911SOL    HW284312   9.491   5.320   0.780  0.4987  1.0335 -0.1107
27912SOL     OW84313   2.327   6.657   4.500  0.1698  0.3106 -0.0105
27912SOL    HW184314   2.344   6.564   4.519 -0.0778 -0.1738 -1.8878
27912SOL    HW284315   2.371   6.704   4.570 -2.0741 -1.2654  2.6305
27913SOL     OW84316   3.944   4.652   0.498  1.0688 -0.1431 -0.2666
27913SOL    HW184317   3.915   4.628   0.586  2.4719 -0.6755  0.0721
27913SOL    HW284318   3.931   4.747   0.494 -2.4056 -0.5344 -0.8123
27914SOL     OW84319   3.589   8.944   5.517  0.0600 -0.1369 -0.2027
27914SOL    HW184320   3.628   8.928   5.431  1.9115  2.0788  0.1265
27914SOL    HW284321   3.545   9.029   5.507  1.3072  0.7325  1.3009
27915SOL     OW84322   1.627   3.216   1.576  0.2094 -0.6148 -0.4527
27915SOL    HW184323   1.605   3.309   1.581  0.2118 -0.3320 -3.6041
27915SOL    HW284324   1.550   3.172   1.612 -0.1128  0.5980  0.4051
27916SOL     OW84325   6.030   9.608   2.407  0.2366  0.4034  0.2764
27916SOL    HW184326   5.983   9.687   2.378  2.2418  0.9016 -1.9105
27916SOL    HW284327   6.110   9.606   2.354  0.7659 -2.5692  0.9779
27917SOL     OW84328   9.587   9.845   9.928  0.6222 -0.2446 -0.3566
27917SOL    HW184329   9.606   9.751   9.928  0.1442 -0.4218 -3.3028
27917SOL    HW284330   9.665   9.886   9.891 -0.4782  0.0814 -2.4758
27918SOL     OW84331   8.496   5.258   8.395 -0.2714 -0.2643  0.7706
27918SOL    HW184332   8.510   5.207   8.315  1.9048  0.8507  0.3614
27918SOL    HW284333   8.557   5.221   8.458  1.0271  1.4630  0.5974
27919SOL     OW84334   2.314   2.902   6.060  0.3227 -0.0646 -0.4039
27919SOL    HW184335   2.264   2.947   5.992 -0.0792  1.7554  1.0130
27919SOL    HW284336   2.255   2.834   6.092  0.0284 -0.0989 -1.0103
27920SOL     OW84337   5.739   6.475   1.447  0.0500 -0.0854 -0.1902
27920SOL    HW184338   5.829   6.443   1.441  0.4107  0.7050  0.6431
27920SOL    HW284339   5.722   6.478   1.541 -1.0342 -0.7035 -0.3537
27921SOL     OW84340   4.479   4.902   3.878  0.2768 -0.2672  0.1503
27921SOL    HW184341   4.452   4.931   3.790  0.2147  0.7161  0.4817
27921SOL    HW284342   4.423   4.952   3.937 -1.7907 -3.0309  0.7501
27922SOL     OW84343   6.930   1.531   6.151 -0.1728 -0.6584 -0.1289
27922SOL    HW184344   6.873   1.518   6.075  0.5381  0.1414 -0.8190
27922SOL    HW284345   7.009   1.481   6.131  0.4524  0.4273 -0.4143
27923SOL     OW84346   0.380   1.320   4.696 -0.6201 -0.4650  0.2708
27923SOL    HW184347   0.409   1.242   4.742  0.7561 -0.4846 -0.5794
27923SOL    HW284348   0.393   1.391   4.759  1.4957 -0.4520 -0.1136
27924SOL     OW84349   5.177   0.667   0.107 -0.0580  0.5071  0.2948
27924SOL    HW184350   5.246   0.631   0.050 -0.6373 -0.6546  0.3087
27924SOL    HW284351   5.220   0.679   0.192  0.4379  0.9317 -0.0081
27925SOL     OW84352   2.633   9.915   7.581 -0.2004  0.0626 -0.3863
27925SOL    HW184353   2.715   9.867   7.571  1.1793  2.3291 -0.5300
27925SOL    HW284354   2.612   9.907   7.674  1.0765  0.7801 -0.0108
27926SOL     OW84355   9.740   3.118   7.058 -0.6488 -0.2815  0.0170
27926SOL    HW184356   9.766   3.029   7.036  0.0499  0.0760 -0.6534
27926SOL    HW284357   9.644   3.118   7.048 -0.5586 -0.6948 -0.9807
27927SOL     OW84358   5.808   8.786   6.636 -0.0879 -0.1457  0.4067
27927SOL    HW184359   5.736   8.731   6.667 -1.0758  1.9702  2.1598
27927SOL    HW284360   5.874   8.724   6.606 -1.6172 -2.2385  1.1150
27928SOL     OW84361   1.902   0.386   3.965  0.1031  0.1970 -0.3952
27928SOL    HW184362   1.946   0.367   4.048  0.1895  0.2955 -0.4185
27928SOL    HW284363   1.913   0.480   3.953  0.3978  0.1261 -0.6964
27929SOL     OW84364   4.094   5.331   3.211 -0.1562 -0.1909 -1.1594
27929SOL    HW184365   4.182   5.322   3.247  0.4949  1.9749 -1.9953
27929SOL    HW284366   4.049   5.250   3.235  1.4482 -0.5363  0.9666
27930SOL     OW84367   0.124   2.453   1.648 -0.2983  0.3179 -0.0588
27930SOL    HW184368   0.182   2.423   1.579 -0.1460 -1.3028  0.7279
27930SOL    HW284369   0.068   2.518   1.606  1.2696  1.0433 -1.1239
27931SOL     OW84370   7.420   1.411   3.770 -0.4144  0.3904  0.2159
27931SOL    HW184371   7.418   1.485   3.709  1.2178  1.2032  1.0963
27931SOL    HW284372   7.332   1.373   3.765 -1.3668  2.5314 -0.0962
27932SOL     OW84373   8.304   3.104   4.138  0.6170 -0.2617 -0.2657
27932SOL    HW184374   8.243   3.128   4.207 -0.3978  2.1922 -1.8805
27932SOL    HW284375   8.389   3.133   4.170  0.3230 -0.1217  0.3950
27933SOL     OW84376   9.766   7.442   9.823  0.2967 -0.2091 -0.1311
27933SOL    HW184377   9.736   7.362   9.779  1.1010 -0.6630  0.1192
27933SOL    HW284378   9.692   7.503   9.815  0.6757  0.0307 -2.8249
27934SOL     OW84379   3.377   2.562   7.690 -0.2727  0.4126 -0.6548
27934SOL    HW184380   3.334   2.544   7.606 -0.5253  1.1493 -0.6909
27934SOL    HW284381   3.379   2.478   7.735 -1.8060  0.3757 -0.6256
27935SOL     OW84382   6.365   5.248   8.528 -0.4080 -0.0507 -0.0700
27935SOL    HW184383   6.409   5.214   8.606  1.3749 -0.1687 -1.0596
27935SOL    HW284384   6.421   5.320   8.498 -0.4847 -0.6551 -1.7902
27936SOL     OW84385   8.299   1.763   5.101  0.1655  0.2835  0.1995
27936SOL    HW184386   8.238   1.809   5.043  0.0954  1.8802  1.4454
27936SOL    HW284387   8.330   1.831   5.161  0.7620 -1.1499  1.5818
27937SOL     OW84388   1.542   9.058   2.040 -0.3812 -0.5188 -0.2303
27937SOL    HW184389   1.562   8.964   2.034  0.5175 -0.3387 -0.0839
27937SOL    HW284390   1.627   9.101   2.039 -0.8104  0.3808 -1.6537
27938SOL     OW84391   3.771   9.494   9.233 -0.1106 -0.1094 -0.6451
27938SOL    HW184392   3.777   9.401   9.210 -0.3764 -0.1938 -0.3887
27938SOL    HW284393   3.815   9.501   9.317 -1.2854 -0.2648  0.0054
27939SOL     OW84394   3.061   6.574   2.480 -0.4121 -0.1900 -0.1990
27939SOL    HW184395   3.069   6.491   2.435 -0.0353  0.1063 -0.6923
27939SOL    HW284396   2.989   6.562   2.542 -1.2974 -0.4368 -1.2507
27940SOL     OW84397   6.661   5.069   4.151 -0.0886 -0.6192  0.0385
27940SOL    HW184398   6.578   5.023   4.161 -0.1019 -0.2954  1.5653
27940SOL    HW284399   6.714   5.011   4.096 -1.3025 -0.8190 -0.9679
27941SOL     OW84400   7.261   7.802   3.630 -0.4387 -0.0309  0.1136
27941SOL    HW184401   7.241   7.883   3.677  0.6038  0.0601  0.4349
27941SOL    HW284402   7.311   7.830   3.553 -1.0839 -0.2784 -0.4026
27942SOL     OW84403   8.603   7.771   3.375 -0.0676  0.5424  0.0868
27942SOL    HW184404   8.696   7.754   3.394  0.9017  2.3526 -2.5099
27942SOL    HW284405   8.585   7.717   3.298 -1.5723 -0.6585  1.2247
27943SOL     OW84406   8.049   0.766   1.508 -0.6489 -0.1723  0.4697
27943SOL    HW184407   8.126   0.779   1.563 -0.2551 -0.3602 -0.0262
27943SOL    HW284408   8.025   0.674   1.522 -0.2369 -0.3647 -0.0591
27944SOL     OW84409   9.232   3.355   1.812 -0.6707  0.1764 -0.1485
27944SOL    HW184410   9.242   3.404   1.893 -5.5427 -2.2097  2.2796
27944SOL    HW284411   9.256   3.265   1.835  0.5197 -0.1283 -2.2583
27945SOL     OW84412   3.286   9.580   0.142  0.5227 -0.1520 -0.3418
27945SOL    HW184413   3.283   9.671   0.113 -1.8374  0.3742  1.2534
27945SOL    HW284414   3.355   9.540   0.090  1.1753  2.3788 -1.5563
27946SOL     OW84415   5.494   5.811   3.401 -0.0974  0.0461  0.1026
27946SOL    HW184416   5.587   5.807   3.375 -0.3884 -1.2143 -0.8419
27946SOL    HW284417   5.447   5.821   3.318 -0.8732 -0.5198  0.4716
27947SOL     OW84418   8.875   1.777   3.787 -0.1784 -0.9762 -0.1996
27947SOL    HW184419   8.962   1.770   3.827 -0.3928 -2.5914  0.0730
27947SOL    HW284420   8.893   1.778   3.693  0.1569 -1.2320 -0.1427
27948SOL     OW84421   5.834   4.541   8.695  0.7543  0.8270  0.3701
27948SOL    HW184422   5.866   4.604   8.631 -1.3139 -2.0041 -4.0223
27948SOL    HW284423   5.739   4.537   8.680  0.5514 -1.9770  1.6296
27949SOL     OW84424   9.132   6.804   8.956 -0.4744  0.0145 -0.2902
27949SOL    HW184425   9.152   6.732   9.015  0.7587  0.7542  0.2511
27949SOL    HW284426   9.194   6.793   8.884  0.0612  0.7845  0.0379
27950SOL     OW84427   3.716   8.973   7.795  0.1719  0.1292  0.6183
27950SOL    HW184428   3.695   8.884   7.822  1.1109 -1.0181 -2.1091
27950SOL    HW284429   3.664   8.987   7.716  1.4658  1.2472 -0.0849
27951SOL     OW84430   5.192   3.614   9.322  0.4888 -0.2552 -0.4836
27951SOL    HW184431   5.186   3.554   9.248 -0.7794  0.4356 -0.9714
27951SOL    HW284432   5.278   3.597   9.360  0.7688 -1.2944 -1.5306
27952SOL     OW84433   8.066   5.445   2.859  0.1130 -0.0307  0.0917
27952SOL    HW184434   7.991   5.486   2.815  0.2185 -0.8691 -0.9025
27952SOL    HW284435   8.142   5.474   2.809  0.5917  1.5722  1.6543
27953SOL     OW84436   9.959   1.579   7.162 -0.6871 -0.2013  0.4378
27953SOL    HW184437  10.004   1.650   7.208 -1.8510 -0.7341  2.5497
27953SOL    HW284438   9.959   1.606   7.070  2.1581  0.7118  0.6056
27954SOL     OW84439   9.414   7.308   2.753 -0.0425  0.6327 -0.6701
27954SOL    HW184440   9.342   7.269   2.802  0.7267  1.4804  1.2410
27954SOL    HW284441   9.395   7.287   2.661 -2.4820  0.4847 -0.2024
27955SOL     OW84442   7.309   6.942   4.058 -0.0120 -0.0396  0.1689
27955SOL    HW184443   7.348   6.943   4.146  1.5797  1.8687 -0.4852
27955SOL    HW284444   7.348   6.866   4.015  0.5887  0.0545  0.5393
27956SOL     OW84445   5.699   9.667   8.858  0.1140  0.3510  0.5210
27956SOL    HW184446   5.784   9.682   8.898  0.2053 -1.5600  1.1582
27956SOL    HW284447   5.708   9.697   8.768  1.7762 -0.6593  0.3123
27957SOL     OW84448   4.515   2.609   5.066  0.1942 -0.6276  0.0257
27957SOL    HW184449   4.560   2.550   5.126 -0.0784  1.8074  2.8900
27957SOL    HW284450   4.422   2.589   5.078  0.0938  0.3401  1.0886
27958SOL     OW84451   3.095   6.562   9.894  0.4304 -0.5769 -0.8792
27958SOL    HW184452   3.004   6.588   9.908  0.8571  0.5389  0.0495
27958SOL    HW284453   3.109   6.489   9.953 -0.2993 -1.8483 -2.2279
27959SOL     OW84454   9.246   6.345   7.780  0.5170  0.2513 -0.4300
27959SOL    HW184455   9.180   6.286   7.743 -0.4500 -0.3191  2.0468
27959SOL    HW284456   9.240   6.424   7.726 -1.0606 -0.3899 -1.2649
27960SOL     OW84457   7.713   6.678   7.494  0.2252 -0.0642 -0.2573
27960SOL    HW184458   7.665   6.761   7.491 -1.4115 -0.9837 -0.4980
27960SOL    HW284459   7.763   6.677   7.412  0.9651  1.0544  0.1449
27961SOL     OW84460   0.184   1.771   2.861  0.2671  0.0568  0.7582
27961SOL    HW184461   0.256   1.771   2.798  0.8584 -1.2707  1.4015
27961SOL    HW284462   0.189   1.857   2.903  1.5054 -0.0187  0.8029
27962SOL     OW84463   7.791   8.913   9.393  0.0703  0.0493  0.4755
27962SOL    HW184464   7.714   8.857   9.379 -0.1521  0.6447 -0.7811
27962SOL    HW284465   7.760   8.983   9.449 -0.7183  1.0548 -1.1365
27963SOL     OW84466   2.498   4.035   1.421 -1.2052 -0.8065 -0.1205
27963SOL    HW184467   2.548   3.976   1.478 -0.7436 -0.2050  0.1079
27963SOL    HW284468   2.431   3.979   1.381  0.2794 -1.8506 -1.2249
27964SOL     OW84469   2.302   8.525   5.899 -0.3049  0.9496 -0.7725
27964SOL    HW184470   2.389   8.538   5.936 -0.4956  1.3481 -0.4517
27964SOL    HW284471   2.282   8.607   5.855 -0.4590  0.8047 -0.9731
27965SOL     OW84472   6.755   6.721   4.297  1.2545  0.4466  0.4142
27965SOL    HW184473   6.833   6.689   4.343  1.0491  0.6236  0.8978
27965SOL    HW284474   6.701   6.760   4.366  0.2635 -0.6022  0.2685
27966SOL     OW84475   0.736   3.494   5.070 -0.3787 -0.3463 -0.2061
27966SOL    HW184476   0.660   3.543   5.037 -0.5941  0.3265  1.2218
27966SOL    HW284477   0.769   3.546   5.143  0.5508 -1.3902  0.1557
27967SOL     OW84478   3.400   1.313   8.369  0.2517  0.6071 -0.6257
27967SOL    HW184479   3.336   1.299   8.438  1.5654 -0.0015  0.5183
27967SOL    HW284480   3.440   1.227   8.356  0.1313  0.7459 -2.0537
27968SOL     OW84481   4.787   1.010   0.289  0.0310 -0.7058  0.2505
27968SOL    HW184482   4.780   1.066   0.366 -2.3757 -0.5517  0.0177
27968SOL    HW284483   4.811   0.924   0.323  0.1156 -0.3739  1.0480
27969SOL     OW84484   6.929   6.223   5.168  0.2620  0.9040 -0.1083
27969SOL    HW184485   6.998   6.237   5.234 -0.1809  1.4352  0.2543
27969SOL    HW284486   6.970   6.249   5.086  0.6118  0.8737  0.0541
27970SOL     OW84487   8.003   8.048   4.332  0.1694 -0.5988  0.4235
27970SOL    HW184488   7.940   8.110   4.370 -0.4292 -0.7191 -0.3471
27970SOL    HW284489   7.949   7.974   4.304  0.4814 -0.2249 -1.2609
27971SOL     OW84490   9.276   9.412   5.625  0.1474 -0.4620  0.0394
27971SOL    HW184491   9.364   9.402   5.589 -1.0926 -0.0815 -3.4587
27971SOL    HW284492   9.278   9.497   5.670  1.4566 -0.2322 -0.4079
27972SOL     OW84493   5.334   0.591   5.969 -0.1825 -0.3238  0.5839
27972SOL    HW184494   5.241   0.610   5.982 -0.2086  0.1000 -0.1391
27972SOL    HW284495   5.371   0.588   6.057 -1.4743 -3.8029  1.1832
27973SOL     OW84496   5.337   2.509   3.634  0.3701  0.7792  0.2825
27973SOL    HW184497   5.333   2.593   3.678  0.1407  0.5263  0.7477
27973SOL    HW284498   5.375   2.449   3.699 -0.6875  0.2306  0.4192
27974SOL     OW84499   0.612   4.795   5.551  0.3796  0.0152  0.3535
27974SOL    HW184500   0.556   4.730   5.508  0.9033 -1.1389  1.3514
27974SOL    HW284501   0.701   4.759   5.543  0.9247  1.4752 -0.5884
27975SOL     OW84502   1.635   0.847   8.338 -0.1241 -0.2956  0.2029
27975SOL    HW184503   1.592   0.764   8.318  0.6572 -0.5540 -0.4737
27975SOL    HW284504   1.570   0.914   8.319 -0.8053 -0.7535  0.8764
27976SOL     OW84505   4.342   6.849   4.773  0.2170 -0.3583  0.1067
27976SOL    HW184506   4.395   6.769   4.768 -0.5378 -0.8671  0.1616
27976SOL    HW284507   4.296   6.842   4.856 -0.4131 -0.2104 -0.2291
27977SOL     OW84508   2.544   0.410   0.933 -0.1378  0.0676  0.1348
27977SOL    HW184509   2.576   0.353   1.004 -0.6187 -1.1049 -0.5622
27977SOL    HW284510   2.565   0.362   0.853 -1.8489  0.1932 -0.4135
27978SOL     OW84511   1.575   3.417   4.831 -0.5201  0.4697 -0.6148
27978SOL    HW184512   1.563   3.497   4.882 -1.0368  1.5595 -2.3788
27978SOL    HW284513   1.525   3.432   4.751 -1.4096 -2.0102 -0.6068
27979SOL     OW84514   0.978   8.638   7.462  0.0071  0.8615 -0.1291
27979SOL    HW184515   1.005   8.667   7.549  2.6349  0.1886 -0.6432
27979SOL    HW284516   0.886   8.663   7.456 -0.2338  1.0233  2.7873
27980SOL     OW84517   7.426   2.285   1.376 -0.1044  0.1406 -0.0040
27980SOL    HW184518   7.352   2.239   1.337 -0.2557  0.5173 -0.1725
27980SOL    HW284519   7.437   2.245   1.462  0.1880 -0.6508 -0.4061
27981SOL     OW84520   5.422   5.599   4.627  0.4773 -0.2597  0.1791
27981SOL    HW184521   5.512   5.597   4.658  0.4450 -0.7957  0.2426
27981SOL    HW284522   5.418   5.531   4.560  0.5380  0.8536 -0.9965
27982SOL     OW84523   3.721   3.968   9.218 -0.0686 -0.4973  0.2398
27982SOL    HW184524   3.708   4.063   9.216 -2.1252 -0.7187 -1.8842
27982SOL    HW284525   3.807   3.954   9.180 -0.3565  0.4940 -0.8277
27983SOL     OW84526   9.083   7.413   4.226  0.4588  0.2586 -0.3768
27983SOL    HW184527   9.091   7.344   4.292 -0.3540 -0.0236 -0.5644
27983SOL    HW284528   9.172   7.426   4.193  0.8613  0.3693  0.7360
27984SOL     OW84529   9.546   1.472   3.839 -0.3044  0.3107 -0.3238
27984SOL    HW184530   9.593   1.411   3.896  0.8007  1.2721 -0.1486
27984SOL    HW284531   9.550   1.431   3.752 -0.0374 -0.1211 -0.1133
27985SOL     OW84532   3.235   8.635   1.035 -0.1085 -0.0708  0.4031
27985SOL    HW184533   3.189   8.708   1.074 -0.9541 -1.2116  1.6390
27985SOL    HW284534   3.216   8.641   0.941 -2.2242 -0.0931  0.7769
27986SOL     OW84535   2.436   3.582   4.157  0.3744 -0.0833  0.3991
27986SOL    HW184536   2.461   3.671   4.180 -0.8556  0.2456  0.5423
27986SOL    HW284537   2.479   3.566   4.073  1.0012  0.4561  0.6092
27987SOL     OW84538   3.155   6.600   7.762  0.1771  0.3372  0.1754
27987SOL    HW184539   3.127   6.623   7.673  0.0058  0.6186  0.2988
27987SOL    HW284540   3.250   6.595   7.756  0.2941  1.9477  0.3256
27988SOL     OW84541   1.739   2.621   2.185 -0.4506  0.3387 -0.1577
27988SOL    HW184542   1.822   2.606   2.231 -0.9642  0.7169  0.9139
27988SOL    HW284543   1.764   2.622   2.092  0.2796 -2.5981 -0.0745
27989SOL     OW84544   2.169   5.594   3.881 -0.2613 -0.4614  0.0906
27989SOL    HW184545   2.242   5.643   3.919 -0.4019 -1.3006  1.5096
27989SOL    HW284546   2.098   5.604   3.944 -0.9555 -0.7900 -0.6193
27990SOL     OW84547   9.322   2.672   6.128  0.3269 -0.8065  0.7575
27990SOL    HW184548   9.412   2.664   6.095  0.2554 -0.1840  0.4014
27990SOL    HW284549   9.271   2.611   6.074  0.4317 -0.7205  0.5596
27991SOL     OW84550   5.319   3.655   4.829  0.2187  0.3772  0.4189
27991SOL    HW184551   5.249   3.592   4.844  1.3304 -0.6773  1.3003
27991SOL    HW284552   5.384   3.636   4.896  1.1932  1.5964 -0.1345
27992SOL     OW84553   9.145   3.003   5.117  0.1324  0.3133 -0.2645
27992SOL    HW184554   9.158   2.926   5.061  0.2690  0.2185 -0.0999
27992SOL    HW284555   9.103   3.067   5.059  2.1544  0.9812 -1.0936
27993SOL     OW84556   2.453   4.384   4.116 -0.2334  0.0032  0.4862
27993SOL    HW184557   2.369   4.340   4.104 -0.2097 -0.3816  1.6653
27993SOL    HW284558   2.498   4.334   4.184  0.3088  1.1129  0.9829
27994SOL     OW84559   7.439   7.052   8.095 -0.2195 -0.0947 -0.3380
27994SOL    HW184560   7.464   7.071   8.004 -0.9334 -0.5691 -0.6438
27994SOL    HW284561   7.426   7.138   8.135  3.6531  0.3614  0.4129
27995SOL     OW84562   3.254   4.883   2.335 -0.0142 -0.0347 -0.2884
27995SOL    HW184563   3.247   4.956   2.397 -0.5367 -0.2001 -0.1500
27995SOL    HW284564   3.163   4.861   2.313 -0.0380 -2.3543  1.6787
27996SOL     OW84565   5.653   7.449   8.766 -0.1102  0.8305 -0.6574
27996SOL    HW184566   5.572   7.442   8.716 -1.7987  0.7230  1.9133
27996SOL    HW284567   5.665   7.363   8.805  0.9825  0.9811 -0.6274
27997SOL     OW84568   2.852   0.567   2.457 -0.7331 -0.3915 -0.1913
27997SOL    HW184569   2.894   0.646   2.425  0.7599 -1.1176 -0.0884
27997SOL    HW284570   2.885   0.557   2.547 -0.0642 -1.6951 -0.5629
27998SOL     OW84571   1.033   6.916   0.685  0.5099  0.4804  0.1540
27998SOL    HW184572   1.018   6.905   0.591  1.0155 -1.9175  0.2946
27998SOL    HW284573   1.103   6.982   0.690  1.1855 -0.0822 -1.2009
27999SOL     OW84574   7.330   3.391   3.219 -0.3753  0.2808  0.0477
27999SOL    HW184575   7.301   3.341   3.295  0.9517  0.9892  1.0653
27999SOL    HW284576   7.259   3.453   3.202  0.2864  1.7552  2.2788
28000SOL     OW84577   9.095   7.227   8.277 -0.0843 -0.3537 -0.3091
28000SOL    HW184578   9.002   7.236   8.257 -0.0041 -0.1698 -0.5973
28000SOL    HW284579   9.122   7.314   8.306 -0.1786 -0.5898  0.5353
28001SOL     OW84580   7.887   3.916   2.799  0.7171 -0.0492  0.0954
28001SOL    HW184581   7.829   3.941   2.870  1.5006  1.6481  0.1827
28001SOL    HW284582   7.831   3.868   2.738  0.0420 -1.5600  1.8173
28002SOL     OW84583   8.203   9.176   3.400  0.3014 -0.1086  0.0188
28002SOL    HW184584   8.115   9.213   3.393  0.1657 -0.2011  1.0129
28002SOL    HW284585   8.189   9.089   3.438  0.8558  0.1298  0.8096
28003SOL     OW84586   8.598   0.639   9.936 -0.8637  0.1031  0.0754
28003SOL    HW184587   8.632   0.684  10.013 -0.1324  0.8001 -0.6263
28003SOL    HW284588   8.503   0.636   9.949 -0.6748 -0.8087  1.5171
28004SOL     OW84589   0.276   7.098   6.552 -0.5446  0.4064  0.3462
28004SOL    HW184590   0.219   7.100   6.475 -1.3452  0.7158  0.9366
28004SOL    HW284591   0.239   7.163   6.612 -0.7121 -0.7406  1.5391
28005SOL     OW84592   1.538   7.238   8.272 -0.6688  0.1837  0.1377
28005SOL    HW184593   1.489   7.254   8.353  0.5130  1.0496  0.7132
28005SOL    HW284594   1.607   7.303   8.273  0.2022 -0.6921 -0.8875
28006SOL     OW84595   1.281   4.718   8.163  0.0938 -0.1490 -0.4853
28006SOL    HW184596   1.186   4.718   8.160  0.0453 -0.5994  0.5320
28006SOL    HW284597   1.308   4.777   8.092 -0.9529  0.5258 -0.3383
28007SOL     OW84598   1.853   0.069   9.571 -0.3115 -0.0765 -0.0309
28007SOL    HW184599   1.787  -0.001   9.579 -2.2651  1.6781  0.1329
28007SOL    HW284600   1.891   0.075   9.659  1.2160 -2.0786 -0.4789
28008SOL     OW84601   8.479   6.930   7.417 -0.0868  0.0943 -0.1562
28008SOL    HW184602   8.387   6.955   7.427 -1.0366 -2.7151 -1.0941
28008SOL    HW284603   8.493   6.925   7.322  1.2011  0.8851 -0.0391
28009SOL     OW84604   1.140   5.732   8.792  0.8539  0.1080  0.0987
28009SOL    HW184605   1.168   5.796   8.726  0.2438 -0.5225 -0.7904
28009SOL    HW284606   1.047   5.718   8.773  0.9411 -0.9135  0.3815
28010SOL     OW84607   6.120   5.716   3.954  0.5731 -0.3958  0.1179
28010SOL    HW184608   6.043   5.757   3.992  0.8862  0.9416 -0.6306
28010SOL    HW284609   6.156   5.663   4.025 -1.3879 -1.6139  0.2832
28011SOL     OW84610   6.218   9.259   1.580 -0.4329  0.7233  0.3886
28011SOL    HW184611   6.216   9.355   1.586  3.3002  0.8967  1.2089
28011SOL    HW284612   6.271   9.241   1.503 -1.8679 -0.7861 -0.3061
28012SOL     OW84613   5.462   1.588   4.685 -0.4010 -1.0106 -0.2249
28012SOL    HW184614   5.460   1.631   4.600 -1.4145  0.4497  0.4966
28012SOL    HW284615   5.408   1.510   4.673  0.3879 -1.4333 -1.2004
28013SOL     OW84616   4.895   1.340   6.147  0.1758  0.0841 -0.0495
28013SOL    HW184617   4.885   1.255   6.189 -1.5392 -0.2020 -0.9510
28013SOL    HW284618   4.961   1.326   6.079 -0.3565 -0.6237 -0.4269
28014SOL     OW84619   8.165   1.069   1.195 -0.7678  0.0238 -0.0507
28014SOL    HW184620   8.225   1.001   1.227 -0.8960  0.0341  0.2201
28014SOL    HW284621   8.087   1.020   1.168 -1.4704  0.1679  1.5784
28015SOL     OW84622   9.190   8.683   9.672  0.2730  0.6307  0.6741
28015SOL    HW184623   9.234   8.714   9.593 -1.3248  0.9985 -0.1363
28015SOL    HW284624   9.195   8.757   9.733 -1.3230  1.6251 -0.3277
28016SOL     OW84625   6.139   7.545   9.320 -0.3166  0.8001  0.0362
28016SOL    HW184626   6.166   7.618   9.375 -0.2799 -0.1073  1.2411
28016SOL    HW284627   6.057   7.515   9.358 -0.0640 -0.1211 -0.1232
28017SOL     OW84628   7.733   4.624   4.245  0.4691  0.1892 -0.1565
28017SOL    HW184629   7.815   4.606   4.291 -0.1652  0.0267  0.9415
28017SOL    HW284630   7.665   4.587   4.301 -0.2630 -1.0897 -1.7977
28018SOL     OW84631   9.777   9.626   2.952  0.1183 -0.5119  0.1920
28018SOL    HW184632   9.795   9.533   2.942  0.4525 -0.2796 -1.7154
28018SOL    HW284633   9.705   9.644   2.892  0.0516  0.4629  0.5357
28019SOL     OW84634   5.718   4.969   3.545 -0.2866  0.2458  0.5772
28019SOL    HW184635   5.627   4.991   3.563 -0.6481 -0.7297  0.0076
28019SOL    HW284636   5.714   4.893   3.486  0.8629  1.0843 -0.6593
28020SOL     OW84637   9.273   6.796   6.228  0.2775 -0.1580 -0.5167
28020SOL    HW184638   9.245   6.791   6.136 -0.9560 -2.0424 -0.0945
28020SOL    HW284639   9.208   6.853   6.269 -0.0303 -0.4861 -0.5399
28021SOL     OW84640   8.410   8.925   6.621 -0.2323  0.4712  0.5993
28021SOL    HW184641   8.468   8.989   6.662  0.9553  1.6180 -2.5531
28021SOL    HW284642   8.451   8.840   6.636  0.4490  0.9138  1.2658
28022SOL     OW84643   5.869   0.339   7.303 -0.2238  0.0632  0.0564
28022SOL    HW184644   5.814   0.271   7.343 -0.6474  0.1504 -0.3625
28022SOL    HW284645   5.958   0.317   7.330 -0.4580 -0.1181  0.6971
28023SOL     OW84646   0.995   8.902   1.516 -0.2401  0.4207 -0.0447
28023SOL    HW184647   1.006   8.977   1.457 -0.6219  1.0788  0.6946
28023SOL    HW284648   0.978   8.942   1.602  0.0005 -0.5166  0.4494
28024SOL     OW84649   6.255   8.269   5.019 -0.0117 -0.7019  0.0061
28024SOL    HW184650   6.285   8.179   5.008  0.2707 -0.6449  0.3075
28024SOL    HW284651   6.254   8.305   4.931 -2.4327 -1.7214 -0.4678
28025SOL     OW84652   2.812   6.952   8.964 -0.3486  0.1189  0.0345
28025SOL    HW184653   2.800   7.013   8.891 -1.1229 -1.6787 -1.4234
28025SOL    HW284654   2.858   6.877   8.926  0.8482 -0.1217  1.8394
28026SOL     OW84655   3.726   9.306   1.903 -0.1986  0.5539  0.1999
28026SOL    HW184656   3.740   9.233   1.963  0.1188 -0.4443 -1.0580
28026SOL    HW284657   3.767   9.381   1.947  0.0400 -0.1434  1.2114
28027SOL     OW84658   0.243   1.222   8.920 -0.2696 -0.4829 -0.0097
28027SOL    HW184659   0.318   1.277   8.942  1.0564 -2.6007  1.1746
28027SOL    HW284660   0.196   1.211   9.003  0.0016 -1.7819  0.0048
28028SOL     OW84661   1.335   0.547   3.380 -0.2844 -0.2214 -0.4011
28028SOL    HW184662   1.417   0.584   3.346 -0.3480 -0.0434 -0.3613
28028SOL    HW284663   1.273   0.557   3.308 -0.0171 -1.2546 -0.7893
28029SOL     OW84664   7.148   1.668   2.077  0.4822  0.1640 -0.2311
28029SOL    HW184665   7.234   1.628   2.093 -0.3323 -1.9286 -0.6857
28029SOL    HW284666   7.104   1.665   2.162  0.0056 -1.1022 -0.4858
28030SOL     OW84667   6.757   9.832   8.779  0.4249  0.0125  0.5791
28030SOL    HW184668   6.821   9.891   8.819  0.6728 -0.0790  0.3255
28030SOL    HW284669   6.777   9.746   8.815  0.4903 -0.0288  0.4452
28031SOL     OW84670   5.215   6.120   3.618  0.1972 -0.1648  0.6114
28031SOL    HW184671   5.299   6.166   3.617  0.1765 -0.1265  0.6245
28031SOL    HW284672   5.232   6.037   3.572  0.1348  0.0287  0.2364
28032SOL     OW84673   1.841   5.440   2.398 -0.2135 -0.1112 -0.6879
28032SOL    HW184674   1.868   5.474   2.483  1.4729 -0.3321 -1.0967
28032SOL    HW284675   1.779   5.505   2.365  0.1133  0.6430  0.1370
28033SOL     OW84676   5.585   8.203   1.948  0.0077  0.2487  0.0851
28033SOL    HW184677   5.625   8.138   1.891 -0.4911 -3.2972  3.3800
28033SOL    HW284678   5.652   8.221   2.014 -0.5161  1.8234  0.2434
28034SOL     OW84679   5.813   4.772   7.471  0.1324 -0.5467  0.2924
28034SOL    HW184680   5.720   4.773   7.491 -0.0946  0.7327 -0.6876
28034SOL    HW284681   5.845   4.857   7.504  0.3384  0.2950 -1.9275
28035SOL     OW84682   7.023   6.295   7.926 -0.2866  0.2535  0.0663
28035SOL    HW184683   6.962   6.224   7.946  0.2340 -0.0287  0.7208
28035SOL    HW284684   7.055   6.323   8.012  0.4158  0.4719 -0.2612
28036SOL     OW84685   7.501   1.827   8.164 -0.5051 -0.1278 -0.1176
28036SOL    HW184686   7.498   1.921   8.147 -0.8267  0.1407  1.3109
28036SOL    HW284687   7.591   1.801   8.142 -0.3168  0.5749 -0.1810
28037SOL     OW84688   4.452   7.116   0.273 -0.3913 -0.4809 -0.2174
28037SOL    HW184689   4.491   7.029   0.269 -0.8167 -0.6096 -2.4683
28037SOL    HW284690   4.522   7.175   0.245 -1.3042 -0.5758 -2.9147
28038SOL     OW84691   8.773   1.434   6.954  0.1655 -0.2930 -0.1902
28038SOL    HW184692   8.731   1.419   6.869  0.6347  0.3618 -0.5554
28038SOL    HW284693   8.799   1.527   6.951  3.2690 -1.0461 -0.7670
28039SOL     OW84694   5.963   3.994   3.379 -0.2155  0.8033  0.1723
28039SOL    HW184695   5.879   4.012   3.337  0.4811  0.0937 -1.6651
28039SOL    HW284696   6.019   4.068   3.355  0.3277  0.1628 -0.6402
28040SOL     OW84697   6.698   9.359   8.771 -0.2150  0.0594 -0.2205
28040SOL    HW184698   6.784   9.317   8.769 -0.1351  0.1019  1.1920
28040SOL    HW284699   6.654   9.328   8.692 -0.5877 -3.5945  1.2308
28041SOL     OW84700   0.994   0.838   5.421 -0.1146  0.2073 -0.2563
28041SOL    HW184701   0.948   0.777   5.363 -0.1150 -0.1405  0.1070
28041SOL    HW284702   1.027   0.907   5.363  0.7372 -0.6442 -0.8150
28042SOL     OW84703   5.140   0.357   0.396  0.2120 -0.1815 -0.6104
28042SOL    HW184704   5.127   0.435   0.451  0.1803 -0.6014 -0.0083
28042SOL    HW284705   5.217   0.378   0.343  0.6944 -0.0510  0.1239
28043SOL     OW84706   6.257   8.500   4.320  0.1590  0.1637 -0.3920
28043SOL    HW184707   6.207   8.470   4.244 -0.2167  0.3077 -0.2042
28043SOL    HW284708   6.345   8.463   4.307 -0.0074 -0.1298 -0.6987
28044SOL     OW84709   4.130   7.223   7.436  0.1754 -0.2370 -0.0277
28044SOL    HW184710   4.167   7.184   7.515  1.7841 -0.7650 -1.0012
28044SOL    HW284711   4.102   7.148   7.383  1.3260 -0.0244 -0.9845
28045SOL     OW84712   7.956   5.903   5.066 -0.1681 -0.5235  0.0460
28045SOL    HW184713   7.988   5.879   4.979  1.0785 -0.4705  0.4708
28045SOL    HW284714   7.862   5.884   5.063 -0.0297 -1.1212 -1.1024
28046SOL     OW84715   9.830   6.975   2.621  0.1081  0.8622  0.0839
28046SOL    HW184716   9.871   6.957   2.537 -0.5891  0.3609 -0.1578
28046SOL    HW284717   9.903   6.986   2.682  0.6093 -0.0108 -0.3377
28047SOL     OW84718   8.588   0.339   8.538  0.3432 -0.4625 -0.1988
28047SOL    HW184719   8.681   0.317   8.550  0.4768 -0.7733 -1.6184
28047SOL    HW284720   8.589   0.418   8.484 -0.2019  1.2716  2.2018
28048SOL     OW84721   3.558   7.256   2.669 -0.7985 -0.3407  0.1707
28048SOL    HW184722   3.487   7.267   2.733 -0.3013  1.0977  0.5076
28048SOL    HW284723   3.612   7.186   2.706 -1.8818 -1.2896  0.0283
28049SOL     OW84724   7.916   8.932   0.272  0.1099 -0.1917  0.0651
28049SOL    HW184725   7.988   8.927   0.335  1.0751  0.8164 -0.9159
28049SOL    HW284726   7.900   8.842   0.246  0.2498 -0.5387  1.1184
28050SOL     OW84727   0.088   6.193   4.953  0.5120  0.6066 -0.3919
28050SOL    HW184728   0.125   6.260   5.011  0.2584  0.4488 -0.0418
28050SOL    HW284729  -0.006   6.193   4.973  0.7227 -1.0390  0.8725
28051SOL     OW84730   5.505   8.478   8.731  0.1787 -0.2532 -0.5619
28051SOL    HW184731   5.502   8.485   8.826  1.9248 -1.2076 -0.3855
28051SOL    HW284732   5.414   8.469   8.704 -0.2722 -1.1443  1.1273
28052SOL     OW84733   9.615   0.148   1.709  0.4326  0.0633 -1.3665
28052SOL    HW184734   9.616   0.140   1.805  1.6692 -2.2248 -1.5092
28052SOL    HW284735   9.561   0.226   1.693  0.7457  0.9197  1.1926
28053SOL     OW84736   2.423   0.532   4.379  0.0616 -0.0071  0.1453
28053SOL    HW184737   2.384   0.601   4.433 -0.5641 -0.7521  0.6598
28053SOL    HW284738   2.496   0.499   4.432 -0.2398 -0.3956  0.3199
28054SOL     OW84739   8.232   7.554   4.765 -0.2428 -0.7102  0.1056
28054SOL    HW184740   8.304   7.498   4.736  1.0311  0.8611  0.0539
28054SOL    HW284741   8.267   7.600   4.842 -0.6869  1.0393 -0.6904
28055SOL     OW84742   1.904   6.181   9.804 -0.6066 -0.1699 -0.1828
28055SOL    HW184743   1.941   6.096   9.827 -1.2924 -0.5111 -0.3150
28055SOL    HW284744   1.822   6.186   9.854  0.0992  1.0061  0.9019
28056SOL     OW84745   4.580   7.951   5.427  0.3773 -0.0508  0.5316
28056SOL    HW184746   4.579   8.044   5.449  0.6222  0.2362 -0.5889
28056SOL    HW284747   4.519   7.943   5.354 -0.1899 -0.9086  1.0813
28057SOL     OW84748   5.705   2.480   8.875  0.6020  0.1979  0.0783
28057SOL    HW184749   5.683   2.541   8.804  0.8297  0.1986  0.0085
28057SOL    HW284750   5.777   2.428   8.840  0.9139  0.3967  0.4194
28058SOL     OW84751   4.074   9.237   1.385  0.5474 -0.4481 -0.2686
28058SOL    HW184752   4.011   9.228   1.313 -0.1790 -1.3265  0.4539
28058SOL    HW284753   4.021   9.228   1.464  1.4752 -0.4206  0.3668
28059SOL     OW84754   9.368   4.353   5.350 -0.3324  0.2878  0.5770
28059SOL    HW184755   9.366   4.449   5.345 -1.2709  0.3768  2.0266
28059SOL    HW284756   9.454   4.332   5.385  0.2875  0.5211 -0.7656
28060SOL     OW84757   8.852   5.627   6.957  0.3793  1.0260  0.3501
28060SOL    HW184758   8.914   5.620   7.029 -0.1132  1.0256  0.7785
28060SOL    HW284759   8.859   5.544   6.910  0.2899  0.8020  0.7337
28061SOL     OW84760   3.971   6.906   8.137 -0.4513  0.2366  0.0158
28061SOL    HW184761   4.025   6.839   8.178 -0.1251 -0.3395 -1.3075
28061SOL    HW284762   3.885   6.866   8.128 -0.8283  0.7526  1.0843
28062SOL     OW84763   1.553   3.431   9.822 -0.6434  0.0481 -0.0133
28062SOL    HW184764   1.463   3.403   9.840 -1.2986  1.6725 -0.5854
28062SOL    HW284765   1.574   3.391   9.737 -0.7162 -0.5451  0.2434
28063SOL     OW84766   6.857   0.570   0.079  0.5795  0.1295  0.2285
28063SOL    HW184767   6.832   0.654   0.041  0.7882  0.0966  0.0132
28063SOL    HW284768   6.891   0.593   0.166 -0.2677  0.1611  0.5559
28064SOL     OW84769   0.095   1.962   8.831  0.1590 -0.2448 -0.7330
28064SOL    HW184770   0.180   1.950   8.789 -0.5966 -0.8406 -2.1421
28064SOL    HW284771   0.047   2.019   8.771 -0.9680 -1.1622 -0.7339
28065SOL     OW84772   9.434   6.932   0.696 -0.2873 -0.1830  0.1821
28065SOL    HW184773   9.486   6.860   0.660 -1.2703 -1.3901  1.0813
28065SOL    HW284774   9.363   6.889   0.744 -0.2189  1.3849  1.7856
28066SOL     OW84775   1.403   9.786   1.172 -0.3052  0.0392 -0.3693
28066SOL    HW184776   1.345   9.729   1.122 -0.9487  1.1888 -0.9651
28066SOL    HW284777   1.490   9.769   1.135 -0.3477 -1.0982 -0.0115
28067SOL     OW84778   1.688   6.517   6.046  0.4361  0.1884 -0.8365
28067SOL    HW184779   1.777   6.485   6.060  0.4026  0.4143 -0.0689
28067SOL    HW284780   1.700   6.598   5.997  0.6124 -0.1154 -1.3070
28068SOL     OW84781   5.303   3.378   0.533  0.9279 -0.1759  0.3112
28068SOL    HW184782   5.291   3.397   0.440  0.7471  0.7992  0.5275
28068SOL    HW284783   5.365   3.445   0.563 -1.5140  1.6596  1.6139
28069SOL     OW84784   2.382   4.037   3.206  0.2420  0.3014 -0.7869
28069SOL    HW184785   2.313   3.991   3.158 -0.1802  0.1647 -0.0622
28069SOL    HW284786   2.353   4.035   3.298  1.0346  0.5555 -0.5246
28070SOL     OW84787   5.507   2.361   9.037  0.1328  0.3695 -0.6298
28070SOL    HW184788   5.571   2.395   8.973  0.3883  1.1000 -0.0074
28070SOL    HW284789   5.432   2.420   9.028 -1.9387 -2.3956 -3.7260
28071SOL     OW84790   4.626   6.850   5.765 -0.2491  0.6573 -0.3683
28071SOL    HW184791   4.532   6.867   5.769 -0.3504 -0.1096  2.4534
28071SOL    HW284792   4.634   6.755   5.772  0.7565  0.6793 -0.9202
28072SOL     OW84793   8.307   4.226   1.002  0.0396  0.4432 -0.5670
28072SOL    HW184794   8.222   4.265   1.020  0.6419  1.5517 -0.0255
28072SOL    HW284795   8.370   4.297   1.019  1.1369 -0.6425 -0.0107
28073SOL     OW84796   4.486   9.901   1.338 -0.3842  0.1891 -0.7583
28073SOL    HW184797   4.410   9.959   1.341 -0.5171  0.0638 -1.5918
28073SOL    HW284798   4.539   9.928   1.413 -1.1725  0.3746 -0.2522
28074SOL     OW84799   0.895   5.911   7.368 -0.6375 -0.2017  1.2185
28074SOL    HW184800   0.816   5.923   7.421  0.1356  1.9269  1.9801
28074SOL    HW284801   0.966   5.948   7.421  0.6014 -0.4968 -0.1650
28075SOL     OW84802   4.790   5.665   2.822 -0.0286  0.2998  0.0018
28075SOL    HW184803   4.858   5.622   2.770 -0.4298 -0.8811  0.4131
28075SOL    HW284804   4.710   5.616   2.801 -0.6523  1.3167 -0.0567
28076SOL     OW84805   1.428   6.295   9.969 -0.3681 -0.6963 -0.6628
28076SOL    HW184806   1.347   6.277  10.016 -0.3435  0.5063 -0.1050
28076SOL    HW284807   1.400   6.344   9.891 -0.0404  2.6765  1.1479
28077SOL     OW84808   6.414   5.178   9.951  0.3307 -0.1483 -0.2017
28077SOL    HW184809   6.347   5.143   9.891  0.1430 -1.7118  0.8614
28077SOL    HW284810   6.497   5.161   9.906  0.1787 -1.0976 -0.1359
28078SOL     OW84811   3.425   2.140   6.339  0.4038 -0.0577 -0.3553
28078SOL    HW184812   3.429   2.073   6.407  0.3559  1.2568  0.9952
28078SOL    HW284813   3.350   2.114   6.284  1.5915 -2.1663 -1.0869
28079SOL     OW84814   5.286   3.645   1.028 -0.1648  0.5315 -0.2949
28079SOL    HW184815   5.191   3.660   1.024 -0.4105 -0.7319  0.1227
28079SOL    HW284816   5.321   3.720   1.075 -1.1933  0.2007  1.0522
28080SOL     OW84817   6.437   9.870   1.822 -0.1647 -0.6628 -0.3151
28080SOL    HW184818   6.357   9.817   1.822 -0.5689 -0.1281 -2.2690
28080SOL    HW284819   6.432   9.920   1.904 -0.5184 -2.4895  0.8339
28081SOL     OW84820   7.950   2.635   5.301 -0.0943 -0.3678 -0.6013
28081SOL    HW184821   7.893   2.698   5.344  1.3551  0.2252  0.5240
28081SOL    HW284822   8.024   2.686   5.271  0.9878 -1.4686  0.1009
28082SOL     OW84823   2.034   1.786   8.756  0.0206 -0.3473 -0.6306
28082SOL    HW184824   1.987   1.804   8.674 -2.2120 -0.1958  0.6227
28082SOL    HW284825   1.987   1.836   8.822  0.1052 -2.5670  1.2162
28083SOL     OW84826   1.657   9.058   4.008 -0.0551  0.5255  0.1734
28083SOL    HW184827   1.628   9.134   4.058  0.5941  2.2507 -1.9046
28083SOL    HW284828   1.581   9.033   3.955  0.7014  2.1469 -1.8510
28084SOL     OW84829   3.340   4.798   1.674 -0.3079  0.0221 -0.4407
28084SOL    HW184830   3.369   4.771   1.587  0.3971  0.4829 -0.3572
28084SOL    HW284831   3.317   4.717   1.719  3.0736 -0.6855  0.2905
28085SOL     OW84832   7.285   7.013   5.641  0.1195 -0.1741  0.0013
28085SOL    HW184833   7.345   7.049   5.576 -0.1699  0.1364 -0.0929
28085SOL    HW284834   7.228   6.955   5.591 -1.2373  1.3949 -0.3407
28086SOL     OW84835   8.407   1.360   9.751 -0.2617 -0.0101  0.3827
28086SOL    HW184836   8.315   1.345   9.772 -0.4008 -0.5886 -0.5534
28086SOL    HW284837   8.416   1.330   9.660  1.1802 -1.4632  0.9357
28087SOL     OW84838   0.092   8.441   3.690 -0.1051 -0.0503 -0.2278
28087SOL    HW184839   0.160   8.374   3.698  0.8911  0.9373 -0.1948
28087SOL    HW284840   0.014   8.392   3.664  0.7958 -1.1167 -1.0348
28088SOL     OW84841   1.937   1.889   9.697  0.0897 -0.1451  0.4385
28088SOL    HW184842   1.884   1.853   9.625  0.2815  1.2304 -0.4256
28088SOL    HW284843   2.021   1.911   9.656  1.0054 -1.3346  1.5733
28089SOL     OW84844   2.796   4.246   7.913 -0.3234 -0.5375 -0.5273
28089SOL    HW184845   2.785   4.241   7.818  0.5796  1.5885 -0.8091
28089SOL    HW284846   2.834   4.332   7.928  1.4827 -1.5870  1.5961
28090SOL     OW84847   0.778   8.404   5.350 -0.1892  0.5190  0.0286
28090SOL    HW184848   0.831   8.326   5.332  2.2594  1.5397  2.2785
28090SOL    HW284849   0.691   8.369   5.370  0.7457 -1.6367  0.6661
28091SOL     OW84850   8.906   2.434   2.952 -0.4416 -0.2728 -0.0873
28091SOL    HW184851   8.859   2.513   2.977 -2.0028 -1.0937 -0.3118
28091SOL    HW284852   8.992   2.443   2.994 -1.6445  0.1345  2.4679
28092SOL     OW84853   6.929   5.824   8.442  0.0665 -0.2274 -0.4289
28092SOL    HW184854   6.953   5.755   8.504  0.5753  0.2899 -0.0345
28092SOL    HW284855   6.847   5.859   8.477 -1.0511 -1.6712 -1.5056
28093SOL     OW84856   5.855   3.142   5.152  0.0364  0.1879  0.5078
28093SOL    HW184857   5.890   3.121   5.065 -0.6528 -1.3171  0.5720
28093SOL    HW284858   5.840   3.057   5.193 -0.5062  0.8697  1.7688
28094SOL     OW84859   6.672   3.271   5.451 -0.1834 -0.2477  0.3565
28094SOL    HW184860   6.647   3.279   5.543  0.3746 -0.5107  0.5357
28094SOL    HW284861   6.758   3.228   5.454 -0.9418 -1.9038 -0.3559
28095SOL     OW84862   3.629   8.841   1.500 -0.4570 -0.0806 -0.4893
28095SOL    HW184863   3.648   8.755   1.537 -2.5791 -1.1024 -1.6226
28095SOL    HW284864   3.710   8.891   1.513  1.0051 -2.3806 -0.2319
28096SOL     OW84865   9.611   0.710   3.353 -0.3334  0.0042  0.1641
28096SOL    HW184866   9.653   0.793   3.374  2.0211 -1.5183  2.0080
28096SOL    HW284867   9.598   0.713   3.258  1.0255  1.8961 -0.0019
28097SOL     OW84868   0.350   1.953   5.689  0.2332 -0.4400 -0.0490
28097SOL    HW184869   0.421   1.940   5.751 -0.7274 -0.7285  1.0143
28097SOL    HW284870   0.273   1.920   5.733 -0.2985 -1.7498 -1.8485
28098SOL     OW84871   1.942   2.441   9.210  0.3023  0.0537 -0.8517
28098SOL    HW184872   1.897   2.392   9.141  0.8693  1.5458 -2.3597
28098SOL    HW284873   1.983   2.515   9.164 -1.6559  2.7852  1.4052
28099SOL     OW84874   7.617   6.669   1.153  0.0220  0.2346 -0.1864
28099SOL    HW184875   7.664   6.604   1.204  1.7782  2.3791  1.1143
28099SOL    HW284876   7.597   6.626   1.070  0.2483 -2.2054  0.9488
28100SOL     OW84877   2.773   2.260   3.997 -0.0233  0.0965 -0.2121
28100SOL    HW184878   2.727   2.233   4.077 -3.0810 -3.8251 -2.9332
28100SOL    HW284879   2.852   2.206   3.996 -0.9735 -1.3408 -0.6765
28101SOL     OW84880   9.480   8.246   3.379  0.0456 -0.4466  0.0139
28101SOL    HW184881   9.389   8.217   3.373 -0.1655  0.0033  0.8687
28101SOL    HW284882   9.527   8.169   3.411  0.1816 -1.0333 -1.5013
28102SOL     OW84883   5.918   9.714   7.012 -0.2227 -0.4282  0.3221
28102SOL    HW184884   5.973   9.636   7.020 -0.1391 -0.4009  0.0441
28102SOL    HW284885   5.916   9.752   7.099  1.2237  0.2652  0.0785
28103SOL     OW84886   3.822   5.381   8.273  0.1746 -0.3609 -0.3356
28103SOL    HW184887   3.825   5.434   8.194  1.7392  0.4814  0.2358
28103SOL    HW284888   3.896   5.321   8.264  0.7452  0.1503  0.7264
28104SOL     OW84889   1.354   5.275   8.693  0.2260 -0.0752  0.5598
28104SOL    HW184890   1.263   5.295   8.672  0.3059  0.0620  0.3286
28104SOL    HW284891   1.405   5.335   8.638  0.5037 -1.6635 -1.0355
28105SOL     OW84892   0.389   5.137   1.458  0.5089  0.1208  0.0045
28105SOL    HW184893   0.338   5.190   1.397  2.3932  0.7885 -1.1034
28105SOL    HW284894   0.400   5.192   1.535  1.0761  0.7283 -0.4934
28106SOL     OW84895   5.464   5.807   1.310 -0.4821 -0.0310  0.5811
28106SOL    HW184896   5.486   5.724   1.268 -0.3986 -0.5924  1.6965
28106SOL    HW284897   5.384   5.789   1.358 -0.2174  0.4044  1.1957
28107SOL     OW84898   8.693   8.483   0.394 -0.2422  0.4562  0.1246
28107SOL    HW184899   8.722   8.516   0.309  0.1376  1.3368  0.5799
28107SOL    HW284900   8.644   8.556   0.432 -0.0014  0.2454  0.8528
28108SOL     OW84901   1.941   0.632   0.758 -0.2094 -0.1354 -0.3597
28108SOL    HW184902   1.918   0.690   0.685 -1.0914 -1.7195 -1.4019
28108SOL    HW284903   1.894   0.668   0.833 -0.5326  0.6331 -0.9158
28109SOL     OW84904   7.314   6.716   3.342  0.1807  0.2889  0.1143
28109SOL    HW184905   7.311   6.700   3.436 -1.2738 -0.2130  0.0056
28109SOL    HW284906   7.368   6.794   3.333  0.6672  0.1163  1.3262
28110SOL     OW84907   0.929   6.592   8.219 -1.0635  0.7796  0.2586
28110SOL    HW184908   0.850   6.637   8.190 -3.4752 -3.2392 -0.1351
28110SOL    HW284909   0.911   6.569   8.310  1.5317  3.2569  1.5436
28111SOL     OW84910   3.794   4.074   5.636 -0.2678 -0.1327  0.8094
28111SOL    HW184911   3.864   4.031   5.586 -1.3638 -0.6639 -0.3212
28111SOL    HW284912   3.717   4.020   5.621 -0.8154  0.0925  2.5455
28112SOL     OW84913   0.466   9.071   1.730 -0.9374  0.0573 -0.1866
28112SOL    HW184914   0.436   9.157   1.701 -1.2113 -0.3662 -1.2453
28112SOL    HW284915   0.561   9.074   1.722 -0.8523  0.6285  0.8958
28113SOL     OW84916   6.137   3.309   7.846 -0.0465  0.0176 -0.4351
28113SOL    HW184917   6.143   3.224   7.889 -2.1155 -0.2047 -0.5032
28113SOL    HW284918   6.146   3.373   7.916  0.7384 -0.2373 -0.2831
28114SOL     OW84919   4.744   3.709   9.976 -0.2850 -0.4165 -0.2722
28114SOL    HW184920   4.727   3.637   9.915 -1.1370 -0.4007 -0.0533
28114SOL    HW284921   4.837   3.700   9.997  0.0392 -0.4003 -1.5952
28115SOL     OW84922   1.484   8.588   7.612 -0.2529  1.0707 -0.1299
28115SOL    HW184923   1.502   8.622   7.700 -3.8586  2.9441  0.0459
28115SOL    HW284924   1.449   8.501   7.627  2.0872  0.0585 -0.0576
28116SOL     OW84925   5.838   7.567   7.418 -0.1174 -0.0295 -0.0398
28116SOL    HW184926   5.746   7.594   7.417 -0.5402 -1.1966  2.2899
28116SOL    HW284927   5.846   7.507   7.344 -0.5601  1.9091 -1.7599
28117SOL     OW84928   8.576   2.534   3.631 -0.1067 -0.0880  0.5828
28117SOL    HW184929   8.553   2.627   3.632  1.2626  0.3277 -1.2948
28117SOL    HW284930   8.601   2.517   3.540  1.0424 -1.9482  1.2085
28118SOL     OW84931   8.811   6.015   5.428  0.3928  0.1321  0.3966
28118SOL    HW184932   8.848   5.927   5.414  1.7400  0.5277  1.2295
28118SOL    HW284933   8.720   6.007   5.402  0.3623 -1.6481  0.8851
28119SOL     OW84934   7.995   1.138   5.410 -0.2686  0.1101 -0.7629
28119SOL    HW184935   8.082   1.101   5.402 -0.4373 -0.0223 -2.4436
28119SOL    HW284936   7.991   1.205   5.341 -0.5843  2.0478  1.0395
28120SOL     OW84937   5.108   6.599   0.247 -0.0015 -0.6651 -0.6196
28120SOL    HW184938   5.196   6.560   0.250  0.4781  0.4269  0.8832
28120SOL    HW284939   5.108   6.650   0.167  1.2601  0.4020  0.0145
28121SOL     OW84940   2.216   7.386   2.179 -0.3393  0.2399 -0.3626
28121SOL    HW184941   2.250   7.311   2.228 -0.4795 -0.1246 -0.8166
28121SOL    HW284942   2.283   7.402   2.111  0.7989  1.9254  1.0660
28122SOL     OW84943   2.242   2.750   3.741 -0.2873  0.2671 -0.0657
28122SOL    HW184944   2.215   2.820   3.801  0.4819  0.1252  0.4600
28122SOL    HW284945   2.320   2.712   3.782 -0.0017 -0.1169 -0.9478
28123SOL     OW84946   5.878   9.641   6.161 -0.1744 -0.3618  0.5820
28123SOL    HW184947   5.869   9.731   6.191  0.3572  0.2032 -0.8598
28123SOL    HW284948   5.973   9.624   6.164 -0.3088 -1.0865  1.3763
28124SOL     OW84949   2.504   9.135   2.409  0.2274  0.1699  0.5398
28124SOL    HW184950   2.418   9.141   2.367  0.5469 -0.7409 -0.2842
28124SOL    HW284951   2.495   9.065   2.473  0.7173 -0.8738 -0.5037
28125SOL     OW84952   6.404   7.366   2.467 -0.8007 -0.0948  0.2715
28125SOL    HW184953   6.368   7.326   2.387 -0.2142 -0.8340  0.3738
28125SOL    HW284954   6.474   7.307   2.494 -0.3595  0.6593  0.8018
28126SOL     OW84955   6.654   1.844   5.681 -0.1138 -0.3216  0.1635
28126SOL    HW184956   6.567   1.838   5.642 -0.7406 -1.1693  1.6022
28126SOL    HW284957   6.638   1.838   5.775  1.5335 -0.8391  0.4358
28127SOL     OW84958   6.175   5.289   1.098  0.4446  0.1157 -0.5763
28127SOL    HW184959   6.241   5.256   1.160  0.0093 -0.5074 -0.4357
28127SOL    HW284960   6.157   5.378   1.128  1.6048  0.4917 -0.9265
28128SOL     OW84961   4.396   5.577   6.369 -0.3595  0.7515  0.2562
28128SOL    HW184962   4.402   5.613   6.457 -0.4881  0.9288  0.1941
28128SOL    HW284963   4.359   5.490   6.381 -0.5580  0.8487  0.3626
28129SOL     OW84964   8.789   3.434   8.459  0.0540 -0.2114 -0.0373
28129SOL    HW184965   8.787   3.373   8.533 -0.2404  1.9975  1.8760
28129SOL    HW284966   8.879   3.431   8.427  0.7099  0.2554  1.7093
28130SOL     OW84967   1.571   2.976   6.511 -0.2093  0.5680 -0.7356
28130SOL    HW184968   1.491   3.028   6.518  0.4978  1.5308  0.5036
28130SOL    HW284969   1.641   3.040   6.500  0.6962 -0.0599  0.9101
28131SOL     OW84970   5.211   6.614   7.938  0.7009  0.2893  0.2073
28131SOL    HW184971   5.125   6.573   7.928  1.1700 -0.3865 -1.1829
28131SOL    HW284972   5.238   6.636   7.849  3.2393 -2.1153  0.2487
28132SOL     OW84973   0.587   8.612   2.553  0.3764 -0.2427  0.0812
28132SOL    HW184974   0.574   8.692   2.503  0.2677  1.4043  2.5699
28132SOL    HW284975   0.657   8.633   2.615  0.5025 -2.1719  0.6731
28133SOL     OW84976   2.337   6.783   4.005 -0.0866 -0.1433  0.4465
28133SOL    HW184977   2.315   6.846   3.937  0.7947 -2.1558 -1.8474
28133SOL    HW284978   2.425   6.752   3.981 -0.7826 -2.7724  1.0083
28134SOL     OW84979   4.527   5.346   6.977 -0.0512 -0.0404  0.1413
28134SOL    HW184980   4.438   5.309   6.979 -0.0882  0.0197 -0.2257
28134SOL    HW284981   4.564   5.313   6.895 -0.3432  1.3149 -0.5700
28135SOL     OW84982   6.985   1.392   7.333  0.0986  0.3726 -0.8421
28135SOL    HW184983   6.915   1.456   7.345 -1.2063 -0.8366 -1.7123
28135SOL    HW284984   7.007   1.365   7.423 -1.0695  0.2378 -0.5793
28136SOL     OW84985   6.286   8.982   8.645 -0.5650 -0.3214  0.3822
28136SOL    HW184986   6.279   8.889   8.625  0.9868 -0.0523 -1.8281
28136SOL    HW284987   6.372   8.990   8.687 -1.0896  0.0187  1.4193
28137SOL     OW84988   6.188   6.233   6.549  0.0074  0.1694 -0.2739
28137SOL    HW184989   6.168   6.164   6.486 -1.0408  0.1855  0.0247
28137SOL    HW284990   6.192   6.189   6.633  0.3636  0.3156 -0.2116
28138SOL     OW84991   8.323   2.279   5.276  0.3657  0.0666 -0.3526
28138SOL    HW184992   8.360   2.310   5.359  0.4783  1.5684 -0.9233
28138SOL    HW284993   8.365   2.334   5.210  4.1432 -4.2126 -2.0761
28139SOL     OW84994   2.232   0.984   4.065  0.3398 -0.0671 -0.0678
28139SOL    HW184995   2.141   0.962   4.085 -0.0547  0.5545 -1.0717
28139SOL    HW284996   2.284   0.929   4.124 -0.6980  0.4018  1.3421
28140SOL     OW84997   3.953   5.062   4.554 -0.0007  0.0167 -0.1863
28140SOL    HW184998   4.027   5.065   4.494 -0.7836 -0.8631 -1.2498
28140SOL    HW284999   3.972   4.988   4.612  0.3956  0.3898  0.1659
28141SOL     OW85000   0.976   3.747   8.281  0.1680  0.3086  0.3583
28141SOL    HW185001   1.058   3.793   8.296  1.4808 -1.8402  0.2272
28141SOL    HW285002   0.926   3.761   8.361  2.2938 -1.4226  2.1474
28142SOL     OW85003   8.635   6.787   6.181  0.3682 -0.2633 -0.6454
28142SOL    HW185004   8.726   6.756   6.171  0.0955 -0.5990 -2.4459
28142SOL    HW285005   8.594   6.765   6.098 -1.3720 -0.0683  0.1356
28143SOL     OW85006   5.197   8.575   3.801  0.0701  0.5374  0.4097
28143SOL    HW185007   5.158   8.544   3.719  0.3728  2.1763 -0.4029
28143SOL    HW285008   5.218   8.496   3.849  1.3102 -0.5442 -1.7687
28144SOL     OW85009   0.314   9.173   3.630 -0.1204  0.0989  0.5586
28144SOL    HW185010   0.288   9.086   3.661 -1.0569 -0.7628 -2.2522
28144SOL    HW285011   0.280   9.176   3.540  2.0081  2.4381 -0.2635
28145SOL     OW85012   9.538   5.368   0.276 -0.3514 -0.5516 -0.4782
28145SOL    HW185013   9.600   5.420   0.327 -0.0848 -0.8229 -0.5190
28145SOL    HW285014   9.572   5.278   0.282 -1.1046 -0.8157  0.0535
28146SOL     OW85015   2.325   2.817   7.640  0.1025 -0.0958  0.1432
28146SOL    HW185016   2.387   2.765   7.589  1.1996  1.4315 -0.1586
28146SOL    HW285017   2.366   2.827   7.726 -0.3951 -0.2370  0.4026
28147SOL     OW85018   8.104   4.845   5.354 -0.1912  0.5646 -0.4486
28147SOL    HW185019   8.039   4.895   5.305  0.4653  0.4179 -1.5025
28147SOL    HW285020   8.074   4.849   5.444 -2.7543 -1.1148 -1.1161
28148SOL     OW85021   5.967   7.509   5.571 -0.2498  0.2346 -0.3462
28148SOL    HW185022   5.985   7.526   5.663  2.2960  2.1550 -1.0807
28148SOL    HW285023   5.964   7.413   5.564  0.1359  0.0413  1.6143
28149SOL     OW85024   0.915   0.797   7.091  0.4386  0.4020 -0.0168
28149SOL    HW185025   0.975   0.728   7.122 -0.2077 -0.0165  0.3212
28149SOL    HW285026   0.899   0.774   6.999  0.4151  0.2394  0.0269
28150SOL     OW85027   1.337   3.732   4.908  0.3502  0.3925  0.0365
28150SOL    HW185028   1.347   3.791   4.834  0.2735 -0.9949 -1.1220
28150SOL    HW285029   1.423   3.732   4.951  0.1534  1.8489  0.4844
28151SOL     OW85030   4.104   6.234   7.129  0.4186  0.1272  0.1355
28151SOL    HW185031   4.027   6.285   7.158  0.5169 -0.4401  1.4821
28151SOL    HW285032   4.176   6.268   7.182  0.9239  0.0537 -0.4997
28152SOL     OW85033   5.190   7.142   5.208  0.1038 -0.0478 -0.5354
28152SOL    HW185034   5.244   7.066   5.184 -0.6150  0.0514 -2.6450
28152SOL    HW285035   5.250   7.217   5.200  0.0304 -0.0837 -1.4484
28153SOL     OW85036   0.622   2.072   9.392 -0.4071 -0.5079  0.4644
28153SOL    HW185037   0.608   2.130   9.466 -2.7078  0.9927 -0.9880
28153SOL    HW285038   0.626   2.130   9.316 -2.3616 -2.1387 -1.0216
28154SOL     OW85039   8.753   2.113   9.493  0.1574  0.2418  0.5855
28154SOL    HW185040   8.667   2.089   9.457  1.8728 -0.2327 -3.7573
28154SOL    HW285041   8.747   2.208   9.506 -0.1151  0.8354 -2.9918
28155SOL     OW85042   5.628   4.744   6.776 -0.2794  0.2881 -0.5540
28155SOL    HW185043   5.600   4.655   6.800 -1.4100  0.6517 -0.4799
28155SOL    HW285044   5.702   4.730   6.716 -1.2946 -0.7359 -1.6123
28156SOL     OW85045   3.026   6.071   4.410 -0.0071  0.3262  0.0023
28156SOL    HW185046   3.099   6.026   4.368  1.2664  0.1615  2.1997
28156SOL    HW285047   2.968   6.001   4.440  0.9074  0.1957  1.5725
28157SOL     OW85048   6.758   6.567   5.665 -0.4130  0.3194  0.0747
28157SOL    HW185049   6.682   6.549   5.720 -0.7719 -0.5004 -0.6583
28157SOL    HW285050   6.828   6.514   5.702 -1.2264 -2.0207 -1.5172
28158SOL     OW85051   4.769   1.023   7.477 -0.2951 -0.5676 -0.7236
28158SOL    HW185052   4.752   0.973   7.557 -1.8603  2.2326  0.8509
28158SOL    HW285053   4.685   1.025   7.432 -0.4889  1.2270 -0.3450
28159SOL     OW85054   3.636   1.823   6.432 -0.3802 -0.3441 -0.4026
28159SOL    HW185055   3.613   1.916   6.430 -1.8429 -0.6894 -1.0120
28159SOL    HW285056   3.555   1.778   6.408  0.3694 -1.7719 -0.3481
28160SOL     OW85057   7.184   3.857   9.933  0.2644  0.1581  0.1707
28160SOL    HW185058   7.216   3.837  10.021  0.6966  1.1940  0.2726
28160SOL    HW285059   7.258   3.838   9.875 -0.2602 -1.2220 -0.0665
28161SOL     OW85060   2.648   7.641   1.960  0.0415  0.1124  0.1277
28161SOL    HW185061   2.673   7.701   1.890 -1.3280  0.5015 -0.0581
28161SOL    HW285062   2.583   7.690   2.011 -1.6625 -1.4243 -0.4389
28162SOL     OW85063   8.900   6.926   6.975  0.4033  0.1842  0.2005
28162SOL    HW185064   8.815   6.957   7.008 -0.0162  0.4113 -1.0181
28162SOL    HW285065   8.965   6.977   7.023 -0.1836  0.6958  0.4677
28163SOL     OW85066   2.547   2.297   1.987  0.2146 -0.4671 -0.0554
28163SOL    HW185067   2.500   2.339   2.060 -0.3462 -0.9733 -0.1161
28163SOL    HW285068   2.625   2.351   1.975  0.4671 -0.5447  1.1175
28164SOL     OW85069   7.181   8.260   5.239  0.0402 -0.5502 -0.1133
28164SOL    HW185070   7.203   8.211   5.318  1.2128  1.1862  0.7169
28164SOL    HW285071   7.266   8.286   5.203 -0.5145  1.5824 -0.0085
28165SOL     OW85072   1.325   6.041   1.720  0.3727  1.0544  0.0100
28165SOL    HW185073   1.336   6.069   1.811 -0.9777  1.1772  0.1588
28165SOL    HW285074   1.406   5.995   1.699  0.5349  0.6505  1.4156
28166SOL     OW85075   5.874   0.359   6.942  0.1771  0.3860  0.3616
28166SOL    HW185076   5.897   0.381   7.033 -0.4567 -0.0612  0.6344
28166SOL    HW285077   5.863   0.444   6.899  0.7899  0.6042  0.6175
28167SOL     OW85078   4.704   1.167   4.043  0.2270  0.6906  0.4894
28167SOL    HW185079   4.679   1.142   4.132 -0.2975 -1.6373 -0.2461
28167SOL    HW285080   4.635   1.130   3.988  2.9516 -2.2433 -1.2844
28168SOL     OW85081   1.354   0.838   3.469 -0.4557  0.0575  0.1693
28168SOL    HW185082   1.384   0.832   3.560 -0.7012  0.3998  0.2757
28168SOL    HW285083   1.429   0.809   3.417  0.0111  0.7587  0.4379
28169SOL     OW85084   3.274   8.895   5.373 -0.1961  0.5027  0.1455
28169SOL    HW185085   3.348   8.845   5.337  0.0039 -0.1574  1.4300
28169SOL    HW285086   3.287   8.984   5.339  1.5937  0.5716  0.8836
28170SOL     OW85087   9.850   1.103   7.313  0.1869  0.7697 -0.5113
28170SOL    HW185088   9.945   1.094   7.299  0.0595  0.0870 -0.9765
28170SOL    HW285089   9.831   1.194   7.291  0.1789  0.0985 -3.8158
28171SOL     OW85090   2.188   6.578   1.903 -0.5111  0.2604 -0.1478
28171SOL    HW185091   2.118   6.514   1.914 -1.9684  1.8986  0.4945
28171SOL    HW285092   2.267   6.525   1.889 -1.5818 -1.6650  0.7410
28172SOL     OW85093   4.250   1.890   0.993  0.2524 -0.1157 -0.0548
28172SOL    HW185094   4.166   1.931   1.015  0.2108 -0.7777  1.0961
28172SOL    HW285095   4.227   1.823   0.928 -0.3090 -1.0904  1.1176
28173SOL     OW85096   4.852   3.449   6.970  0.0001 -0.1731  0.0495
28173SOL    HW185097   4.929   3.462   6.915  1.0600 -0.0582  1.4918
28173SOL    HW285098   4.816   3.537   6.982  0.3784 -0.0587  0.3698
28174SOL     OW85099   4.045   2.859   1.311 -1.1776 -0.1664 -0.1572
28174SOL    HW185100   4.012   2.828   1.396 -0.8348 -0.1961 -0.0334
28174SOL    HW285101   4.092   2.784   1.275 -0.2055  0.2370  0.2164
28175SOL     OW85102   4.333   1.242   9.363 -0.3331  0.1017  0.9712
28175SOL    HW185103   4.375   1.268   9.445 -3.2894  1.5366  2.1939
28175SOL    HW285104   4.265   1.308   9.349  0.4900  0.3653 -3.1134
28176SOL     OW85105   6.975   5.832   1.192 -0.8687  0.0972 -0.1262
28176SOL    HW185106   6.952   5.845   1.284 -0.7213  2.5273 -0.3679
28176SOL    HW285107   7.071   5.830   1.192 -0.8288  1.2039 -0.3064
28177SOL     OW85108   9.246   7.517   9.230  0.1963 -0.1675 -0.0106
28177SOL    HW185109   9.160   7.482   9.204  0.7241 -2.5690  1.2130
28177SOL    HW285110   9.236   7.538   9.323  0.2801  1.8755 -0.4268
28178SOL     OW85111   0.004   2.396   9.007  0.2264 -0.2982  0.2808
28178SOL    HW185112   0.084   2.383   8.956  0.5599  0.8253  0.4984
28178SOL    HW285113   0.028   2.458   9.076 -2.0435  4.6981 -2.8539
28179SOL     OW85114   0.702   7.021   4.961 -0.3079  0.1392 -0.4771
28179SOL    HW185115   0.624   6.970   4.938 -0.8180  1.1282 -1.0128
28179SOL    HW285116   0.770   6.955   4.974 -1.1738 -0.7403 -0.1955
28180SOL     OW85117   2.580   5.206   9.225 -0.5026  0.0246  0.1867
28180SOL    HW185118   2.571   5.184   9.133 -0.7899 -0.7485  0.3912
28180SOL    HW285119   2.652   5.269   9.228 -1.2131  0.9051 -0.6839
28181SOL     OW85120   9.864   7.916   2.442  0.3369  0.3799  0.2614
28181SOL    HW185121   9.828   8.004   2.453 -0.3638  0.1256  0.0206
28181SOL    HW285122   9.927   7.907   2.514  0.8901  1.3100 -0.0938
28182SOL     OW85123   5.834   9.492   6.623  0.0337 -0.2925 -0.3218
28182SOL    HW185124   5.881   9.476   6.541 -1.5690 -0.3640 -1.2640
28182SOL    HW285125   5.818   9.404   6.659 -0.3020 -0.3277 -0.5512
28183SOL     OW85126   2.856   3.990   9.705  0.1392 -0.1225  0.1082
28183SOL    HW185127   2.837   3.897   9.694  0.3258 -0.3111  1.2898
28183SOL    HW285128   2.928   4.007   9.644  0.1290 -0.7598 -0.0922
28184SOL     OW85129   2.884   9.665   1.751 -0.0107 -0.4445 -0.1329
28184SOL    HW185130   2.908   9.727   1.682 -1.5817 -0.1704 -0.4707
28184SOL    HW285131   2.968   9.635   1.786  0.8078  1.7663 -0.0360
28185SOL     OW85132   3.569   8.448   1.768 -0.0548 -0.0430 -0.2916
28185SOL    HW185133   3.475   8.435   1.761 -0.3683  0.5260  2.1388
28185SOL    HW285134   3.597   8.386   1.836  1.0475  0.8771  0.1282
28186SOL     OW85135   6.904   1.728   8.333 -0.1808  0.0703 -0.1138
28186SOL    HW185136   6.913   1.822   8.322  1.1121 -0.0052  0.1786
28186SOL    HW285137   6.841   1.717   8.404  0.0700  0.7169  0.2079
28187SOL     OW85138   4.565   6.243   9.177 -0.0978 -0.4283  0.7915
28187SOL    HW185139   4.512   6.164   9.187 -0.1589 -0.4783  0.0877
28187SOL    HW285140   4.511   6.302   9.124  1.1682 -1.0959 -1.3639
28188SOL     OW85141   7.886   5.283   7.382 -0.4328 -0.1780 -0.2544
28188SOL    HW185142   7.951   5.300   7.314 -0.2728  1.2503  0.2348
28188SOL    HW285143   7.807   5.259   7.334 -0.3180  0.7825 -0.9506
28189SOL     OW85144   8.033   2.834   8.903 -0.0325 -0.2681 -0.6172
28189SOL    HW185145   8.042   2.903   8.838  1.2117  1.0611  0.9033
28189SOL    HW285146   8.084   2.761   8.866  1.5847  0.8353 -0.6789
28190SOL     OW85147   1.015   5.930   9.742 -0.0824 -0.1198  0.1081
28190SOL    HW185148   0.964   5.873   9.799  0.7203 -1.5136 -0.4944
28190SOL    HW285149   1.071   5.870   9.693  2.4364  1.3448  1.0311
28191SOL     OW85150   2.812   4.054   8.152  0.6733 -0.4775  0.1838
28191SOL    HW185151   2.800   4.128   8.091 -0.9460 -0.3280  0.6216
28191SOL    HW285152   2.806   3.977   8.096 -2.2900 -0.3996  0.2394
28192SOL     OW85153   1.009   0.629   1.766 -0.5529 -0.1843  0.0907
28192SOL    HW185154   1.040   0.544   1.734  0.7445  0.1003  0.5219
28192SOL    HW285155   1.071   0.692   1.729 -0.8237  0.4498  0.6988
28193SOL     OW85156   3.906   3.109   1.507  0.6198 -0.8399  0.4021
28193SOL    HW185157   3.915   3.198   1.541  2.8503 -0.6730 -0.4619
28193SOL    HW285158   3.913   3.119   1.412 -1.8729 -1.6942  0.0526
28194SOL     OW85159   0.547   3.378   7.093 -0.2133 -0.2361 -0.5070
28194SOL    HW185160   0.511   3.466   7.089 -0.6020 -0.2778  1.3619
28194SOL    HW285161   0.613   3.376   7.023 -0.0687  1.5844 -0.4685
28195SOL     OW85162   0.373   2.292   6.173  0.5644  0.5301 -0.1483
28195SOL    HW185163   0.466   2.297   6.195  0.7040 -2.2602  0.2168
28195SOL    HW285164   0.370   2.313   6.080  1.6285  0.1641 -0.2824
28196SOL     OW85165   7.907   1.390   1.322 -0.9218 -0.1010  0.3136
28196SOL    HW185166   7.887   1.381   1.229  0.0219 -1.1118  0.1935
28196SOL    HW285167   7.852   1.463   1.351  1.0603  2.3914 -1.7145
28197SOL     OW85168   7.436   2.036   0.309 -0.7472  0.6794 -0.2724
28197SOL    HW185169   7.485   1.990   0.378  0.0966  2.4994  0.4182
28197SOL    HW285170   7.346   2.007   0.321 -0.3268 -0.4411  0.4063
28198SOL     OW85171   2.134   9.551   3.739  0.5124  0.5369 -0.3489
28198SOL    HW185172   2.118   9.458   3.755 -1.0208  0.9176  0.5082
28198SOL    HW285173   2.153   9.556   3.645  0.6777 -0.6340 -0.4010
28199SOL     OW85174   3.844   4.701   5.777 -1.0666  0.0689 -0.6450
28199SOL    HW185175   3.907   4.763   5.814  0.8857 -0.1965 -3.2852
28199SOL    HW285176   3.862   4.619   5.822  0.4396  0.0333 -1.2587
28200SOL     OW85177   4.977   2.756   0.028  0.2781 -0.7131 -0.9556
28200SOL    HW185178   4.929   2.776   0.108 -0.8537 -0.6191 -1.6329
28200SOL    HW285179   5.001   2.664   0.037  1.9388 -0.1874  0.3666
28201SOL     OW85180   7.021   3.338   9.118 -0.4039  0.4658  0.2442
28201SOL    HW185181   7.028   3.376   9.206 -1.9958 -0.6800  0.9130
28201SOL    HW285182   6.933   3.364   9.088 -0.8210 -1.1163 -0.0052
28202SOL     OW85183   0.852   2.344   4.627  0.2126 -0.5559  0.3137
28202SOL    HW185184   0.794   2.417   4.649  1.8493  0.1389  2.6462
28202SOL    HW285185   0.802   2.292   4.564 -1.3311  2.1005 -0.8010
28203SOL     OW85186   9.714   6.707   6.940 -0.0406 -0.1182 -0.0731
28203SOL    HW185187   9.692   6.620   6.906 -1.3157 -0.3130  1.1311
28203SOL    HW285188   9.778   6.741   6.879  0.4827 -1.9026 -0.5873
28204SOL     OW85189   0.746   3.678   7.299 -0.0364 -0.5621  0.7861
28204SOL    HW185190   0.806   3.631   7.241  0.1523  0.3950  0.1860
28204SOL    HW285191   0.763   3.642   7.386  2.3873  0.6201  0.8662
28205SOL     OW85192   7.113   3.467   8.781  0.3872 -0.3583 -0.4001
28205SOL    HW185193   7.076   3.433   8.862  0.6711 -0.9290 -0.5014
28205SOL    HW285194   7.137   3.558   8.801  0.8375 -0.6193  0.2782
28206SOL     OW85195   3.113   3.318   2.427 -0.7556 -0.2421  0.0993
28206SOL    HW185196   3.081   3.394   2.379  1.8787  1.8718  1.4536
28206SOL    HW285197   3.123   3.250   2.360  0.1257  1.7100 -1.8519
28207SOL     OW85198   7.820   9.105   2.783 -0.3275 -0.3290  0.1899
28207SOL    HW185199   7.834   9.198   2.802 -0.9209  0.0782 -1.2046
28207SOL    HW285200   7.748   9.104   2.720  0.7240 -1.6190 -1.0667
28208SOL     OW85201   9.822   5.817   7.036  0.0260  0.8157 -0.1287
28208SOL    HW185202   9.875   5.763   6.977  0.0410 -0.2861  0.8692
28208SOL    HW285203   9.791   5.757   7.103 -2.3596  1.4528 -0.5608
28209SOL     OW85204   2.524   4.002   2.387  0.5893  0.0724  0.3191
28209SOL    HW185205   2.571   3.985   2.306  1.2071  0.7289  0.5326
28209SOL    HW285206   2.515   4.097   2.391 -0.8291 -0.0369  0.2458
28210SOL     OW85207   5.513   4.159   4.805  0.2765  0.6570 -0.0819
28210SOL    HW185208   5.524   4.068   4.780  0.1216  0.9667 -1.3215
28210SOL    HW285209   5.427   4.162   4.848  0.2806  0.2263 -0.0402
28211SOL     OW85210   7.166   1.550   0.788 -0.4165  0.1702 -0.1284
28211SOL    HW185211   7.158   1.519   0.878  0.0941 -0.8057 -0.4140
28211SOL    HW285212   7.204   1.477   0.740 -0.3783  0.7951 -1.0777
28212SOL     OW85213   3.154   3.585   6.794  0.0611  0.1039 -0.3093
28212SOL    HW185214   3.147   3.679   6.807  0.8740  0.2356 -0.7438
28212SOL    HW285215   3.208   3.554   6.867 -0.1654 -0.0230 -0.1933
28213SOL     OW85216   3.584   5.443   2.637 -0.1051  0.3295 -0.0066
28213SOL    HW185217   3.605   5.512   2.699 -0.7511  1.1880 -0.7222
28213SOL    HW285218   3.647   5.373   2.656  0.3583  0.9882  0.9200
28214SOL     OW85219   4.559   1.320   4.759 -0.5321  0.3540 -0.0667
28214SOL    HW185220   4.606   1.352   4.836 -1.7541  0.1731  0.7761
28214SOL    HW285221   4.623   1.264   4.714 -0.7331 -2.2018  2.5391
28215SOL     OW85222   1.383   5.565   8.833 -0.3585  0.3346 -0.1562
28215SOL    HW185223   1.293   5.595   8.817 -0.9803 -2.2079 -2.1246
28215SOL    HW285224   1.373   5.492   8.893  0.2284 -0.7239 -1.3135
28216SOL     OW85225   7.813   4.565   9.429 -0.3524  0.4820 -0.3240
28216SOL    HW185226   7.804   4.655   9.460 -0.7266  0.4419 -0.3136
28216SOL    HW285227   7.803   4.511   9.508  0.6154  0.4544 -0.2029
28217SOL     OW85228   5.450   7.332   7.703  0.3862  0.2436 -0.5194
28217SOL    HW185229   5.490   7.280   7.633 -0.4186 -0.8607 -0.1808
28217SOL    HW285230   5.363   7.294   7.715 -0.1403  1.5300 -0.0953
28218SOL     OW85231   5.823   8.682   5.539  0.2737  0.2160 -0.6676
28218SOL    HW185232   5.743   8.679   5.591 -0.7199  0.5588 -2.1085
28218SOL    HW285233   5.880   8.743   5.585  0.6733 -1.7364  1.6392
28219SOL     OW85234   0.447   8.618   9.740  0.8497 -0.1550  0.2264
28219SOL    HW185235   0.535   8.601   9.708  0.3373 -0.5686 -1.0439
28219SOL    HW285236   0.412   8.685   9.680  0.1027 -0.4481  0.3228
28220SOL     OW85237   5.204   2.644   5.757  0.2517  0.4354 -0.5966
28220SOL    HW185238   5.179   2.706   5.825  1.3085  1.1531 -0.8283
28220SOL    HW285239   5.199   2.558   5.799 -2.7415  0.4565 -0.6967
28221SOL     OW85240   1.812   0.123   4.665  0.0279 -0.1010  0.0482
28221SOL    HW185241   1.842   0.033   4.654  1.0430  0.2724 -0.2756
28221SOL    HW285242   1.798   0.155   4.575 -0.4657  0.0243  0.1645
28222SOL     OW85243   5.018   8.779   6.925 -0.1464 -0.0383 -0.4820
28222SOL    HW185244   4.939   8.804   6.972 -0.3482 -1.8222  0.2100
28222SOL    HW285245   5.088   8.828   6.968 -0.0957 -2.6325  2.8269
28223SOL     OW85246   8.423   2.228   4.794  0.4595  0.2568  0.2417
28223SOL    HW185247   8.331   2.239   4.772  0.3024  0.0185  0.7702
28223SOL    HW285248   8.424   2.216   4.889  0.6715 -3.2276 -0.0560
28224SOL     OW85249   9.458   8.679   1.095 -0.2431  0.1346  0.7526
28224SOL    HW185250   9.505   8.692   1.013 -1.1775 -0.6229  0.0817
28224SOL    HW285251   9.488   8.593   1.126  0.0295  0.3728  1.1555
28225SOL     OW85252   6.758   4.030   6.190  0.1515  0.3946  0.5728
28225SOL    HW185253   6.671   4.005   6.221 -1.9646  2.5198 -2.9191
28225SOL    HW285254   6.763   4.124   6.205  1.2280  0.5521 -0.5797
28226SOL     OW85255   9.143   9.574   8.332  0.6962  0.1379 -0.0879
28226SOL    HW185256   9.166   9.490   8.372  2.2543  0.6063  0.0955
28226SOL    HW285257   9.065   9.556   8.281  0.5812 -1.2526  0.5249
28227SOL     OW85258   0.597   7.931   7.635 -0.3661 -0.3480  0.0266
28227SOL    HW185259   0.520   7.940   7.580 -0.2783  0.4726  0.0259
28227SOL    HW285260   0.566   7.949   7.724  0.3278  3.1684 -0.2688
28228SOL     OW85261   0.643   2.448   4.251  0.0220 -0.8050  0.0313
28228SOL    HW185262   0.674   2.384   4.315  0.5441  1.5275  2.2995
28228SOL    HW285263   0.551   2.463   4.274  0.3312  0.3708  0.5988
28229SOL     OW85264   7.029   8.494   1.936  0.1348  0.6875  0.7832
28229SOL    HW185265   6.996   8.407   1.911 -0.4765  0.0208  3.5864
28229SOL    HW285266   7.073   8.526   1.858 -0.2518 -1.8393 -0.5788
28230SOL     OW85267   1.573   3.306   5.099  0.2036 -0.2485 -0.1282
28230SOL    HW185268   1.565   3.312   5.004  2.5310  3.2679 -0.2741
28230SOL    HW285269   1.482   3.311   5.130 -0.4865  1.0416 -2.1209
28231SOL     OW85270   8.117   3.538   0.855  0.2125  0.2523 -0.1787
28231SOL    HW185271   8.212   3.549   0.863 -0.0124  2.3998  0.0871
28231SOL    HW285272   8.087   3.619   0.814 -1.7471  0.6000  1.7580
28232SOL     OW85273   1.028   4.339   7.505 -0.3255 -0.3277 -0.2819
28232SOL    HW185274   1.014   4.360   7.413 -0.8701  0.8124  0.0482
28232SOL    HW285275   1.046   4.423   7.547  0.0743 -0.8500  0.6285
28233SOL     OW85276   1.256   1.771   3.979 -0.1269 -0.1023  0.2938
28233SOL    HW185277   1.295   1.736   3.898  0.4822  2.3553 -0.5703
28233SOL    HW285278   1.329   1.771   4.041 -0.5897 -1.9710  0.9198
28234SOL     OW85279   1.380   4.923   9.730 -0.2330  0.2903  0.2359
28234SOL    HW185280   1.326   4.987   9.683 -0.0016  1.0729  1.0157
28234SOL    HW285281   1.369   4.842   9.680 -1.7231  0.5569  0.0846
28235SOL     OW85282   2.502   9.541   8.166 -0.0094  0.0711  0.6243
28235SOL    HW185283   2.450   9.609   8.124 -0.4781 -0.9591 -0.5551
28235SOL    HW285284   2.581   9.534   8.113  0.5567  0.4597  1.4033
28236SOL     OW85285   0.652   0.221   5.865 -0.1941  0.4198  0.0593
28236SOL    HW185286   0.663   0.260   5.952  0.5323 -2.8612  1.5872
28236SOL    HW285287   0.561   0.190   5.864  0.1724 -0.7127  0.2294
28237SOL     OW85288   5.464   7.691   4.224 -0.2440  0.3029  0.0984
28237SOL    HW185289   5.406   7.638   4.169 -0.2621  1.0978 -0.6669
28237SOL    HW285290   5.483   7.635   4.299 -1.4806 -0.2081  0.0470
28238SOL     OW85291   8.285   9.241   7.326 -0.4669 -0.0597  0.1080
28238SOL    HW185292   8.313   9.150   7.341 -0.7524 -0.1294  0.2265
28238SOL    HW285293   8.307   9.257   7.234 -1.9743 -0.8356 -0.4289
28239SOL     OW85294   6.610   3.740   9.207  0.1092  0.3359  0.4837
28239SOL    HW185295   6.690   3.743   9.259 -0.0366 -0.2946  0.7542
28239SOL    HW285296   6.568   3.658   9.232 -0.3048  0.3536 -0.1283
28240SOL     OW85297   6.072   6.659   8.540  0.2851 -0.4182  0.2171
28240SOL    HW185298   6.062   6.747   8.576  0.2774 -0.6286  0.7465
28240SOL    HW285299   6.079   6.602   8.617  0.5041 -0.8567 -0.1177
28241SOL     OW85300   6.772   3.957   3.281 -0.0742 -0.8180  0.0262
28241SOL    HW185301   6.799   4.006   3.204 -1.5132 -2.0208 -1.3301
28241SOL    HW285302   6.839   3.890   3.292  0.9112  0.2750  0.7394
28242SOL     OW85303   6.176   1.266   6.933  0.6592  0.2196 -0.0543
28242SOL    HW185304   6.177   1.359   6.958  1.3157  0.5133 -1.0805
28242SOL    HW285305   6.084   1.244   6.924  0.5017  0.8478 -0.0121
28243SOL     OW85306   1.667   5.797   7.266  0.2078 -0.6419  0.2037
28243SOL    HW185307   1.658   5.733   7.337 -0.1933 -1.3749 -0.4921
28243SOL    HW285308   1.644   5.881   7.306 -0.5831 -1.1271  0.8019
28244SOL     OW85309   8.400   1.312   1.037 -0.1713  0.5257 -0.5118
28244SOL    HW185310   8.475   1.332   1.092  0.6588 -2.3718 -0.4031
28244SOL    HW285311   8.325   1.316   1.096  0.3936 -0.0673  0.2718
28245SOL     OW85312   3.788   4.038   3.767  0.5974 -0.8472 -0.0453
28245SOL    HW185313   3.795   4.030   3.672 -0.9654  2.7326 -0.6345
28245SOL    HW285314   3.743   3.958   3.795 -0.2950 -1.2894 -2.5442
28246SOL     OW85315   4.573   3.113   7.955  0.4269  0.0637 -0.6370
28246SOL    HW185316   4.668   3.121   7.958  0.2925  2.2191 -0.2692
28246SOL    HW285317   4.541   3.204   7.953 -1.6655 -0.5468  0.8313
28247SOL     OW85318   4.492   0.081   0.340 -0.3527 -0.2972 -0.3907
28247SOL    HW185319   4.485   0.176   0.341  0.7782 -0.1887  1.6644
28247SOL    HW285320   4.585   0.063   0.358 -0.6378 -1.7977 -0.2655
28248SOL     OW85321   9.191   2.617   4.880  0.2505  0.0858  0.1983
28248SOL    HW185322   9.223   2.556   4.813 -0.9003 -0.9255  0.5170
28248SOL    HW285323   9.163   2.694   4.831  2.4488  0.7260 -0.1439
28249SOL     OW85324   4.848   4.237   4.452 -0.0172  0.3340  0.2680
28249SOL    HW185325   4.830   4.172   4.520  0.2175  0.8351  0.8173
28249SOL    HW285326   4.811   4.199   4.372 -0.0505 -0.3848  0.6169
28250SOL     OW85327   1.876   5.338   8.572 -0.2672  0.2335 -0.1260
28250SOL    HW185328   1.886   5.355   8.479  1.0107 -0.8443 -0.2160
28250SOL    HW285329   1.961   5.362   8.610  0.0091 -1.4168  0.4008
28251SOL     OW85330   1.974   1.309   8.971  0.3480  0.1277  0.5136
28251SOL    HW185331   1.946   1.241   8.910 -0.3978  0.4752  0.4567
28251SOL    HW285332   2.009   1.378   8.916  1.6144 -0.4289  0.6003
28252SOL     OW85333   9.703   6.235   2.323  0.9087 -0.3838 -0.5354
28252SOL    HW185334   9.751   6.311   2.356 -0.4909  1.0555 -1.6305
28252SOL    HW285335   9.755   6.206   2.247  1.0509 -0.0205 -0.5817
28253SOL     OW85336   6.083   4.793   7.019  0.4308 -0.6629  0.2248
28253SOL    HW185337   6.010   4.818   6.962  0.7607 -1.5924 -0.6505
28253SOL    HW285338   6.043   4.740   7.087  0.1846 -0.5390  0.1771
28254SOL     OW85339   4.315   8.283   8.870  1.1537  0.6863 -0.3037
28254SOL    HW185340   4.403   8.247   8.883  0.5252 -0.4862  1.0698
28254SOL    HW285341   4.294   8.326   8.953  0.5090  1.1232 -0.6833
28255SOL     OW85342   4.482   8.934   5.147 -0.0619 -0.5489 -0.2670
28255SOL    HW185343   4.451   8.980   5.225 -3.0992  1.2830 -2.3295
28255SOL    HW285344   4.495   9.003   5.082 -3.0265 -2.2790 -2.9614
28256SOL     OW85345   4.810   9.695   5.685 -0.0537 -0.4967  0.5428
28256SOL    HW185346   4.774   9.657   5.605 -2.3869  0.9023  0.8584
28256SOL    HW285347   4.757   9.658   5.755 -0.3698  0.9658  1.1075
28257SOL     OW85348   3.496   7.981   4.502  0.0941 -0.4096  0.7101
28257SOL    HW185349   3.569   8.027   4.545  0.5239 -0.5686  0.1696
28257SOL    HW285350   3.474   8.037   4.428  0.7462 -1.1467 -0.0668
28258SOL     OW85351   0.868   5.929   0.570 -0.1570 -0.1130 -0.0796
28258SOL    HW185352   0.899   6.016   0.593 -2.7818  0.9703 -0.2344
28258SOL    HW285353   0.774   5.940   0.554 -0.3516 -2.7215 -1.4245
28259SOL     OW85354  -0.013   6.648   3.659  0.4859  0.3168  0.5295
28259SOL    HW185355   0.021   6.730   3.622 -1.6190  0.1656 -2.0537
28259SOL    HW285356   0.049   6.581   3.631 -0.4012  0.3956 -1.8432
28260SOL     OW85357   9.578   7.979   9.224  0.2547 -0.4058 -0.0660
28260SOL    HW185358   9.664   7.978   9.265  0.7982  1.1119 -1.1112
28260SOL    HW285359   9.595   7.980   9.130 -0.7799  2.3026 -0.3106
28261SOL     OW85360   2.039   8.452   3.718  0.1492 -0.2066 -0.4954
28261SOL    HW185361   2.012   8.401   3.642 -0.6841  1.3778 -1.3170
28261SOL    HW285362   2.108   8.510   3.685 -0.6473  0.9291 -0.2333
28262SOL     OW85363   6.550   0.615   7.421  0.1517 -0.1869 -0.3529
28262SOL    HW185364   6.599   0.590   7.500 -0.9273  0.0182  0.4046
28262SOL    HW285365   6.557   0.710   7.418 -1.1303 -0.0386  0.4242
28263SOL     OW85366   2.893   4.163   6.294  0.2602 -0.2798  0.0161
28263SOL    HW185367   2.848   4.094   6.246  1.1589 -0.6123 -0.3849
28263SOL    HW285368   2.850   4.244   6.266  0.4436 -0.5095 -1.0019
28264SOL     OW85369   6.333   9.491   0.461 -0.4521  0.1237  0.1729
28264SOL    HW185370   6.275   9.492   0.538 -0.5910  0.0921  0.0690
28264SOL    HW285371   6.418   9.520   0.495 -0.5082  0.0935  0.3424
28265SOL     OW85372   8.005   1.058   9.127 -0.5111  0.2265  0.2328
28265SOL    HW185373   7.973   1.031   9.041 -1.1567  2.6559 -0.3591
28265SOL    HW285374   7.988   0.982   9.183 -1.7680 -0.7575 -1.3720
28266SOL     OW85375   0.829   0.483   7.299 -0.3255  0.2496  0.1133
28266SOL    HW185376   0.805   0.465   7.390 -0.2444  0.0114  0.0881
28266SOL    HW285377   0.900   0.547   7.304 -1.1382  1.1716  0.1828
28267SOL     OW85378   2.203   0.105   3.969  0.3859  0.3735 -0.3193
28267SOL    HW185379   2.216   0.174   3.904  0.6671 -0.0709 -0.7445
28267SOL    HW285380   2.158   0.035   3.921  1.1178 -0.1985 -0.1959
28268SOL     OW85381   9.836   5.991   6.798 -0.1148 -0.0024 -0.0269
28268SOL    HW185382   9.877   5.984   6.884  0.7949 -1.6926 -0.5599
28268SOL    HW285383   9.788   5.909   6.786  0.4435 -0.1684 -1.4338
28269SOL     OW85384   8.589   3.088   2.026  0.0398 -0.3967 -0.8080
28269SOL    HW185385   8.554   3.143   1.956  1.2353 -0.1460 -1.2457
28269SOL    HW285386   8.527   3.017   2.034 -1.2950  0.7515 -0.5720
28270SOL     OW85387   3.689   8.150   4.582 -0.1638  0.0513 -0.3599
28270SOL    HW185388   3.746   8.099   4.524  0.0766  0.3668 -0.3984
28270SOL    HW285389   3.741   8.166   4.660  0.3904  1.7102 -1.0287
28271SOL     OW85390   3.951   2.844   1.599 -0.4295 -0.5005 -0.0362
28271SOL    HW185391   3.936   2.932   1.563 -0.9938  0.1792  1.7352
28271SOL    HW285392   3.863   2.809   1.613 -0.2088 -1.1944 -0.3647
28272SOL     OW85393   4.650   8.361   8.651 -0.4088  0.4574  0.2521
28272SOL    HW185394   4.724   8.408   8.614 -0.3932  0.1678 -0.0836
28272SOL    HW285395   4.593   8.431   8.687 -0.8489  0.8089 -1.0867
28273SOL     OW85396   2.300   5.406   9.005  0.3270  0.0609  0.1795
28273SOL    HW185397   2.377   5.460   9.018  0.2748  0.3498 -0.6429
28273SOL    HW285398   2.227   5.467   9.004  0.1664 -0.1279  0.2117
28274SOL     OW85399   1.895   2.502   9.490 -0.3763  0.0602  0.3014
28274SOL    HW185400   1.940   2.435   9.542 -1.6509 -0.1828  1.1409
28274SOL    HW285401   1.899   2.469   9.400  1.4129  0.2323  0.2910
28275SOL     OW85402   2.030   3.127   1.249  0.0495 -0.1368  0.2657
28275SOL    HW185403   2.027   3.032   1.262 -0.3013 -0.1645  0.0020
28275SOL    HW285404   2.063   3.161   1.332  0.4417 -0.5078  0.2685
28276SOL     OW85405   5.652   8.850   6.193  0.0096 -0.3705  0.6907
28276SOL    HW185406   5.602   8.913   6.141 -0.1001  0.1278  1.3831
28276SOL    HW285407   5.588   8.783   6.217  0.1478 -0.8090 -0.1297
28277SOL     OW85408   9.923   3.578   0.363 -0.2170  0.1921 -0.3570
28277SOL    HW185409   9.932   3.515   0.292 -0.2516 -1.7228  1.2687
28277SOL    HW285410   9.936   3.663   0.321  2.0457 -0.9750 -2.2512
28278SOL     OW85411   0.745   2.959   1.467 -0.5487 -0.0358  0.6261
28278SOL    HW185412   0.838   2.939   1.462 -0.1134  2.0118 -2.4523
28278SOL    HW285413   0.701   2.875   1.456  1.0280 -0.6556 -1.7989
28279SOL     OW85414   7.744   0.687   4.523  0.2872 -0.2261 -0.0368
28279SOL    HW185415   7.806   0.655   4.458 -1.0878 -0.9577 -1.0536
28279SOL    HW285416   7.765   0.779   4.534  1.6778 -0.5010 -0.1690
28280SOL     OW85417   5.596   0.940   7.477 -0.3954  0.5411  0.3342
28280SOL    HW185418   5.557   1.023   7.449  0.9781  0.5452 -1.7306
28280SOL    HW285419   5.608   0.890   7.397 -1.0024 -1.6400  1.5037
28281SOL     OW85420   9.014   0.389   2.257  0.1339  0.6873 -0.2279
28281SOL    HW185421   9.092   0.445   2.261  1.4674 -1.0571 -0.2787
28281SOL    HW285422   9.034   0.316   2.316  0.1474 -1.6530 -2.8998
28282SOL     OW85423   9.481   8.636   2.609 -0.1190  0.1732  0.3320
28282SOL    HW185424   9.482   8.664   2.518 -2.2580  0.0904  0.2359
28282SOL    HW285425   9.391   8.607   2.625  0.6451 -1.5855  1.9430
28283SOL     OW85426   4.880   8.137   0.875  0.5235  0.2766 -0.5936
28283SOL    HW185427   4.868   8.105   0.965 -0.7659 -1.6397 -1.3861
28283SOL    HW285428   4.973   8.123   0.858  0.3493 -1.5711 -0.2911
28284SOL     OW85429   6.399   8.285   6.225 -0.1232 -0.3931 -0.0324
28284SOL    HW185430   6.463   8.306   6.157 -0.4636 -0.3502 -0.3435
28284SOL    HW285431   6.374   8.370   6.262 -2.0908 -0.0987 -1.8254
28285SOL     OW85432   5.187   2.515   1.543 -0.2212  0.3960 -0.6287
28285SOL    HW185433   5.192   2.588   1.482 -0.9247  2.1096  1.2215
28285SOL    HW285434   5.093   2.503   1.558 -0.1089 -0.8667 -0.8629
28286SOL     OW85435   0.034   7.967   8.609 -0.1938 -0.1869 -0.1455
28286SOL    HW185436   0.056   7.881   8.573 -1.7180 -0.4193 -0.5585
28286SOL    HW285437  -0.021   8.009   8.543  1.7080  1.7535 -0.6225
28287SOL     OW85438   2.021   7.123   2.051 -0.4451 -0.5366  0.2735
28287SOL    HW185439   1.951   7.059   2.064 -0.0724 -1.2719 -1.1363
28287SOL    HW285440   2.008   7.155   1.962  0.8333 -0.4823  0.0885
28288SOL     OW85441   6.262   4.576   4.428  0.1683  1.1545  0.2286
28288SOL    HW185442   6.172   4.548   4.442  0.4372 -0.4094 -0.8281
28288SOL    HW285443   6.293   4.603   4.514 -1.2153  1.4659  0.6541
28289SOL     OW85444   6.717   6.947   6.953 -0.1006 -0.0899  0.6512
28289SOL    HW185445   6.767   6.924   7.031 -1.0585  2.1436  2.0236
28289SOL    HW285446   6.768   7.017   6.912  0.7724 -1.7284 -1.2226
28290SOL     OW85447   6.554   8.493   3.794  0.5306  0.5074  0.1397
28290SOL    HW185448   6.536   8.402   3.817  1.6254  0.7168  2.0010
28290SOL    HW285449   6.634   8.490   3.742  1.3197  0.4820  1.3211
28291SOL     OW85450   9.875   9.859   1.452  0.0415  0.5715  1.1343
28291SOL    HW185451   9.946   9.871   1.388 -0.8289 -0.5752 -0.1085
28291SOL    HW285452   9.869   9.943   1.497  1.9002  0.8375  0.9834
28292SOL     OW85453   0.856   1.127   8.578 -0.1163  0.6386  0.8799
28292SOL    HW185454   0.856   1.100   8.669  0.2510  0.0078  0.7009
28292SOL    HW285455   0.945   1.157   8.561 -0.2223  0.8916  0.7725
28293SOL     OW85456   5.923   4.356   4.744 -0.2563 -0.0088  0.3358
28293SOL    HW185457   5.895   4.317   4.661  0.7095 -0.9532  0.4340
28293SOL    HW285458   5.843   4.362   4.796 -0.3043 -3.0912  0.8088
28294SOL     OW85459   5.340   1.057   2.200 -1.0223  0.6388 -0.7437
28294SOL    HW185460   5.383   0.983   2.243 -0.1740  2.5435  1.9157
28294SOL    HW285461   5.301   1.019   2.121 -0.2423 -2.5275  0.2493
28295SOL     OW85462   7.845   0.723   8.789  0.4294  0.1782  0.0007
28295SOL    HW185463   7.870   0.803   8.836  0.1539 -0.0958  0.6258
28295SOL    HW285464   7.773   0.751   8.732 -0.0662  0.2543  0.6566
28296SOL     OW85465   5.459   7.302   2.170 -0.1769 -0.0296  0.2465
28296SOL    HW185466   5.467   7.236   2.239  0.2741 -1.3951 -1.0564
28296SOL    HW285467   5.388   7.359   2.200 -0.3067 -0.8463  1.6134
28297SOL     OW85468   1.177   2.008   1.123  0.6391 -0.3104  0.0910
28297SOL    HW185469   1.140   1.990   1.209 -0.2492  0.9964  0.0072
28297SOL    HW285470   1.113   1.975   1.061  0.6033  0.0438 -0.0636
28298SOL     OW85471   9.120   8.150   4.339 -0.1245 -0.0069 -0.3435
28298SOL    HW185472   9.117   8.080   4.404  0.0485  1.8367  1.7948
28298SOL    HW285473   9.152   8.226   4.388 -2.2980  2.1183 -1.9953
28299SOL     OW85474   7.398   6.397   4.921  0.0366  0.3366 -0.5167
28299SOL    HW185475   7.449   6.354   4.852  0.9100  1.1786 -0.4197
28299SOL    HW285476   7.368   6.325   4.977  0.2058 -0.2641 -1.1873
28300SOL     OW85477   5.366   4.565   5.021  0.4298 -0.1507  0.2932
28300SOL    HW185478   5.272   4.566   5.039  0.3606  1.0306 -0.0414
28300SOL    HW285479   5.406   4.583   5.106  0.3500 -0.3715  0.3805
28301SOL     OW85480   3.722   1.597   0.889  0.1464 -0.2391  0.0393
28301SOL    HW185481   3.767   1.664   0.837 -0.3922 -0.3642 -0.6050
28301SOL    HW285482   3.745   1.515   0.847 -0.9286 -0.2804 -0.4964
28302SOL     OW85483   5.540   5.005   5.767 -0.2074  0.2451  0.3536
28302SOL    HW185484   5.580   5.089   5.745 -0.6681  0.1861 -0.7947
28302SOL    HW285485   5.594   4.940   5.722 -0.3078 -0.0116  0.5997
28303SOL     OW85486   6.324  -0.013   2.534  0.4767  0.0205 -0.0614
28303SOL    HW185487   6.398   0.040   2.564 -0.2866  0.5328  0.9899
28303SOL    HW285488   6.250   0.019   2.584 -0.6954  0.2326 -1.8303
28304SOL     OW85489   0.156   6.487   5.330  0.1250  0.1501 -0.5929
28304SOL    HW185490   0.091   6.471   5.399  2.3000  0.3545  1.6039
28304SOL    HW285491   0.150   6.581   5.313  0.4648  0.3298  0.2557
28305SOL     OW85492   3.822   3.652   6.212 -0.1803 -0.0993  0.0882
28305SOL    HW185493   3.871   3.721   6.167 -1.0475  0.7056  0.3558
28305SOL    HW285494   3.828   3.577   6.153  0.2103  0.4008 -0.5254
28306SOL     OW85495   2.166   3.143   3.519 -0.0916  0.3165  0.1014
28306SOL    HW185496   2.240   3.135   3.579 -0.9300  0.3639  1.1738
28306SOL    HW285497   2.112   3.213   3.557 -0.2592  0.8828 -1.1299
28307SOL     OW85498   0.747   4.185   7.095  0.2027 -0.3137  0.2160
28307SOL    HW185499   0.836   4.188   7.058  0.2200 -1.0822  0.1689
28307SOL    HW285500   0.757   4.131   7.174 -0.2745 -0.6543  0.0474
28308SOL     OW85501   2.608   9.244   4.297  0.6245  0.2883  0.1535
28308SOL    HW185502   2.641   9.331   4.277 -0.4477  0.3337 -1.6851
28308SOL    HW285503   2.594   9.203   4.211 -2.8607 -0.1299  0.7556
28309SOL     OW85504   8.980   7.513   6.352 -0.1656 -0.6233 -0.2664
28309SOL    HW185505   8.922   7.441   6.375 -0.1942 -1.0179 -1.4937
28309SOL    HW285506   8.922   7.587   6.337 -0.3289 -0.8982 -1.0393
28310SOL     OW85507   0.251   5.150   4.614 -0.5068  0.1164 -0.3799
28310SOL    HW185508   0.224   5.241   4.601 -0.1690  0.2928  0.1345
28310SOL    HW285509   0.343   5.149   4.590 -0.0509  0.2932  1.2600
28311SOL     OW85510   4.530   0.570   5.959 -0.3263  0.4088 -0.0210
28311SOL    HW185511   4.469   0.582   6.032 -1.6344  1.8912 -1.3106
28311SOL    HW285512   4.533   0.475   5.946 -0.6249  0.1666  1.4775
28312SOL     OW85513   5.803   3.773   2.130  0.4989 -0.7588  0.2360
28312SOL    HW185514   5.871   3.793   2.194 -0.3853 -2.0907  1.6698
28312SOL    HW285515   5.737   3.842   2.143  1.4560  0.4536 -1.0629
28313SOL     OW85516   3.389   6.953   8.774  0.5890  0.4079 -0.5778
28313SOL    HW185517   3.387   6.908   8.690 -1.2203 -1.2550  0.2767
28313SOL    HW285518   3.298   6.953   8.803  1.3018 -0.0127  1.8635
28314SOL     OW85519   7.676   7.545   9.753  0.2009  0.0642  0.0198
28314SOL    HW185520   7.732   7.498   9.814 -0.1540 -1.9430 -1.1063
28314SOL    HW285521   7.589   7.509   9.768 -0.0316  0.1057 -1.1234
28315SOL     OW85522   0.062   2.620   2.442  0.6364  0.0851 -0.2380
28315SOL    HW185523   0.127   2.627   2.372  1.1596 -0.7655  0.1439
28315SOL    HW285524   0.085   2.539   2.488 -1.6390 -1.1017 -1.0595
28316SOL     OW85525   6.007   5.738   7.198  0.0703 -0.0123  0.3191
28316SOL    HW185526   5.989   5.832   7.202  0.7139  0.1042  0.6351
28316SOL    HW285527   5.967   5.710   7.116  1.6633  0.9564 -0.8591
28317SOL     OW85528   9.416   1.800   7.714 -0.5556 -0.4950  0.1527
28317SOL    HW185529   9.438   1.838   7.799 -0.8220 -1.2400  0.5652
28317SOL    HW285530   9.338   1.748   7.731 -1.5800  0.6237 -0.8929
28318SOL     OW85531   2.630   2.811   6.619 -0.1858  0.3767  0.2202
28318SOL    HW185532   2.587   2.726   6.609 -0.7041  0.7050 -0.3745
28318SOL    HW285533   2.722   2.794   6.598 -0.2579 -0.0685  0.2552
28319SOL     OW85534   7.588   4.759   4.027  0.3653  0.3091  0.1405
28319SOL    HW185535   7.617   4.694   4.090  3.7475  0.3689 -1.1141
28319SOL    HW285536   7.519   4.716   3.977  3.1589 -2.8706 -1.3302
28320SOL     OW85537   7.028   0.612   4.332 -0.3070  0.4708 -0.4124
28320SOL    HW185538   7.092   0.681   4.311 -2.9592  3.3912  0.3978
28320SOL    HW285539   7.022   0.613   4.427 -0.0684 -1.2966 -0.3444
28321SOL     OW85540   8.808   7.387   8.942 -1.0036  0.9030 -0.4443
28321SOL    HW185541   8.777   7.307   8.899  0.0958  0.5368 -0.6127
28321SOL    HW285542   8.736   7.449   8.935 -1.0458  0.6775 -2.3562
28322SOL     OW85543   4.353   4.430   3.909  0.2721 -0.0086 -0.5203
28322SOL    HW185544   4.359   4.362   3.975  0.9687  0.0460 -0.5193
28322SOL    HW285545   4.275   4.480   3.933 -0.2914 -0.8494 -0.5755
28323SOL     OW85546   7.449   1.631   9.642  0.2419 -0.0325 -0.9317
28323SOL    HW185547   7.538   1.642   9.609  0.7439 -1.2436 -0.0325
28323SOL    HW285548   7.452   1.552   9.696 -1.3899 -0.1227 -0.9110
28324SOL     OW85549   1.588   5.777   4.404  0.4659  0.0099 -0.1762
28324SOL    HW185550   1.625   5.838   4.467 -0.1856  0.1439  0.0798
28324SOL    HW285551   1.530   5.721   4.455  0.5135 -0.3716 -0.5291
28325SOL     OW85552   8.109   6.001   4.828  0.4070  0.2836 -0.2666
28325SOL    HW185553   8.129   5.958   4.745 -1.9343 -2.6167  0.5033
28325SOL    HW285554   8.044   6.068   4.806  0.1007 -0.1965 -0.8441
28326SOL     OW85555   7.118   1.819   1.643 -0.0086  0.9022  0.5250
28326SOL    HW185556   7.033   1.852   1.614  0.3919  1.9087  0.4385
28326SOL    HW285557   7.109   1.724   1.640 -1.5032  0.9643  1.5804
28327SOL     OW85558   9.126   4.331   7.155  0.3571 -0.4883  0.1923
28327SOL    HW185559   9.054   4.346   7.216 -0.7981  0.8769 -1.4299
28327SOL    HW285560   9.187   4.402   7.171  0.4570 -0.6056  0.3294
28328SOL     OW85561   5.140   2.993   5.535  0.0658  0.1105 -0.0452
28328SOL    HW185562   5.088   3.012   5.457 -1.4138  0.1801  0.9107
28328SOL    HW285563   5.198   2.922   5.508 -0.9760 -0.4242 -0.9879
28329SOL     OW85564   1.388   0.343   1.218  0.0706 -0.5029  0.3105
28329SOL    HW185565   1.422   0.258   1.247 -0.5959 -0.0266  2.6983
28329SOL    HW285566   1.293   0.330   1.213 -0.0195  0.0598  0.5619
28330SOL     OW85567   8.310   0.336   7.012 -0.4113  0.7533 -0.1789
28330SOL    HW185568   8.281   0.427   7.020  0.5419  0.9667  1.0028
28330SOL    HW285569   8.307   0.302   7.101  1.5410  0.3559 -0.2245
28331SOL     OW85570   3.003   7.193   0.973  0.1151  0.3345  0.2394
28331SOL    HW185571   2.963   7.279   0.961 -0.3917  0.1548  0.6182
28331SOL    HW285572   3.058   7.181   0.895  1.1041  1.4931  0.7319
28332SOL     OW85573   4.334   8.718   1.673  0.0926  0.7047  0.0506
28332SOL    HW185574   4.357   8.718   1.766  0.9012 -0.9525 -0.1206
28332SOL    HW285575   4.417   8.726   1.628 -0.2818  1.3097 -0.5417
28333SOL     OW85576   3.707   5.240   6.393 -0.3817 -0.0264 -0.1398
28333SOL    HW185577   3.687   5.186   6.317 -2.1043 -0.0309  0.2807
28333SOL    HW285578   3.622   5.256   6.434  0.3159  1.4064  0.8216
28334SOL     OW85579   2.891   0.574   0.248  0.3096 -0.0584  0.0936
28334SOL    HW185580   2.801   0.606   0.249  0.3099 -0.0512  1.1210
28334SOL    HW285581   2.943   0.647   0.282  0.7618  0.0950 -0.9184
28335SOL     OW85582   5.126   0.829   5.265 -0.1878 -0.3865 -0.1110
28335SOL    HW185583   5.065   0.886   5.218  0.0222 -0.1056 -0.0446
28335SOL    HW285584   5.147   0.876   5.345 -0.9108 -1.0752  0.5002
28336SOL     OW85585   2.534   9.719   8.620 -0.1460  0.6683 -0.1111
28336SOL    HW185586   2.479   9.645   8.646  0.8233 -0.2492 -0.5872
28336SOL    HW285587   2.473   9.780   8.578 -0.9964  0.2343  0.4515
28337SOL     OW85588   5.452   9.708   4.907  0.4775  0.2504 -0.1883
28337SOL    HW185589   5.369   9.738   4.944 -0.4866 -1.1019 -1.1894
28337SOL    HW285590   5.444   9.724   4.813  1.2788 -0.0952 -0.3259
28338SOL     OW85591   9.086   9.172   8.251  0.1809  0.1947  0.3530
28338SOL    HW185592   9.063   9.252   8.203  1.7470  0.3815 -0.1651
28338SOL    HW285593   9.094   9.105   8.183  0.9637  0.1107  0.5195
28339SOL     OW85594   7.959   0.652   5.536  0.0363  0.1673  0.0031
28339SOL    HW185595   7.877   0.637   5.583 -0.6314 -1.3666 -1.5673
28339SOL    HW285596   7.934   0.708   5.462  1.1836  3.0964  1.6710
28340SOL     OW85597   3.960   6.396   0.907  0.3798 -0.4420 -0.3634
28340SOL    HW185598   4.046   6.387   0.949  0.0826  0.1365  0.3903
28340SOL    HW285599   3.964   6.481   0.863 -0.9993  1.3533  2.6564
28341SOL     OW85600   3.550   5.523   8.738  0.6050  0.4432  0.3898
28341SOL    HW185601   3.587   5.480   8.662  0.7269  0.1515  0.6163
28341SOL    HW285602   3.545   5.616   8.712  1.0179  0.4091  0.1778
28342SOL     OW85603   2.758   2.648   9.844 -0.3991 -0.4531  0.1307
28342SOL    HW185604   2.718   2.716   9.790 -0.1867 -0.1895  0.3018
28342SOL    HW285605   2.852   2.652   9.822 -0.5596 -1.6226 -0.8847
28343SOL     OW85606   2.377   2.987   4.122 -0.7361 -0.1250 -0.5040
28343SOL    HW185607   2.461   3.031   4.110 -0.5375 -0.5996 -0.9114
28343SOL    HW285608   2.316   3.056   4.146  0.1746 -0.0110  1.7786
28344SOL     OW85609   0.982   8.428   4.862  0.2984  0.0723  0.0449
28344SOL    HW185610   0.893   8.404   4.885  0.6403  0.1469  1.5470
28344SOL    HW285611   1.036   8.353   4.889  0.6839 -0.0674 -1.0455
28345SOL     OW85612   0.460   6.108   4.398 -0.5860  0.0587  0.5008
28345SOL    HW185613   0.553   6.128   4.408 -0.5196 -0.2083  0.4136
28345SOL    HW285614   0.420   6.138   4.479 -0.6144  1.3037  0.0438
28346SOL     OW85615   0.380   1.168   1.396  0.0799 -0.0522  0.3650
28346SOL    HW185616   0.333   1.106   1.451 -1.3574  0.9078  0.2621
28346SOL    HW285617   0.328   1.173   1.315  0.6804  0.5821  0.0079
28347SOL     OW85618   7.341   4.537   9.854  0.0344  0.2928 -0.6181
28347SOL    HW185619   7.354   4.445   9.830  1.7785  0.4285 -0.3535
28347SOL    HW285620   7.395   4.586   9.792 -0.5889  1.1244 -0.5275
28348SOL     OW85621   4.131   1.138   5.323  0.5376  0.5350  0.1682
28348SOL    HW185622   4.081   1.116   5.401 -1.1956 -1.2826 -1.3273
28348SOL    HW285623   4.212   1.088   5.330  1.4789  2.1814  1.8182
28349SOL     OW85624   5.881   2.606   0.492 -0.4591 -0.1927 -0.0666
28349SOL    HW185625   5.801   2.623   0.443 -0.5872  1.4941  0.6495
28349SOL    HW285626   5.853   2.551   0.565 -1.2922  1.5350  0.9785
28350SOL     OW85627   1.792   7.305   6.881 -0.9064 -0.0025 -0.5688
28350SOL    HW185628   1.876   7.325   6.922 -1.8785  0.2158  1.4182
28350SOL    HW285629   1.773   7.382   6.827  0.4660 -0.3613 -1.6229
28351SOL     OW85630  -0.004   6.132   3.612 -0.3895  0.1318 -0.2836
28351SOL    HW185631   0.056   6.164   3.545 -0.4423 -0.1196 -0.4519
28351SOL    HW285632   0.033   6.049   3.641 -0.2223  0.3650  0.1948
28352SOL     OW85633   3.116   5.304   2.826  0.2650  0.7455 -0.3848
28352SOL    HW185634   3.207   5.276   2.835  0.9531  2.5732 -1.1196
28352SOL    HW285635   3.119   5.399   2.834 -1.4952  0.9079 -1.1158
28353SOL     OW85636   4.779   9.073   1.998 -0.1825  0.0525 -0.7809
28353SOL    HW185637   4.796   9.166   2.014 -0.7717  0.1771 -0.8370
28353SOL    HW285638   4.695   9.057   2.042  1.0977 -1.0640  1.4437
28354SOL     OW85639   6.125   4.957   6.651  0.5221 -0.2359 -0.8937
28354SOL    HW185640   6.192   4.927   6.588  0.8836  1.8379 -1.5638
28354SOL    HW285641   6.043   4.950   6.603  0.3981 -1.4899 -0.5355
28355SOL     OW85642   6.911   2.026   9.830 -0.1641 -0.0468 -0.3626
28355SOL    HW185643   6.851   2.004   9.901  1.4602  0.1060  1.1260
28355SOL    HW285644   6.920   2.121   9.834 -0.5690  0.0346 -1.2150
28356SOL     OW85645   6.805   8.792   0.183 -0.4439  0.0572 -0.4830
28356SOL    HW185646   6.770   8.841   0.258 -0.4475 -2.5233  1.3454
28356SOL    HW285647   6.731   8.738   0.154  0.1769 -0.5260 -0.9853
28357SOL     OW85648   6.773   0.235   1.257  0.2928 -0.2310 -0.1521
28357SOL    HW185649   6.736   0.147   1.254 -0.6449  0.1562 -0.2944
28357SOL    HW285650   6.775   0.257   1.350  0.1714 -0.2489 -0.1458
28358SOL     OW85651   6.882   7.311   4.092 -0.1093  0.2089 -0.0457
28358SOL    HW185652   6.977   7.320   4.102  0.2665 -1.9683 -1.1032
28358SOL    HW285653   6.849   7.317   4.182  1.1634 -0.1612  0.4785
28359SOL     OW85654   5.713   3.953   9.537 -0.1741 -0.0242  0.3367
28359SOL    HW185655   5.706   3.857   9.542  1.2983 -0.0988  2.2922
28359SOL    HW285656   5.646   3.985   9.596  1.0320  0.0198  1.7300
28360SOL     OW85657   4.446   2.055   3.589  0.2254 -0.3648  0.1507
28360SOL    HW185658   4.365   2.089   3.552  0.7034  0.5857 -0.0405
28360SOL    HW285659   4.489   2.131   3.629  1.5956 -0.5924 -0.8164
28361SOL     OW85660   0.546   9.689   3.425  0.0841  0.3498 -0.0499
28361SOL    HW185661   0.633   9.671   3.391 -0.5214 -0.8152 -1.0667
28361SOL    HW285662   0.515   9.605   3.458 -0.2095  0.9946  1.4063
28362SOL     OW85663   4.466   4.992   5.252  0.3103 -0.1609  0.3780
28362SOL    HW185664   4.555   5.016   5.279  0.3142 -0.8096  0.9794
28362SOL    HW285665   4.478   4.912   5.201  0.1755  0.3780 -0.5225
28363SOL     OW85666   6.697   1.488   4.494 -0.8302  0.5463  0.2573
28363SOL    HW185667   6.630   1.552   4.470  0.6866  2.1206  0.0061
28363SOL    HW285668   6.778   1.538   4.497  0.6537 -1.5774 -1.1134
28364SOL     OW85669   6.385   8.820   8.308 -0.5659  0.3641 -0.4062
28364SOL    HW185670   6.337   8.832   8.226  1.6326 -0.2269 -1.8753
28364SOL    HW285671   6.370   8.728   8.331 -0.0492  0.1409 -0.9364
28365SOL     OW85672   5.379   3.537   8.164  0.2082 -0.3183  0.1606
28365SOL    HW185673   5.322   3.528   8.241  0.1522 -0.2860  0.1226
28365SOL    HW285674   5.334   3.489   8.095 -0.8816  1.5573 -0.4831
28366SOL     OW85675   4.731   5.344   4.402 -0.1814 -0.0761  0.4069
28366SOL    HW185676   4.653   5.337   4.347 -0.2525 -2.5184  0.7049
28366SOL    HW285677   4.802   5.307   4.349  1.0176  2.7571 -0.1366
28367SOL     OW85678   1.515   3.619   6.616 -0.9965  0.3289  0.0390
28367SOL    HW185679   1.516   3.540   6.562 -1.8281 -0.2460  0.8211
28367SOL    HW285680   1.599   3.618   6.661 -1.3940 -0.6764  0.8008
28368SOL     OW85681   1.709   6.092   9.592  0.0650 -0.3031  0.3527
28368SOL    HW185682   1.793   6.086   9.636 -0.7245 -0.5391  1.9186
28368SOL    HW285683   1.659   6.157   9.643 -0.5017  0.2750 -0.8931
28369SOL     OW85684   8.104   0.773   7.710 -0.0562 -0.3421  0.0915
28369SOL    HW185685   8.098   0.724   7.627 -1.1824 -1.2900  0.6885
28369SOL    HW285686   8.194   0.759   7.739 -0.0956 -1.3286 -0.2017
28370SOL     OW85687   7.872   7.417   3.691  0.4742 -0.5721  0.1974
28370SOL    HW185688   7.804   7.484   3.704 -0.5570 -1.7698  1.2703
28370SOL    HW285689   7.825   7.338   3.668  1.5539 -1.3022  0.3914
28371SOL     OW85690   7.339   2.474   4.350 -0.7294  0.3301  0.2722
28371SOL    HW185691   7.291   2.525   4.416  0.8023  0.1268  1.5901
28371SOL    HW285692   7.425   2.516   4.345 -0.4100 -0.4058 -0.7235
28372SOL     OW85693   6.487   2.253   1.281 -0.6541 -0.3969  0.2314
28372SOL    HW185694   6.408   2.287   1.239 -0.2968 -0.9686 -0.9577
28372SOL    HW285695   6.558   2.306   1.246 -0.5199  0.2589  1.4664
28373SOL     OW85696   1.017   0.549   0.933  0.0893 -0.5457 -0.1332
28373SOL    HW185697   1.084   0.600   0.887  0.0422  1.7057  2.0711
28373SOL    HW285698   0.944   0.543   0.871  0.3356  1.6015 -0.7000
28374SOL     OW85699   7.525   8.091   9.464  0.2187 -0.6734  0.1281
28374SOL    HW185700   7.517   8.175   9.510 -0.0846 -0.3092 -0.5742
28374SOL    HW285701   7.471   8.031   9.514  0.3543 -0.4267  0.5775
28375SOL     OW85702   6.136   3.877   3.829  0.1232 -0.1159  0.0885
28375SOL    HW185703   6.085   3.939   3.776  1.3619  3.0230  2.2740
28375SOL    HW285704   6.187   3.827   3.766 -1.9369  0.0674 -1.8551
28376SOL     OW85705   4.778   0.770   0.956 -0.2626 -0.1059  0.0233
28376SOL    HW185706   4.772   0.850   0.904  2.1135 -0.1136 -0.3709
28376SOL    HW285707   4.733   0.791   1.038 -0.8911  1.1283 -0.6040
28377SOL     OW85708   3.037   1.034   6.703  0.2314  0.0673 -0.5045
28377SOL    HW185709   2.980   0.986   6.643 -0.5911  1.7665 -1.1780
28377SOL    HW285710   3.118   1.047   6.654 -0.0466  0.5238 -0.8539
28378SOL     OW85711   0.465   6.504   3.810  0.4135  0.4819 -0.1683
28378SOL    HW185712   0.489   6.597   3.806 -0.7783  0.7678 -2.4215
28378SOL    HW285713   0.470   6.482   3.903  1.0564  2.7074  0.3884
28379SOL     OW85714   3.006   2.030   1.363 -0.0131  0.3671 -0.2693
28379SOL    HW185715   2.949   2.009   1.437 -1.4818  1.7948 -0.9337
28379SOL    HW285716   2.981   1.966   1.296 -0.6520  0.7852 -0.4460
28380SOL     OW85717   6.362   5.253   4.632  0.7267  0.5666 -0.0076
28380SOL    HW185718   6.455   5.228   4.634  0.9123  1.1531  2.1279
28380SOL    HW285719   6.326   5.214   4.712 -0.9175  0.2709 -0.8565
28381SOL     OW85720   9.535   0.498   8.655 -0.0506  0.4975 -0.5942
28381SOL    HW185721   9.450   0.502   8.612  0.5687 -1.5668 -2.2103
28381SOL    HW285722   9.579   0.424   8.613  2.4625  1.3668  0.3274
28382SOL     OW85723   0.713   6.327   8.913 -0.3483  0.1077 -0.6642
28382SOL    HW185724   0.678   6.355   8.998  0.0964  0.9142 -0.7419
28382SOL    HW285725   0.657   6.371   8.848 -0.7205 -0.5475 -0.8037
28383SOL     OW85726   6.353   2.864   5.183  0.4386  0.1450  0.3390
28383SOL    HW185727   6.272   2.868   5.133 -0.6545  0.4522  2.0342
28383SOL    HW285728   6.389   2.952   5.179 -0.3760  0.5357  1.1925
28384SOL     OW85729   2.024   3.967   6.448 -0.1077  0.4450 -0.2918
28384SOL    HW185730   2.062   4.015   6.375  0.5008 -0.2935 -0.4676
28384SOL    HW285731   1.974   3.896   6.408 -0.7850  0.7616 -0.0247
28385SOL     OW85732   7.864   3.440   8.605 -0.0176  0.5077 -0.8510
28385SOL    HW185733   7.836   3.441   8.514 -0.3268 -0.7707 -0.7886
28385SOL    HW285734   7.887   3.349   8.622 -1.2734  0.4505  0.7298
28386SOL     OW85735   3.175   3.218   8.243  0.3033 -0.2544 -0.0877
28386SOL    HW185736   3.270   3.227   8.246  0.2656  1.1332 -1.3801
28386SOL    HW285737   3.160   3.140   8.189  0.7476  0.3272 -1.0951
28387SOL     OW85738   6.012   9.274   3.923  0.2254  0.2812  0.0013
28387SOL    HW185739   5.998   9.361   3.888 -0.7514  0.5064  0.9046
28387SOL    HW285740   6.061   9.288   4.004 -0.9810  0.1099  0.7785
28388SOL     OW85741   3.357   4.537   8.666  0.0168  0.1410  0.1340
28388SOL    HW185742   3.306   4.463   8.701  0.2670 -0.1132 -0.0379
28388SOL    HW285743   3.355   4.524   8.571  0.6007  0.0017  0.1405
28389SOL     OW85744   4.659   1.936   8.600  0.4085  0.0269  0.1143
28389SOL    HW185745   4.678   1.860   8.656 -0.7278  0.1513  0.7084
28389SOL    HW285746   4.651   2.009   8.662  0.3803  0.4097 -0.3414
28390SOL     OW85747   0.530   4.077   5.709  0.2521  0.1073 -0.1671
28390SOL    HW185748   0.451   4.129   5.727 -0.3622 -0.8253 -0.0955
28390SOL    HW285749   0.526   4.061   5.615  0.2240 -0.1509 -0.1212
28391SOL     OW85750   4.135   8.331   4.703 -0.1004 -0.3981 -0.2344
28391SOL    HW185751   4.060   8.371   4.660  0.4087  0.1890 -0.5858
28391SOL    HW285752   4.211   8.368   4.659  0.3960 -1.8610 -0.6738
28392SOL     OW85753   2.092   9.330   7.994 -0.6251 -0.4320 -0.0216
28392SOL    HW185754   2.140   9.300   8.070 -0.9256 -2.2730 -0.5102
28392SOL    HW285755   2.002   9.302   8.010 -1.0142  0.6117 -0.3217
28393SOL     OW85756   9.374   1.326   6.111 -0.0301  0.1938 -0.2420
28393SOL    HW185757   9.450   1.268   6.111 -1.0521 -1.1916 -0.1546
28393SOL    HW285758   9.410   1.413   6.093  1.6587 -0.3033  0.5057
28394SOL     OW85759   4.640   7.586  -0.014 -0.1865 -0.1218  0.6933
28394SOL    HW185760   4.576   7.654  -0.036 -0.5415 -1.0929 -1.5887
28394SOL    HW285761   4.620   7.562   0.076 -0.9321  1.8050  1.0927
28395SOL     OW85762   2.886   3.042   3.415  0.2801 -0.6633  0.6497
28395SOL    HW185763   2.979   3.023   3.402 -0.2901 -2.0154 -1.9528
28395SOL    HW285764   2.859   2.984   3.486  1.2684 -0.6301  1.0730
28396SOL     OW85765   8.991   0.657   1.335  0.0871  0.4895  0.5983
28396SOL    HW185766   8.971   0.658   1.242  2.2414  4.0049 -0.0179
28396SOL    HW285767   8.915   0.697   1.377 -0.8229 -0.9629  0.3883
28397SOL     OW85768   7.156   9.072   4.775 -0.5560 -0.6474  0.1815
28397SOL    HW185769   7.166   9.095   4.683 -0.3118 -0.0661  0.3539
28397SOL    HW285770   7.245   9.061   4.807 -0.5956  0.4138  0.6674
28398SOL     OW85771   4.833   6.221   1.120  0.2955 -0.3487  0.0902
28398SOL    HW185772   4.869   6.137   1.147  0.0991 -0.6023 -0.4292
28398SOL    HW285773   4.738   6.210   1.126  0.2762  0.3943  1.6994
28399SOL     OW85774   0.439   6.291   8.510  0.6372  0.5446  0.2212
28399SOL    HW185775   0.366   6.250   8.556  1.7875 -0.5761  1.1255
28399SOL    HW285776   0.476   6.221   8.456  0.3466  1.4083 -1.1598
28400SOL     OW85777   1.262   2.361   3.725  0.5856  0.2124  0.0271
28400SOL    HW185778   1.253   2.341   3.818  1.1983  0.9353  0.2476
28400SOL    HW285779   1.172   2.358   3.691  0.2193  1.0458  0.8730
28401SOL     OW85780   1.063   7.798   7.480  0.1734  0.0093 -0.3493
28401SOL    HW185781   1.006   7.872   7.495 -0.6349 -0.4042 -1.2546
28401SOL    HW285782   1.057   7.746   7.560  0.4687  0.7249  0.1479
28402SOL     OW85783   8.201   3.996   8.392  0.2535  0.0659 -0.1352
28402SOL    HW185784   8.233   4.068   8.337  0.0075 -0.6927 -1.2888
28402SOL    HW285785   8.159   3.936   8.331 -0.4683 -0.5620  0.9524
28403SOL     OW85786   8.439   0.766   4.239  0.1214 -0.3152  0.1674
28403SOL    HW185787   8.498   0.699   4.206 -0.0385 -0.1926 -0.3816
28403SOL    HW285788   8.495   0.842   4.256  0.0291  0.0549 -1.0754
28404SOL     OW85789   5.272   5.870   4.110  0.8050 -0.2196  0.1589
28404SOL    HW185790   5.218   5.924   4.167  1.5212 -0.1841  0.8311
28404SOL    HW285791   5.243   5.891   4.021 -0.0810 -0.0034  0.4924
28405SOL     OW85792   5.470   6.990   4.327 -0.3633 -0.1543 -0.2161
28405SOL    HW185793   5.560   7.015   4.343 -0.5691  0.4448  0.0248
28405SOL    HW285794   5.429   7.068   4.288 -1.9701  1.3628  3.9077
28406SOL     OW85795   6.592   4.289   4.742 -0.2887  0.2803  0.0558
28406SOL    HW185796   6.500   4.286   4.769 -0.1773 -1.5049  0.3972
28406SOL    HW285797   6.636   4.226   4.800  0.6938 -0.6738 -1.6356
28407SOL     OW85798   0.214   4.619   2.201 -0.0377 -0.3049  0.0414
28407SOL    HW185799   0.248   4.534   2.227 -1.1810 -0.8577 -0.1759
28407SOL    HW285800   0.143   4.599   2.140  0.4236  0.8508 -0.9273
28408SOL     OW85801   1.631   5.314   2.239  0.6204  0.5085  0.2790
28408SOL    HW185802   1.678   5.305   2.322  1.1192  2.0598  0.1907
28408SOL    HW285803   1.665   5.394   2.200 -0.9359  0.8154 -0.5491
28409SOL     OW85804   1.744   7.130   7.296  0.0444 -0.0848  0.5823
28409SOL    HW185805   1.705   7.087   7.220 -1.2509  1.5736  0.2388
28409SOL    HW285806   1.798   7.200   7.259  0.1363  0.1524  1.1470
28410SOL     OW85807   1.970   2.037   9.150 -0.4508 -0.9677 -0.4748
28410SOL    HW185808   2.020   2.111   9.184 -1.1708 -0.0017 -1.4440
28410SOL    HW285809   1.910   2.015   9.221 -0.5304 -0.3297 -0.3325
28411SOL     OW85810   7.375   5.060   7.179  0.0670  0.0076  0.1538
28411SOL    HW185811   7.307   5.010   7.223 -0.4014  0.9243  0.4953
28411SOL    HW285812   7.344   5.151   7.182  0.7701  0.2887 -0.6812
28412SOL     OW85813   0.071   7.262   6.655 -0.5654 -0.3754 -0.1287
28412SOL    HW185814   0.046   7.226   6.740  0.3693 -2.5780 -0.7401
28412SOL    HW285815  -0.012   7.276   6.609 -1.0079 -0.3648  0.6575
28413SOL     OW85816   6.354   1.194   8.576 -0.8129 -0.3256  0.0400
28413SOL    HW185817   6.288   1.235   8.631 -1.7425 -0.5208 -0.8953
28413SOL    HW285818   6.359   1.250   8.499  2.5567  1.5944  1.4471
28414SOL     OW85819   1.083   9.508   9.384 -0.3466  0.4310 -0.5117
28414SOL    HW185820   1.125   9.495   9.300 -1.9051 -0.1127 -1.2449
28414SOL    HW285821   0.989   9.509   9.365 -0.7819 -0.4819  1.3031
28415SOL     OW85822   6.823   1.126   0.386  0.4780 -0.7785 -0.1467
28415SOL    HW185823   6.747   1.117   0.328  0.7329  1.3465 -0.8876
28415SOL    HW285824   6.807   1.207   0.434  1.9580 -0.6625  0.1918
28416SOL     OW85825   1.181   1.653   4.269 -0.8994  0.0162 -0.4540
28416SOL    HW185826   1.236   1.724   4.235 -0.7997 -0.7231 -1.9016
28416SOL    HW285827   1.143   1.689   4.350 -0.5446  1.5697 -0.9419
28417SOL     OW85828   6.994   2.662   8.708 -0.3471  0.3456 -0.3836
28417SOL    HW185829   6.986   2.649   8.803 -1.4352 -1.6890 -0.6747
28417SOL    HW285830   7.080   2.627   8.686  0.0936  1.2366 -0.0987
28418SOL     OW85831   0.918   9.411   6.636  0.0932  0.3586  0.0797
28418SOL    HW185832   1.009   9.409   6.606  0.9446 -0.0286  2.4872
28418SOL    HW285833   0.906   9.328   6.682 -0.8127  1.2512  1.5357
28419SOL     OW85834   6.752   2.211   0.898  0.2565  0.7988 -0.3391
28419SOL    HW185835   6.682   2.276   0.885 -0.4350  0.5774  1.8171
28419SOL    HW285836   6.815   2.230   0.829 -1.7164  1.2699 -2.1451
28420SOL     OW85837   1.942   9.114   8.426  0.0251  0.0741 -0.4049
28420SOL    HW185838   1.958   9.053   8.354 -0.9748  1.2428 -1.6732
28420SOL    HW285839   1.919   9.197   8.383  1.8055  1.5261  1.2283
28421SOL     OW85840   2.538   6.023   2.864 -0.3268  0.0213  0.1505
28421SOL    HW185841   2.476   5.966   2.909 -0.5204  1.3670  1.6726
28421SOL    HW285842   2.482   6.085   2.816 -0.2209  1.3280  1.6411
28422SOL     OW85843   8.586   4.525   6.834 -0.4383 -0.0243  0.3181
28422SOL    HW185844   8.538   4.580   6.896 -0.2422 -0.0436  0.4856
28422SOL    HW285845   8.678   4.545   6.850 -0.4079  0.6044 -0.5451
28423SOL     OW85846   3.271   2.335   1.301  0.5695  0.0673  0.1356
28423SOL    HW185847   3.323   2.258   1.279  1.6472  0.7535  0.1796
28423SOL    HW285848   3.255   2.328   1.395  0.5070 -0.2009  0.1040
28424SOL     OW85849   0.617   0.496   4.684  0.2683  0.0865  0.4021
28424SOL    HW185850   0.646   0.473   4.772  2.7735  1.0046 -0.1167
28424SOL    HW285851   0.659   0.431   4.628 -0.0918  0.4125 -0.2467
28425SOL     OW85852   0.996   8.597   0.449 -0.1912  0.3141  0.1010
28425SOL    HW185853   1.053   8.616   0.374  1.3144 -0.2159  1.0769
28425SOL    HW285854   0.935   8.671   0.451 -0.1774  0.4027 -1.5572
28426SOL     OW85855   3.856   5.737   1.346  0.4349  0.1448  0.4947
28426SOL    HW185856   3.938   5.691   1.336 -0.0346 -0.5925 -0.0240
28426SOL    HW285857   3.881   5.826   1.371  1.4204  0.1900 -0.5786
28427SOL     OW85858   1.032   6.080   0.052  0.4499 -0.0408  0.1300
28427SOL    HW185859   1.078   6.037  -0.020  2.1688  0.1878  1.0343
28427SOL    HW285860   1.082   6.159   0.069 -0.4522  0.3689  0.9882
28428SOL     OW85861   3.082   1.819   3.015  0.3663 -0.1062 -0.0565
28428SOL    HW185862   2.996   1.782   3.033  0.3028 -0.0101 -0.1539
28428SOL    HW285863   3.139   1.784   3.083  0.0367  0.5986  0.6006
28429SOL     OW85864   5.307   5.813   4.530  0.1433 -0.0598 -0.5320
28429SOL    HW185865   5.349   5.740   4.574  0.5573  0.0396 -0.7650
28429SOL    HW285866   5.246   5.773   4.468  0.8218 -0.2113 -1.1039
28430SOL     OW85867   9.022   5.937   1.221  0.3821  0.3590 -0.0834
28430SOL    HW185868   9.114   5.916   1.206  0.3489  0.0616  0.1067
28430SOL    HW285869   9.013   5.939   1.317  0.1943  0.3965 -0.1014
28431SOL     OW85870   9.096   4.193   6.180  0.3203 -0.4995  0.3020
28431SOL    HW185871   9.030   4.181   6.249 -0.8634  3.3261  0.0805
28431SOL    HW285872   9.176   4.215   6.227  0.1286 -0.2276  0.5055
28432SOL     OW85873   0.436   8.277   4.389  0.0238  0.6551  0.3403
28432SOL    HW185874   0.529   8.302   4.392 -0.0304  0.7885  1.9034
28432SOL    HW285875   0.423   8.227   4.470 -0.9643 -0.4935 -0.5036
28433SOL     OW85876   1.261   3.473   1.252  0.1666  0.1923 -0.4279
28433SOL    HW185877   1.307   3.555   1.271  0.1262  0.1811 -0.2849
28433SOL    HW285878   1.180   3.477   1.303  1.5898 -1.3345  2.1491
28434SOL     OW85879   7.764   7.258   6.077  0.5505  0.0761  0.3947
28434SOL    HW185880   7.697   7.215   6.130  1.3961 -0.4987  1.0072
28434SOL    HW285881   7.714   7.301   6.007 -0.4625 -0.2911  0.8676
28435SOL     OW85882   3.967   1.604   2.522  0.0387  0.2243  0.0118
28435SOL    HW185883   4.034   1.670   2.539 -0.6104  0.7632  0.5069
28435SOL    HW285884   3.955   1.559   2.606  0.6034 -0.6627 -0.3610
28436SOL     OW85885   7.241   9.319   9.016 -0.0626  0.0424 -0.5405
28436SOL    HW185886   7.209   9.388   8.958  1.7224  0.4240 -1.1365
28436SOL    HW285887   7.253   9.361   9.100 -1.5189 -0.2267 -0.1626
28437SOL     OW85888   8.966   2.960   3.602  0.2686 -0.3292  0.4135
28437SOL    HW185889   9.032   2.892   3.590  2.5290  2.0853 -2.2461
28437SOL    HW285890   8.894   2.934   3.544  0.2766 -1.3581  0.8523
28438SOL     OW85891   0.689   2.386   3.290 -0.7020  0.3387 -0.5755
28438SOL    HW185892   0.747   2.457   3.260 -0.4064  0.2439 -0.2418
28438SOL    HW285893   0.748   2.313   3.306 -1.2720 -0.8738 -3.4222
28439SOL     OW85894   5.538   6.066   5.462  0.6543  0.3579 -0.3800
28439SOL    HW185895   5.542   5.982   5.417  4.0475 -0.1015  0.4931
28439SOL    HW285896   5.569   6.130   5.397  2.3369  0.1941  0.2119
28440SOL     OW85897   3.122   6.450   4.898 -0.1757 -0.8369 -0.4302
28440SOL    HW185898   3.204   6.499   4.902 -0.8498  0.4004 -1.1274
28440SOL    HW285899   3.143   6.365   4.936  1.4678 -0.5961 -0.7161
28441SOL     OW85900   6.085   8.260   4.430  0.2703  0.1113  0.9773
28441SOL    HW185901   6.128   8.326   4.377  1.9795 -1.9462 -0.3383
28441SOL    HW285902   5.992   8.269   4.408  0.6945  0.7728 -0.6584
28442SOL     OW85903   3.254   2.595   7.133 -0.4544 -0.1807 -0.0738
28442SOL    HW185904   3.251   2.683   7.094 -2.6769  1.4369  3.2728
28442SOL    HW285905   3.347   2.577   7.143  0.0834  1.3378 -1.6796
28443SOL     OW85906   9.306   3.940   2.420  0.0303  0.0984  0.2518
28443SOL    HW185907   9.289   4.030   2.445  0.1966  0.7365 -1.7681
28443SOL    HW285908   9.387   3.917   2.466  0.2075  1.1240  0.4604
28444SOL     OW85909   1.944   7.009   9.553  0.4285 -0.1394  0.3907
28444SOL    HW185910   1.945   6.944   9.623 -0.6071  0.3867  0.9220
28444SOL    HW285911   1.865   7.061   9.569  1.7763  1.9928  0.6638
28445SOL     OW85912   3.065   8.365   2.595 -0.1717 -0.4746  0.4829
28445SOL    HW185913   3.131   8.300   2.618  1.7973  1.5301  0.9181
28445SOL    HW285914   3.009   8.371   2.671 -0.3615 -1.6027  0.4497
28446SOL     OW85915   0.303   8.899   8.164  0.1381 -0.5310  0.1263
28446SOL    HW185916   0.337   8.821   8.120  0.0968 -0.1407 -0.6098
28446SOL    HW285917   0.243   8.938   8.101 -0.9667 -0.6859  1.0383
28447SOL     OW85918   7.131   4.200   4.504 -0.1596 -0.0970 -0.4130
28447SOL    HW185919   7.142   4.176   4.412 -0.8371  0.4177 -0.6318
28447SOL    HW285920   7.064   4.267   4.504  0.5728  0.6624  0.3600
28448SOL     OW85921   7.797   3.712   5.493 -0.5309 -0.5363 -0.0020
28448SOL    HW185922   7.765   3.721   5.583 -0.0243  1.3508  0.0318
28448SOL    HW285923   7.836   3.797   5.473  0.0511 -1.1753 -1.7513
28449SOL     OW85924   7.107   7.321   8.979 -0.0878 -0.1032 -0.1079
28449SOL    HW185925   7.195   7.299   9.010  0.2542  0.6835 -0.4886
28449SOL    HW285926   7.068   7.237   8.957  0.8300 -0.4173 -0.5987
28450SOL     OW85927   2.981   0.294   8.433 -0.1115 -0.4060 -0.0733
28450SOL    HW185928   2.957   0.232   8.502 -0.3349 -2.3998 -1.8657
28450SOL    HW285929   3.049   0.249   8.383  0.6726  1.3553 -0.6800
28451SOL     OW85930   9.780   9.292   5.194  0.6944  0.3487  0.1771
28451SOL    HW185931   9.791   9.198   5.210 -0.9776 -0.1241 -1.2360
28451SOL    HW285932   9.869   9.328   5.203  1.3268 -1.3007  0.9702
28452SOL     OW85933   5.260   7.412   4.935 -0.5459 -0.2118  0.3716
28452SOL    HW185934   5.303   7.431   5.018  0.5408 -1.8456  0.2314
28452SOL    HW285935   5.284   7.321   4.916 -2.3575 -0.5018 -0.7782
28453SOL     OW85936   9.583   8.153   3.081 -0.3313 -0.3884  0.3925
28453SOL    HW185937   9.568   8.176   3.173  0.0086  0.1455  0.3234
28453SOL    HW285938   9.566   8.235   3.033 -0.6460 -0.7006 -0.0301
28454SOL     OW85939   2.445   1.847   5.137 -0.0901 -0.0523  0.0952
28454SOL    HW185940   2.449   1.943   5.141 -0.4488 -0.0716  1.5894
28454SOL    HW285941   2.530   1.821   5.102  1.1276  0.7226  2.3147
28455SOL     OW85942   6.966   1.149   3.169  0.4716  0.4379 -0.3146
28455SOL    HW185943   7.024   1.077   3.143  1.1818  1.2937 -1.1952
28455SOL    HW285944   6.880   1.109   3.177  0.9811 -0.6470 -0.0768
28456SOL     OW85945   5.637   8.483   8.497 -0.2042  0.0622 -0.3169
28456SOL    HW185946   5.607   8.497   8.587  2.0625 -2.8402  1.0795
28456SOL    HW285947   5.687   8.561   8.476 -1.0727  0.9460  0.7859
28457SOL     OW85948   4.520   0.463   6.364 -0.0070  0.2342 -0.3337
28457SOL    HW185949   4.519   0.444   6.457 -0.7444  1.3204 -0.1032
28457SOL    HW285950   4.587   0.405   6.328  0.3812 -0.0925  0.8888
28458SOL     OW85951   5.286   9.332   8.542 -0.4636 -0.2151 -0.0965
28458SOL    HW185952   5.256   9.417   8.509 -1.0114 -0.7829 -1.1454
28458SOL    HW285953   5.276   9.338   8.637 -2.6463  0.1261 -0.2801
28459SOL     OW85954   8.354   2.637   1.191 -0.2760  0.3136  0.3291
28459SOL    HW185955   8.269   2.674   1.167  0.1229  1.2064  0.2430
28459SOL    HW285956   8.334   2.575   1.261 -1.1736 -0.6634 -0.7558
28460SOL     OW85957   3.577   5.777   9.843  0.1438  0.1670  0.0576
28460SOL    HW185958   3.648   5.742   9.897  0.2901  0.1265 -0.1579
28460SOL    HW285959   3.622   5.825   9.774 -0.0451  0.2833  0.0155
28461SOL     OW85960   9.620   3.117   2.174 -0.5616  0.1493 -0.3682
28461SOL    HW185961   9.608   3.208   2.148  0.5731  0.6126  0.6488
28461SOL    HW285962   9.646   3.121   2.266 -1.6417 -1.2736  0.0368
28462SOL     OW85963   2.659   0.235   8.130 -0.6834 -0.0843 -0.4265
28462SOL    HW185964   2.746   0.252   8.094 -0.9502 -0.3815 -1.2344
28462SOL    HW285965   2.676   0.197   8.216 -0.0199  0.0346 -0.4962
28463SOL     OW85966   0.755   3.528   3.258 -0.0377 -0.3474  0.2863
28463SOL    HW185967   0.720   3.442   3.281 -0.6837 -0.1804 -0.0431
28463SOL    HW285968   0.777   3.521   3.165 -1.5104  0.2846 -0.1408
28464SOL     OW85969   4.681   3.492   9.783 -0.3785  0.0046  0.1356
28464SOL    HW185970   4.731   3.411   9.794  0.7023  0.6456  0.1459
28464SOL    HW285971   4.746   3.556   9.755 -0.9366  1.1888  1.4267
28465SOL     OW85972   5.162   1.985   6.689  0.0711 -0.1273 -0.2462
28465SOL    HW185973   5.090   1.959   6.631 -0.9844  0.4972  0.7297
28465SOL    HW285974   5.126   1.973   6.777  1.9151 -1.8765  0.3383
28466SOL     OW85975   5.845   1.608   9.577 -0.2530  0.0062  0.1059
28466SOL    HW185976   5.889   1.523   9.565  0.4833  0.4772 -0.7055
28466SOL    HW285977   5.907   1.660   9.627  0.1711  0.6995 -1.1007
28467SOL     OW85978   1.654   3.104   5.781 -0.3678 -0.2426  0.1541
28467SOL    HW185979   1.586   3.096   5.714  0.9169 -1.7397 -1.0454
28467SOL    HW285980   1.667   3.015   5.813  0.7700  0.0798  0.6244
28468SOL     OW85981   0.625   0.615   9.574 -0.3622  0.0363  0.1838
28468SOL    HW185982   0.595   0.538   9.525 -0.0869  0.2495 -0.3329
28468SOL    HW285983   0.549   0.674   9.573 -0.2489  0.1805 -0.2902
28469SOL     OW85984   4.842   0.630   6.266  0.2108  0.0092 -0.1071
28469SOL    HW185985   4.883   0.544   6.277 -1.8175 -1.2043 -1.2854
28469SOL    HW285986   4.780   0.636   6.339  1.6181  1.3249  1.0235
28470SOL     OW85987   6.059   8.792   3.225  0.1375  0.3330 -0.2920
28470SOL    HW185988   6.055   8.725   3.157  2.5403  0.2594 -0.4246
28470SOL    HW285989   6.116   8.756   3.293 -1.7820  0.6208  1.6042
28471SOL     OW85990   6.215   7.692   6.173 -0.2423 -0.6032  0.2427
28471SOL    HW185991   6.240   7.724   6.086  0.6339  0.9806  1.0451
28471SOL    HW285992   6.252   7.603   6.176  0.4648 -0.3645 -0.6786
28472SOL     OW85993   4.341   3.569   0.781 -0.2843 -0.3489 -0.1350
28472SOL    HW185994   4.274   3.519   0.734 -0.4666 -0.3880  0.1641
28472SOL    HW285995   4.300   3.590   0.865  0.5750 -1.5760  0.6206
28473SOL     OW85996   5.997   8.152   7.819  0.1229 -0.6122 -0.1720
28473SOL    HW185997   6.027   8.141   7.729 -1.7806  0.7789 -1.0504
28473SOL    HW285998   5.995   8.064   7.855  1.3424 -1.1406 -1.3455
28474SOL     OW85999   6.852   8.955   3.820  0.4221  0.1800  0.9320
28474SOL    HW186000   6.809   8.971   3.736  0.9494 -0.1852  0.5856
28474SOL    HW286001   6.785   8.911   3.873  0.4059 -0.5091  0.3533
28475SOL     OW86002   7.513   3.815   5.596 -0.3188  0.0979  0.1743
28475SOL    HW186003   7.498   3.806   5.691 -1.3599 -1.4144 -0.0937
28475SOL    HW286004   7.487   3.731   5.560  0.8222  0.3848 -1.3952
28476SOL     OW86005   3.120   2.542   8.923  0.6596 -0.4691  0.4584
28476SOL    HW186006   3.124   2.562   9.017 -3.2574  0.9775  0.5130
28476SOL    HW286007   3.154   2.620   8.880  2.7094 -1.2368  0.5856
28477SOL     OW86008   4.779   7.358   6.168  0.9079  0.9290  0.3643
28477SOL    HW186009   4.795   7.346   6.074  0.5654  0.5015  0.3548
28477SOL    HW286010   4.689   7.328   6.180  2.2319 -3.1038  1.5658
28478SOL     OW86011   4.246   3.049   5.116  0.0360  0.2972 -0.2147
28478SOL    HW186012   4.170   3.098   5.085  0.6023  1.4577  0.1696
28478SOL    HW286013   4.300   3.114   5.160  2.0394 -0.1643 -1.8432
28479SOL     OW86014   3.890   2.081   2.897  0.4452  0.2093 -0.1688
28479SOL    HW186015   3.914   1.991   2.920 -0.3388 -0.1138 -0.5855
28479SOL    HW286016   3.965   2.134   2.924  0.1148 -0.3069  1.9484
28480SOL     OW86017   3.860   4.757   4.325 -0.1512  0.3199  0.0542
28480SOL    HW186018   3.897   4.698   4.390  0.1152  0.4865  0.0553
28480SOL    HW286019   3.783   4.795   4.367  0.6093  1.2123  0.6511
28481SOL     OW86020   2.163   5.358   5.719  0.2030  0.1708 -0.1154
28481SOL    HW186021   2.130   5.310   5.795 -0.7615 -2.7890 -2.2234
28481SOL    HW286022   2.092   5.354   5.655  1.7832  0.5491 -2.0053
28482SOL     OW86023   3.415   2.149   1.107 -0.2506  0.2005  0.0421
28482SOL    HW186024   3.396   2.078   1.045  0.3629 -0.0888  0.1873
28482SOL    HW286025   3.497   2.186   1.076  0.6744 -0.6940  1.3547
28483SOL     OW86026   0.668   6.524   3.457  0.0284  0.2942  0.8388
28483SOL    HW186027   0.582   6.489   3.431 -0.4090  0.2950  2.2166
28483SOL    HW286028   0.694   6.580   3.384 -0.0723 -1.4940 -0.6402
28484SOL     OW86029   0.504   7.117   5.214 -0.4364 -0.1025  0.3331
28484SOL    HW186030   0.466   7.163   5.289 -0.0811  0.1788  0.3426
28484SOL    HW286031   0.570   7.177   5.179 -1.3240  0.2113 -0.8549
28485SOL     OW86032   0.848   7.709   2.167  0.3178 -0.1557 -0.1306
28485SOL    HW186033   0.791   7.759   2.109  0.3009 -0.7447 -0.6362
28485SOL    HW286034   0.817   7.730   2.256  0.6411  1.1117 -0.2954
28486SOL     OW86035   9.402   0.141   7.580 -0.1517 -0.0558 -0.7549
28486SOL    HW186036   9.393   0.153   7.675 -2.8356  0.2226 -0.9470
28486SOL    HW286037   9.494   0.158   7.562  0.4476 -0.1674  1.7989
28487SOL     OW86038   1.172   9.463   5.156  0.9408 -0.3168  0.3499
28487SOL    HW186039   1.126   9.547   5.166  0.3399 -0.5810 -0.1338
28487SOL    HW286040   1.168   9.423   5.243 -0.2797 -0.5918  0.1927
28488SOL     OW86041   9.909   4.529   2.381 -0.6286 -0.4884 -0.0047
28488SOL    HW186042   9.957   4.603   2.345  0.1648 -1.5051 -1.0921
28488SOL    HW286043   9.826   4.566   2.409  0.1177  0.9850  0.3478
28489SOL     OW86044   4.404   3.931   5.822  0.1650 -0.2475  0.1805
28489SOL    HW186045   4.416   3.999   5.755  2.5294 -0.0013  0.7521
28489SOL    HW286046   4.389   3.980   5.903 -0.2802 -0.4693  0.2318
28490SOL     OW86047   5.802   2.627   3.549  0.0573  0.0476  0.3369
28490SOL    HW186048   5.750   2.687   3.601 -0.4860  1.3759 -1.6530
28490SOL    HW286049   5.885   2.672   3.537  0.4470 -0.5769  0.6303
28491SOL     OW86050   4.526   3.458   8.443  0.1987  0.6786  0.0420
28491SOL    HW186051   4.474   3.524   8.397  1.0461  1.1224 -0.3045
28491SOL    HW286052   4.589   3.427   8.378 -0.2231 -0.5286  0.1865
28492SOL     OW86053   3.255   9.659   6.084  0.2767  0.0471 -0.4632
28492SOL    HW186054   3.259   9.616   5.999  0.0802 -2.1849  0.5691
28492SOL    HW286055   3.338   9.706   6.092  1.1953 -1.4121 -1.0596
28493SOL     OW86056   3.003   6.203   9.805  0.9294 -0.7113  0.0662
28493SOL    HW186057   3.050   6.236   9.729  0.0955 -0.1150 -0.2062
28493SOL    HW286058   3.071   6.183   9.870  1.6066 -0.7580 -0.6534
28494SOL     OW86059   7.047   4.031   2.700  0.1328  0.0370  0.1469
28494SOL    HW186060   7.058   4.092   2.626 -0.4901 -0.2733 -0.2145
28494SOL    HW286061   7.107   4.063   2.767 -0.0014  0.9074 -0.1332
28495SOL     OW86062   3.197   9.418   1.352  0.0659  0.7990 -0.0026
28495SOL    HW186063   3.203   9.477   1.277  1.2591  1.2773  0.4403
28495SOL    HW286064   3.120   9.449   1.400  0.1557  1.4231 -0.2524
28496SOL     OW86065   5.472   8.954   2.049 -0.1704  0.3086 -0.2410
28496SOL    HW186066   5.398   8.899   2.025 -0.9896  1.0931  0.4099
28496SOL    HW286067   5.441   9.006   2.123  1.1156  0.4829  0.2161
28497SOL     OW86068   4.386   5.359   8.539  0.6367  0.1739 -0.4191
28497SOL    HW186069   4.372   5.362   8.634 -0.5580  0.3511 -0.5796
28497SOL    HW286070   4.360   5.447   8.509  2.5649  0.6715 -0.7303
28498SOL     OW86071   7.377   5.414   6.720  0.1990  0.1647 -0.4341
28498SOL    HW186072   7.412   5.437   6.807 -0.8968  2.0617 -0.4415
28498SOL    HW286073   7.369   5.318   6.722  1.5709  0.0335  1.0041
28499SOL     OW86074   3.811   5.000   8.044 -0.0104  0.3130  0.1429
28499SOL    HW186075   3.854   5.012   8.128  0.5142 -2.6579  0.3802
28499SOL    HW286076   3.725   4.963   8.066 -0.5781  1.1534 -0.5788
28500SOL     OW86077   1.599   2.154   8.655  0.0616  0.3698  0.0439
28500SOL    HW186078   1.649   2.232   8.679 -1.2913  1.0211  0.9318
28500SOL    HW286079   1.513   2.169   8.695 -0.5235 -1.1429 -0.5974
28501SOL     OW86080   1.474   2.151   2.231  0.3092 -0.1137  0.4827
28501SOL    HW186081   1.533   2.154   2.307  3.5228  1.3743 -1.8093
28501SOL    HW286082   1.425   2.233   2.235  0.4004 -0.0785  0.9785
28502SOL     OW86083   0.308   0.046   9.427 -0.2651  0.0292 -0.2820
28502SOL    HW186084   0.266   0.010   9.506 -0.3352  0.3318 -0.1795
28502SOL    HW286085   0.399   0.016   9.433  0.1334  1.2898  0.7150
28503SOL     OW86086   3.417   7.522   0.745  0.1042  0.4882 -0.6513
28503SOL    HW186087   3.490   7.550   0.691  0.9344 -0.3116  0.0313
28503SOL    HW286088   3.427   7.570   0.827  0.7455 -0.7119  0.0050
28504SOL     OW86089   4.600   4.597   4.881 -0.3110  0.3711 -0.0733
28504SOL    HW186090   4.523   4.553   4.844  1.3431 -2.1791 -0.7521
28504SOL    HW286091   4.653   4.620   4.805  0.2656  0.7693  0.4423
28505SOL     OW86092   2.300   7.496   1.818  0.2756 -0.4486 -0.0281
28505SOL    HW186093   2.354   7.482   1.896  0.3275 -0.6154 -0.0944
28505SOL    HW286094   2.326   7.582   1.786  0.8445 -0.7357 -0.3350
28506SOL     OW86095   8.973   2.417   6.191  0.2650 -0.3418  0.3045
28506SOL    HW186096   9.060   2.415   6.232  0.2179 -0.2784  0.4085
28506SOL    HW286097   8.931   2.337   6.222  0.1779 -0.2228  0.4957
28507SOL     OW86098   0.057   8.413   7.955 -0.1580 -0.2344  0.4104
28507SOL    HW186099   0.048   8.332   8.005  0.2662 -0.1259  0.6658
28507SOL    HW286100  -0.032   8.449   7.951 -0.0029  0.4589  2.2752
28508SOL     OW86101   3.219   6.341   9.111  0.0928 -0.2705 -0.8989
28508SOL    HW186102   3.149   6.394   9.072  0.3169  1.0811  0.4479
28508SOL    HW286103   3.295   6.356   9.054  0.2624  1.2100 -0.3244
28509SOL     OW86104   2.008   6.682   0.738  0.2140  0.4800  0.4944
28509SOL    HW186105   1.999   6.737   0.816 -3.1247 -0.5416  0.9851
28509SOL    HW286106   1.990   6.741   0.665 -0.6175  0.6090  0.8034
28510SOL     OW86107   3.988   9.318   7.165  0.1884  0.5422  0.2238
28510SOL    HW186108   3.957   9.256   7.231  2.2177 -1.0830 -0.2469
28510SOL    HW286109   3.964   9.278   7.081  0.7196  0.8544 -0.0783
28511SOL     OW86110   1.794   6.159   7.588 -0.4173 -0.1526 -0.0516
28511SOL    HW186111   1.806   6.207   7.670  1.9200 -2.9701  1.4439
28511SOL    HW286112   1.865   6.189   7.532 -0.5127 -0.0311 -0.1089
28512SOL     OW86113   2.724   3.519   4.516  0.0785 -0.0287  0.1413
28512SOL    HW186114   2.685   3.500   4.601 -2.2331  1.4046 -0.5120
28512SOL    HW286115   2.779   3.596   4.531  0.4019 -0.3312  0.5131
28513SOL     OW86116   2.882   6.541   3.622 -0.4409  0.4344 -0.0025
28513SOL    HW186117   2.802   6.510   3.663 -0.3019  0.9132  0.6562
28513SOL    HW286118   2.897   6.482   3.548 -1.0382 -0.0577  0.2689
28514SOL     OW86119   1.085   1.645   2.340 -0.3667 -0.3037 -0.2730
28514SOL    HW186120   1.105   1.553   2.357  1.6748  0.1388  0.0112
28514SOL    HW286121   1.149   1.672   2.273 -1.2730  0.7728 -0.7461
28515SOL     OW86122   6.419   5.207   7.019 -1.1089  0.2247  0.0083
28515SOL    HW186123   6.500   5.223   6.971  0.0073  0.4494  1.8725
28515SOL    HW286124   6.379   5.132   6.974  1.5641 -1.7609  0.6916
28516SOL     OW86125   7.745   1.144   8.392  0.0231  0.0949 -0.0040
28516SOL    HW186126   7.786   1.206   8.451 -1.9764 -0.4464  2.0848
28516SOL    HW286127   7.792   1.062   8.405  0.9687  0.4828 -0.8264
28517SOL     OW86128   5.286   1.529   4.399 -0.8529  0.1265  0.1754
28517SOL    HW186129   5.307   1.498   4.310  1.1366 -1.2843  1.0449
28517SOL    HW286130   5.327   1.615   4.405 -0.4172 -0.0606 -0.0729
28518SOL     OW86131   5.260   2.695   4.442  0.3362  0.0864 -0.0977
28518SOL    HW186132   5.168   2.681   4.417 -0.0310  0.5184  0.9247
28518SOL    HW286133   5.301   2.729   4.362  0.0833 -1.9158 -1.1338
28519SOL     OW86134   0.574   9.057   2.002 -0.0841 -0.3516 -0.4131
28519SOL    HW186135   0.533   9.072   1.917 -1.8892  1.4810  0.7016
28519SOL    HW286136   0.585   8.962   2.007 -2.4717 -0.7735 -1.6246
28520SOL     OW86137   7.168   8.591   6.926  0.6310 -0.7265  0.0308
28520SOL    HW186138   7.166   8.686   6.936  0.9083 -0.8113  0.9349
28520SOL    HW286139   7.078   8.566   6.905  0.7083 -0.1914 -1.0158
28521SOL     OW86140   8.283   5.936   0.120  0.1925  0.0733 -0.0401
28521SOL    HW186141   8.197   5.916   0.083 -1.6796  3.6680  1.8193
28521SOL    HW286142   8.336   5.962   0.044 -1.8955  2.2389 -0.9014
28522SOL     OW86143   8.032   8.161   0.942 -0.0016 -0.0356 -0.0880
28522SOL    HW186144   7.980   8.168   1.022  0.3381  0.7330  0.0748
28522SOL    HW286145   7.989   8.092   0.891 -0.3001 -0.4309  0.6938
28523SOL     OW86146   3.236   1.720   1.257  0.4091  0.2058  0.1325
28523SOL    HW186147   3.310   1.779   1.274  0.3327  0.7266 -1.2163
28523SOL    HW286148   3.266   1.664   1.186 -0.4509  0.3729 -0.3770
28524SOL     OW86149   9.882   9.625   7.689  0.4407  0.9023  0.0311
28524SOL    HW186150   9.912   9.540   7.723 -0.9423  0.9660  1.5171
28524SOL    HW286151   9.787   9.622   7.696  0.1729  1.6085 -2.3602
28525SOL     OW86152   9.908   3.559   5.718 -0.3497  0.3140 -0.3484
28525SOL    HW186153   9.956   3.642   5.718 -0.9287  0.6553 -0.1234
28525SOL    HW286154   9.956   3.503   5.658  0.4934  0.5532  0.0912
28526SOL     OW86155   0.762   4.245   3.616 -0.9313 -0.1307  0.0825
28526SOL    HW186156   0.842   4.211   3.576 -1.3019 -0.9362  0.0079
28526SOL    HW286157   0.792   4.294   3.692 -0.1087  2.4536 -1.7681
28527SOL     OW86158   0.908   2.154   0.227  0.8859  0.3089  0.1813
28527SOL    HW186159   0.993   2.149   0.270  0.9503 -1.0060 -0.0815
28527SOL    HW286160   0.922   2.116   0.141  0.1283  0.4974 -0.0322
28528SOL     OW86161   0.208   4.131   0.442 -0.4606  0.4949 -0.2583
28528SOL    HW186162   0.198   4.042   0.477  1.3153  0.0018 -0.9428
28528SOL    HW286163   0.238   4.119   0.352  0.6430  1.7820 -0.0975
28529SOL     OW86164   1.554   1.420   0.718  0.2618 -0.6819 -0.0739
28529SOL    HW186165   1.604   1.501   0.719  0.0858 -0.5711 -0.1089
28529SOL    HW286166   1.484   1.435   0.655  0.3411 -0.9306 -0.2243
28530SOL     OW86167   5.627   8.139   6.546  0.0312 -0.5088  0.0754
28530SOL    HW186168   5.631   8.064   6.605 -0.4063 -1.8544 -1.5204
28530SOL    HW286169   5.644   8.215   6.602  0.4306 -1.7784  1.7546
28531SOL     OW86170   7.323   3.760   8.517 -0.0740 -0.0675 -0.1121
28531SOL    HW186171   7.387   3.768   8.588  0.3690 -1.0530 -0.3761
28531SOL    HW286172   7.243   3.798   8.552  0.2660 -0.1082  0.7450
28532SOL     OW86173   5.866   8.837   7.867  0.8798 -0.5140 -0.4611
28532SOL    HW186174   5.884   8.749   7.899  2.9208  0.0668  0.1879
28532SOL    HW286175   5.874   8.893   7.945 -0.1007  0.2903 -0.9121
28533SOL     OW86176   1.124   5.667   0.880 -0.0764  0.4106  0.0878
28533SOL    HW186177   1.140   5.587   0.930  0.2369  0.0957 -0.4951
28533SOL    HW286178   1.211   5.700   0.858 -0.1867  0.0295 -1.0227
28534SOL     OW86179   3.539   9.905   6.936  0.5319  0.2216  0.2751
28534SOL    HW186180   3.577   9.827   6.897 -1.8516 -0.7396 -0.3217
28534SOL    HW286181   3.521   9.881   7.027  1.5553  0.7710  0.6388
28535SOL     OW86182   5.906   7.557   6.124  0.0744  0.0141 -0.1942
28535SOL    HW186183   5.827   7.516   6.157  0.2454  0.5686  0.9707
28535SOL    HW286184   5.947   7.596   6.202  1.1477  0.2976 -0.8745
28536SOL     OW86185   7.396   3.033   1.643  0.3362 -0.6954 -0.6432
28536SOL    HW186186   7.451   2.956   1.638  0.5735 -0.6722  0.9785
28536SOL    HW286187   7.375   3.055   1.552  0.8168 -2.2531 -1.1445
28537SOL     OW86188   4.217   1.440   9.911  0.1105 -0.4345  0.2081
28537SOL    HW186189   4.149   1.404   9.855  1.1048 -1.7106 -0.2298
28537SOL    HW286190   4.265   1.501   9.854 -1.5389  1.6573  0.9340
28538SOL     OW86191   5.022   1.074   8.702 -0.3163 -0.1143 -0.0528
28538SOL    HW186192   4.973   1.087   8.783 -1.0793 -1.5254 -0.2631
28538SOL    HW286193   4.957   1.042   8.640  0.5491 -0.4215 -0.8158
28539SOL     OW86194   7.605   8.864   7.387 -0.2975  0.3582  0.1514
28539SOL    HW186195   7.685   8.879   7.437 -0.8010  0.0580  1.0641
28539SOL    HW286196   7.584   8.948   7.347  0.5431  0.4022 -0.2175
28540SOL     OW86197   9.353   3.490   0.743  0.7212 -0.0031  0.6053
28540SOL    HW186198   9.303   3.546   0.801 -0.4268 -0.7238  0.3489
28540SOL    HW286199   9.444   3.515   0.757  0.2599  1.6911  0.7079
28541SOL     OW86200   7.695   6.018   8.840 -0.3117 -0.1224  0.0504
28541SOL    HW186201   7.602   6.001   8.853 -0.5645  1.2594  0.2305
28541SOL    HW286202   7.720   5.962   8.766 -1.6607  0.6183 -1.0224
28542SOL     OW86203   9.489   7.883   8.219 -0.2702  0.3395  0.1083
28542SOL    HW186204   9.533   7.800   8.202  0.0090  0.1135  1.7734
28542SOL    HW286205   9.407   7.859   8.263 -0.1327  0.9346  0.7112
28543SOL     OW86206   4.355   4.362   1.505 -0.2017 -0.0703  0.2559
28543SOL    HW186207   4.281   4.397   1.456  0.4025  1.1619  0.1728
28543SOL    HW286208   4.417   4.332   1.438 -0.1454 -0.0417  0.2942
28544SOL     OW86209   6.209   7.578   3.753  0.0881 -0.4120  0.1855
28544SOL    HW186210   6.257   7.510   3.800  0.6863 -0.3728 -0.3558
28544SOL    HW286211   6.222   7.657   3.805 -0.1064 -0.5772  0.4921
28545SOL     OW86212   6.984   2.293   2.744 -0.0879  0.4743 -0.4699
28545SOL    HW186213   6.904   2.332   2.709 -0.4805 -0.8960 -1.1875
28545SOL    HW286214   7.016   2.236   2.673 -0.3339 -1.5958  0.9783
28546SOL     OW86215   4.240   7.407   6.347  0.8989 -0.3890  1.1671
28546SOL    HW186216   4.202   7.404   6.435  0.6773 -0.6564  1.0649
28546SOL    HW286217   4.267   7.498   6.336 -0.9875  0.1599  0.7184
28547SOL     OW86218   7.578   1.454   0.606  0.3040 -0.4337  0.0454
28547SOL    HW186219   7.634   1.403   0.664 -0.2093  1.3381  2.2897
28547SOL    HW286220   7.614   1.441   0.519  1.9496 -2.2086  0.9171
28548SOL     OW86221   7.592   0.403   8.323  0.0705 -0.4884 -0.1513
28548SOL    HW186222   7.513   0.405   8.270 -0.2326  1.0864  0.3088
28548SOL    HW286223   7.564   0.433   8.409  1.1963  0.3070 -0.0383
28549SOL     OW86224   2.868   3.818   9.146 -0.0792 -0.1311  0.3812
28549SOL    HW186225   2.904   3.734   9.175  0.7903 -0.7710 -2.2839
28549SOL    HW286226   2.923   3.884   9.188 -1.3782 -0.7338  3.3074
28550SOL     OW86227   2.809   1.436   2.264  0.1434 -0.1002  0.3730
28550SOL    HW186228   2.901   1.459   2.253 -0.3704  1.3564 -1.3126
28550SOL    HW286229   2.774   1.433   2.175 -1.6036  0.1822  1.0127
28551SOL     OW86230   1.148   9.170   7.795 -0.3259 -0.3299  0.2865
28551SOL    HW186231   1.192   9.184   7.879 -0.6666 -0.7034  0.5244
28551SOL    HW286232   1.186   9.237   7.738 -2.4687  2.2157  1.5975
28552SOL     OW86233   4.147   9.185   9.642 -0.3682 -1.0278  1.3221
28552SOL    HW186234   4.103   9.104   9.617 -0.4792 -0.8215  0.8480
28552SOL    HW286235   4.102   9.254   9.593 -1.1235 -0.5077  2.6782
28553SOL     OW86236   1.523   3.486   9.201  0.3346  0.0137  0.0609
28553SOL    HW186237   1.441   3.441   9.223 -0.3018  0.5832 -1.0374
28553SOL    HW286238   1.591   3.420   9.215 -0.7697 -2.5200 -4.3755
28554SOL     OW86239   1.850   9.125   2.093  0.3098 -0.1080 -0.2480
28554SOL    HW186240   1.886   9.167   2.015 -0.4361 -0.9476 -1.0699
28554SOL    HW286241   1.835   9.198   2.154  3.1999  0.2907  0.1135
28555SOL     OW86242   1.406   6.171   3.959 -0.2043  0.2087  0.1573
28555SOL    HW186243   1.372   6.230   3.891  0.9361 -1.6296 -2.1793
28555SOL    HW286244   1.344   6.098   3.959  0.8644 -0.7361 -0.4104
28556SOL     OW86245   5.195   5.931   9.860 -0.3964 -0.0901 -0.2288
28556SOL    HW186246   5.140   5.853   9.851  1.4162 -1.5251  0.5375
28556SOL    HW286247   5.279   5.898   9.890 -0.1125  2.3414  2.0661
28557SOL     OW86248   0.685   7.351   6.732 -0.2949 -0.0676  0.5684
28557SOL    HW186249   0.665   7.270   6.685  0.1126  0.4331 -0.4817
28557SOL    HW286250   0.734   7.322   6.809 -1.5762 -0.9526  1.0884
28558SOL     OW86251   8.507   1.583   5.673  0.2788 -0.0533  0.2972
28558SOL    HW186252   8.581   1.532   5.639  0.4253  0.3827 -0.0536
28558SOL    HW286253   8.547   1.659   5.715  0.0715 -0.3366  1.0193
28559SOL     OW86254   5.581   7.664   6.734 -0.0378 -0.2044  0.0372
28559SOL    HW186255   5.630   7.620   6.665 -0.4115 -0.3599 -0.1319
28559SOL    HW286256   5.579   7.601   6.806 -0.5362 -0.4523 -0.1893
28560SOL     OW86257   6.743   9.583   0.388  0.3442  0.1898  0.0775
28560SOL    HW186258   6.700   9.575   0.473  0.0962 -0.3707 -0.0970
28560SOL    HW286259   6.779   9.672   0.387 -0.7700  0.6564  0.2482
28561SOL     OW86260   6.504   3.527   7.845  0.3398 -0.4592  0.2435
28561SOL    HW186261   6.520   3.436   7.868  1.9022 -0.6003 -1.2044
28561SOL    HW286262   6.556   3.577   7.908  0.4512 -0.6260  0.2842
28562SOL     OW86263   1.336   5.387   7.247 -0.1182  0.2466 -0.0295
28562SOL    HW186264   1.248   5.362   7.219 -0.1411  0.0482  0.2113
28562SOL    HW286265   1.322   5.427   7.334  0.0411  0.1079  0.0606
28563SOL     OW86266   0.735   4.149   1.546 -0.2714  0.9326 -0.4904
28563SOL    HW186267   0.829   4.162   1.531 -0.2004 -0.1951 -1.1198
28563SOL    HW286268   0.729   4.113   1.634 -0.2071  1.9386 -0.0591
28564SOL     OW86269   7.579   1.875   5.621  0.6132  0.4076  0.9232
28564SOL    HW186270   7.587   1.838   5.533  0.5087  2.7689 -0.1407
28564SOL    HW286271   7.630   1.815   5.677  1.0135 -0.9229 -0.7857
28565SOL     OW86272   0.642   1.129   9.939 -0.1629 -0.1411 -0.4787
28565SOL    HW186273   0.612   1.082   9.861 -1.3944  0.5644 -0.4651
28565SOL    HW286274   0.619   1.071  10.011  0.5433 -0.5826 -0.5996
28566SOL     OW86275   3.483   3.719   6.580 -0.3493 -0.1436  0.2183
28566SOL    HW186276   3.523   3.667   6.510 -1.0905 -0.2921 -0.1068
28566SOL    HW286277   3.539   3.704   6.656  0.4384 -0.0265 -0.3253
28567SOL     OW86278   2.844   8.845   8.526 -0.1938 -0.3787  0.3008
28567SOL    HW186279   2.888   8.923   8.558 -0.5010 -0.6998  1.5511
28567SOL    HW286280   2.796   8.811   8.601 -3.4821  0.5198 -1.1917
28568SOL     OW86281   7.561   4.207   6.077  0.5275  0.1278 -0.3025
28568SOL    HW186282   7.494   4.230   6.141 -0.0255 -0.2492 -0.7325
28568SOL    HW286283   7.592   4.121   6.103  1.9470  0.9314  0.7765
28569SOL     OW86284   9.826   8.076   8.417 -0.5839 -0.0875  0.1664
28569SOL    HW186285   9.803   8.163   8.448  0.9653  0.9091 -1.3688
28569SOL    HW286286   9.767   8.061   8.343 -0.5824 -0.1765  0.1829
28570SOL     OW86287   7.520   0.836   1.483  0.4339  0.0576 -0.6929
28570SOL    HW186288   7.558   0.810   1.567 -0.5268  0.2958 -0.1692
28570SOL    HW286289   7.557   0.922   1.466 -0.9619  0.9556  0.5571
28571SOL     OW86290   2.471   4.915   3.814 -0.0817  0.3382 -0.1706
28571SOL    HW186291   2.532   4.988   3.819 -0.5544  0.8076 -1.0187
28571SOL    HW286292   2.385   4.954   3.832 -0.4877  0.2386 -1.7307
28572SOL     OW86293   0.251   1.894   9.166 -0.0589  0.1874  0.1576
28572SOL    HW186294   0.328   1.867   9.216 -0.4600  1.3039  1.4389
28572SOL    HW286295   0.225   1.816   9.118 -0.3404 -1.3297  2.5983
28573SOL     OW86296   1.411   6.498   6.597 -0.5216  0.2918 -0.2919
28573SOL    HW186297   1.350   6.496   6.523  0.1986 -0.8970 -0.8788
28573SOL    HW286298   1.419   6.406   6.624 -0.7251  0.6967  1.2361
28574SOL     OW86299   0.565   3.254   3.005 -0.2858  0.0788  0.3669
28574SOL    HW186300   0.514   3.232   2.927  0.4661 -0.3244 -0.0232
28574SOL    HW286301   0.528   3.198   3.074 -0.8776  0.3571  0.2831
28575SOL     OW86302   5.165   0.118   8.946  0.5645 -0.1778 -0.6185
28575SOL    HW186303   5.147   0.209   8.923  0.8703  0.1375  0.3349
28575SOL    HW286304   5.099   0.068   8.900  0.9540  0.4472 -1.8881
28576SOL     OW86305   2.101   9.062   5.074 -0.1296 -0.1075 -0.2898
28576SOL    HW186306   2.042   9.113   5.018  0.0955 -0.3318 -0.7360
28576SOL    HW286307   2.187   9.070   5.033  0.2783  0.6888  0.6795
28577SOL     OW86308   7.138   4.656   3.913 -0.4835 -0.1894 -0.5817
28577SOL    HW186309   7.047   4.628   3.916 -1.1441  1.8685  0.5510
28577SOL    HW286310   7.137   4.735   3.858  0.6669 -0.2480 -0.7218
28578SOL     OW86311   7.821   7.249   2.091  0.3444  0.5529 -0.2884
28578SOL    HW186312   7.752   7.234   2.027 -0.4734  0.7128  0.5256
28578SOL    HW286313   7.774   7.261   2.174  1.2965  1.4714  0.1487
28579SOL     OW86314   1.967   4.513   1.861 -0.1990  0.0149 -0.4103
28579SOL    HW186315   1.940   4.475   1.777 -1.3826 -0.5878  0.2217
28579SOL    HW286316   1.892   4.500   1.919  0.0106  1.7767  0.3388
28580SOL     OW86317   8.924   6.337   6.399 -0.0776  0.0555 -0.1140
28580SOL    HW186318   8.871   6.327   6.319  0.4954 -0.4958 -0.4325
28580SOL    HW286319   8.861   6.325   6.470 -0.5807  0.4710 -0.4755
28581SOL     OW86320   4.659   6.021   9.793 -0.3241 -0.4130  0.4243
28581SOL    HW186321   4.694   6.109   9.805 -2.3794  0.5579 -0.2266
28581SOL    HW286322   4.597   6.030   9.721 -1.7498 -2.0440  1.3936
28582SOL     OW86323   7.916   3.786   7.654 -0.4907 -0.1309 -0.2913
28582SOL    HW186324   7.972   3.814   7.726 -0.7422  1.5288 -0.7114
28582SOL    HW286325   7.944   3.838   7.579  0.7073 -2.7862 -1.8262
28583SOL     OW86326   9.095   8.883   7.116  0.0575  0.1092  0.2936
28583SOL    HW186327   9.012   8.902   7.160 -0.0624 -0.1216  0.1651
28583SOL    HW286328   9.073   8.818   7.050  0.7655 -1.8023  1.8455
28584SOL     OW86329   3.897   9.344   0.183  0.3515 -0.2487 -0.1595
28584SOL    HW186330   3.908   9.339   0.088  1.4452 -0.3736 -0.0392
28584SOL    HW286331   3.981   9.315   0.218 -0.0143 -0.1171  0.8488
28585SOL     OW86332   1.622   0.004   8.006  0.4299  0.5389 -0.9839
28585SOL    HW186333   1.671   0.058   8.068  0.6847  1.2735 -1.8113
28585SOL    HW286334   1.531   0.012   8.034  0.6071  0.3731 -0.3428
28586SOL     OW86335   0.501   2.892   0.039  0.0453 -0.5996 -0.0408
28586SOL    HW186336   0.562   2.825   0.009 -1.1464 -1.5008 -0.5496
28586SOL    HW286337   0.538   2.924   0.120  2.1188  0.1705 -1.2223
28587SOL     OW86338   1.574   4.292   7.416 -0.1438  0.1569 -0.1429
28587SOL    HW186339   1.550   4.207   7.452 -2.5682 -0.0679 -1.9944
28587SOL    HW286340   1.611   4.272   7.330 -0.8268  0.9497 -0.6368
28588SOL     OW86341   2.358   6.410   3.052  0.1490  0.7707  0.4322
28588SOL    HW186342   2.335   6.435   3.141 -0.9046  0.5264  0.2441
28588SOL    HW286343   2.408   6.329   3.060 -0.4304  0.4445  0.7710
28589SOL     OW86344   4.059   9.549   3.404 -0.7818 -0.2693 -0.3941
28589SOL    HW186345   4.126   9.614   3.424  0.4843 -1.8275  0.6843
28589SOL    HW286346   4.004   9.591   3.339  0.4616  1.5641 -0.3470
28590SOL     OW86347   6.630   0.502   0.373 -0.2274 -0.5776  0.1362
28590SOL    HW186348   6.569   0.505   0.447  0.2509  0.1626  0.5051
28590SOL    HW286349   6.714   0.531   0.410 -0.3164  1.2876 -1.0080
28591SOL     OW86350   8.380   2.411   7.224 -0.2029  0.0520  0.7825
28591SOL    HW186351   8.288   2.400   7.201 -0.1441  0.8698  0.0892
28591SOL    HW286352   8.399   2.338   7.283 -0.2858 -2.4827 -2.0279
28592SOL     OW86353   9.048   5.213   9.576  0.0809 -0.0279  0.5029
28592SOL    HW186354   9.035   5.250   9.489  2.2097  1.9623  0.9471
28592SOL    HW286355   8.976   5.250   9.628 -0.2525  0.0909 -0.0358
28593SOL     OW86356   4.183   9.392   8.649 -0.2303 -0.2472 -0.0915
28593SOL    HW186357   4.180   9.428   8.560 -3.0316 -3.1917 -1.4100
28593SOL    HW286358   4.118   9.444   8.698 -0.6429 -0.3156 -0.5552
28594SOL     OW86359   4.552   8.721   8.500 -0.4854  0.0024 -0.1086
28594SOL    HW186360   4.538   8.658   8.429 -0.0766  0.3084 -0.4643
28594SOL    HW286361   4.481   8.785   8.489 -1.4498 -0.8705  0.8022
28595SOL     OW86362   1.395   2.751   1.295 -0.4748  0.1345  0.0164
28595SOL    HW186363   1.439   2.796   1.367 -1.2124  2.0388 -0.6594
28595SOL    HW286364   1.313   2.719   1.333 -0.0980 -0.3782  0.4174
28596SOL     OW86365   4.949   8.954   0.549 -0.1537 -0.5976  0.3694
28596SOL    HW186366   4.943   8.962   0.453  0.6349  1.7912  0.4625
28596SOL    HW286367   4.862   8.925   0.576 -1.0750  0.8250 -0.9094
28597SOL     OW86368   1.013   9.666   5.559  0.2224  0.4840  0.1614
28597SOL    HW186369   1.001   9.716   5.640  0.7794  1.1323 -0.1378
28597SOL    HW286370   1.022   9.733   5.491 -1.4515 -0.0617 -0.6407
28598SOL     OW86371   3.032   5.871   2.525 -0.2499  0.3902  0.4131
28598SOL    HW186372   3.092   5.812   2.571  1.4425 -0.4155 -2.6048
28598SOL    HW286373   3.079   5.953   2.518  0.3192 -0.0553 -1.4162
28599SOL     OW86374   1.971   6.465   0.918  0.0017 -0.1634  0.1028
28599SOL    HW186375   1.977   6.397   0.851 -1.0258  0.3146 -0.4933
28599SOL    HW286376   1.987   6.547   0.871  0.2508  0.0948  0.6316
28600SOL     OW86377   9.119   7.793   1.342  0.2145 -0.2251 -0.1117
28600SOL    HW186378   9.213   7.784   1.359  0.3657 -1.4469 -1.4124
28600SOL    HW286379   9.078   7.733   1.404  0.2604  0.5222  0.6544
28601SOL     OW86380   2.523   6.023   1.352 -0.1067 -0.2442  0.2328
28601SOL    HW186381   2.523   5.982   1.265 -0.8103 -1.1602  0.6494
28601SOL    HW286382   2.563   5.958   1.409  2.2355  1.1382  0.2872
28602SOL     OW86383   3.466   6.877   9.916 -0.1151 -0.1975 -0.2275
28602SOL    HW186384   3.396   6.823   9.954  0.3143 -1.7427 -1.4994
28602SOL    HW286385   3.462   6.858   9.822  1.3289  0.4963 -0.4561
28603SOL     OW86386   1.467   3.487   2.756  0.1852 -0.1059 -0.4918
28603SOL    HW186387   1.426   3.477   2.843  1.8733 -0.4288  0.3111
28603SOL    HW286388   1.401   3.453   2.695 -0.3637 -1.5603  0.8245
28604SOL     OW86389   3.923   5.938   9.953 -0.0252 -0.0854  0.2972
28604SOL    HW186390   4.014   5.915   9.972 -0.0147  0.6441  1.1708
28604SOL    HW286391   3.920   5.946   9.857  0.1401 -2.9249 -0.0509
28605SOL     OW86392   4.258   8.128   5.462  0.1561  0.4013 -0.3278
28605SOL    HW186393   4.239   8.039   5.489  0.7871  0.1622 -0.6435
28605SOL    HW286394   4.176   8.175   5.474 -0.5752 -0.5328 -1.4830
28606SOL     OW86395   8.829   5.052   6.612  0.0105  0.3117  0.2979
28606SOL    HW186396   8.889   5.038   6.538  1.5534  0.7962  1.4195
28606SOL    HW286397   8.777   5.129   6.587 -1.2411 -0.9629 -1.3216
28607SOL     OW86398   9.939   6.814   0.794 -0.1293 -0.2888 -0.4675
28607SOL    HW186399   9.924   6.722   0.813  0.9104 -0.2648  0.5639
28607SOL    HW286400  10.028   6.832   0.826 -1.1384  1.6129  1.6011
28608SOL     OW86401   2.533   8.087   8.034  0.6294  0.1088  0.2121
28608SOL    HW186402   2.445   8.117   8.055  0.8885  0.1907  1.2641
28608SOL    HW286403   2.576   8.080   8.119  0.7345 -2.8384  0.0121
28609SOL     OW86404   9.725   7.348   8.634 -0.4482  0.3921 -0.0355
28609SOL    HW186405   9.660   7.407   8.595  0.0269  1.1901  0.3461
28609SOL    HW286406   9.809   7.389   8.613 -0.1393  0.2412  0.8600
28610SOL     OW86407   8.484   1.597   8.627 -0.0734 -0.7390  0.1017
28610SOL    HW186408   8.474   1.644   8.709  1.3640 -0.0748 -0.0681
28610SOL    HW286409   8.578   1.581   8.620 -0.0595 -0.1471 -1.7477
28611SOL     OW86410   8.703   8.132   8.774  0.4256  0.2315 -0.0014
28611SOL    HW186411   8.624   8.150   8.825  0.9797  0.4874  0.7790
28611SOL    HW286412   8.692   8.185   8.694 -0.4751 -0.2290 -0.1922
28612SOL     OW86413   0.665   0.581   6.511 -0.1457 -0.0415 -0.1094
28612SOL    HW186414   0.740   0.537   6.471  0.9253  2.0321 -0.5077
28612SOL    HW286415   0.611   0.608   6.437  0.5602  1.5838 -0.0730
28613SOL     OW86416   3.161   1.795   1.759 -0.2517  0.1245  0.0882
28613SOL    HW186417   3.237   1.762   1.712  0.1180  1.2251 -0.1202
28613SOL    HW286418   3.188   1.882   1.790 -1.2254  0.2900  0.5081
28614SOL     OW86419   7.300   2.248   5.013 -0.2964 -0.1571 -0.1251
28614SOL    HW186420   7.342   2.334   5.009  0.7964 -0.6729 -0.1798
28614SOL    HW286421   7.367   2.190   5.051 -1.6053 -0.6368  1.5652
28615SOL     OW86422   2.579   7.055   9.638 -0.1276 -0.1190 -0.0744
28615SOL    HW186423   2.591   7.072   9.544  1.8659  0.4922  0.2310
28615SOL    HW286424   2.575   6.959   9.644  1.8338 -0.2843 -0.6398
28616SOL     OW86425   5.540   2.391   9.342 -0.3621 -0.1184 -0.7288
28616SOL    HW186426   5.526   2.448   9.266 -0.8871  1.7252  0.6685
28616SOL    HW286427   5.454   2.353   9.359 -0.8227  1.3026  0.2930
28617SOL     OW86428   5.495   4.271   0.773 -0.2774 -0.2002  0.0269
28617SOL    HW186429   5.516   4.235   0.860 -2.3716 -1.4335  0.0974
28617SOL    HW286430   5.515   4.199   0.713  0.9115  0.5599 -0.5056
28618SOL     OW86431   7.513   7.642   2.538  0.3818 -0.2940  0.3320
28618SOL    HW186432   7.527   7.736   2.545  1.7781 -0.5860  2.5950
28618SOL    HW286433   7.450   7.622   2.607 -0.9174 -0.8713 -0.9859
28619SOL     OW86434   5.691   8.905   4.189  0.5094  0.4661 -0.4596
28619SOL    HW186435   5.755   8.974   4.171  2.3810 -1.5552 -2.2040
28619SOL    HW286436   5.744   8.827   4.201 -1.4785 -0.5692  2.3759
28620SOL     OW86437   3.564   5.081   4.188  0.4076  0.4251  0.5621
28620SOL    HW186438   3.484   5.132   4.201  0.0736 -0.4393  2.2203
28620SOL    HW286439   3.590   5.055   4.276  1.8958 -0.2625 -0.0504
28621SOL     OW86440   6.885   0.791   6.428  0.2926 -0.4048  0.3365
28621SOL    HW186441   6.801   0.807   6.384  0.2204 -0.1680  0.5580
28621SOL    HW286442   6.950   0.832   6.371  0.1544  0.2883  0.6680
28622SOL     OW86443   1.905   9.477   2.139  0.3242 -0.5945  0.0839
28622SOL    HW186444   1.873   9.557   2.180  1.5612 -0.4732  0.8465
28622SOL    HW286445   1.919   9.416   2.211  4.0801  0.1518  0.1725
28623SOL     OW86446   2.571   6.862   9.440  0.6661 -0.0005  0.3458
28623SOL    HW186447   2.624   6.897   9.369  1.1002  1.4275  1.3256
28623SOL    HW286448   2.624   6.792   9.478  1.1968  0.4060  0.3608
28624SOL     OW86449   3.222   4.666   7.461  0.5254  0.5971  0.5454
28624SOL    HW186450   3.286   4.614   7.509 -0.0297 -0.1655  0.4728
28624SOL    HW286451   3.256   4.671   7.372 -0.6305 -1.7896 -0.0894
28625SOL     OW86452   0.772   5.950   4.407 -0.1751  0.3078  0.0785
28625SOL    HW186453   0.726   5.870   4.379 -4.0034  1.9039  1.1300
28625SOL    HW286454   0.802   5.990   4.325 -0.2205 -1.0545 -0.6429
28626SOL     OW86455   6.286   3.210   3.716  0.6621  0.0427 -0.1020
28626SOL    HW186456   6.319   3.256   3.794  0.5272 -0.2171  0.1114
28626SOL    HW286457   6.322   3.122   3.724 -0.0996 -0.2575  0.1535
28627SOL     OW86458   4.981   7.291   5.027 -1.0879  0.1055 -1.0102
28627SOL    HW186459   5.064   7.255   5.059 -1.3880 -0.0366 -0.3694
28627SOL    HW286460   4.920   7.279   5.100 -0.6431  4.0672  0.3030
28628SOL     OW86461   0.793   5.184   5.501 -0.1848  0.1884  0.0699
28628SOL    HW186462   0.830   5.117   5.444  1.3891  1.1364 -0.0959
28628SOL    HW286463   0.869   5.227   5.539 -1.1744  0.3217  2.0442
28629SOL     OW86464   1.476   1.417   4.075 -0.1166 -0.1643  0.1766
28629SOL    HW186465   1.527   1.482   4.125 -0.2523 -0.8291  1.2143
28629SOL    HW286466   1.534   1.392   4.003  0.2912  0.4497  0.2798
28630SOL     OW86467   7.800   1.737   2.977  0.1715  0.3230  0.0969
28630SOL    HW186468   7.844   1.786   2.908  0.6784  1.6737  1.3217
28630SOL    HW286469   7.787   1.801   3.047 -1.3660 -0.7066  0.8166
28631SOL     OW86470   3.597   9.163   4.517  0.9996 -0.1557 -0.8643
28631SOL    HW186471   3.556   9.249   4.506 -0.0188 -0.3754  0.8878
28631SOL    HW286472   3.689   9.177   4.496  1.0073  1.5528  0.1618
28632SOL     OW86473   4.674   3.255   0.138 -0.2743  0.0386 -0.3757
28632SOL    HW186474   4.697   3.224   0.225  0.3584  0.9402 -0.2069
28632SOL    HW286475   4.737   3.325   0.120 -2.6921  2.4363 -0.0379
28633SOL     OW86476   0.822   6.053   8.968 -0.4312  0.0102 -0.1809
28633SOL    HW186477   0.898   6.110   8.978 -0.5304  0.2142 -0.5876
28633SOL    HW286478   0.751   6.112   8.945 -0.3675 -0.3578 -1.3679
28634SOL     OW86479   1.166   0.343   2.483 -0.2075 -0.2831 -0.0620
28634SOL    HW186480   1.233   0.362   2.418 -0.3993 -0.5542 -0.3440
28634SOL    HW286481   1.094   0.304   2.432 -0.7620  0.4108  0.1629
28635SOL     OW86482   1.469   2.511   4.285 -0.6298  0.2467  0.3920
28635SOL    HW186483   1.424   2.555   4.358 -1.7330  0.6555 -0.4969
28635SOL    HW286484   1.538   2.460   4.326 -0.8977  0.8798  1.6789
28636SOL     OW86485   1.887   8.459   1.977  0.2448  0.2956  0.1100
28636SOL    HW186486   1.852   8.388   1.924  0.7690 -0.3648  0.6325
28636SOL    HW286487   1.867   8.434   2.067  0.4323  0.8177  0.3031
28637SOL     OW86488   8.142   3.945   0.254  0.1605  0.1732  0.7475
28637SOL    HW186489   8.156   3.913   0.165  0.1298 -1.5715  1.3259
28637SOL    HW286490   8.196   4.023   0.261  0.4182  0.1418 -0.6951
28638SOL     OW86491   4.351   2.905   3.041 -0.1101  0.0597  0.4146
28638SOL    HW186492   4.403   2.868   3.113  1.9986  1.1744 -0.4584
28638SOL    HW286493   4.347   2.836   2.976  2.6808  0.7781 -0.6478
28639SOL     OW86494   8.945   9.512   5.113  0.1550 -0.3239  0.2258
28639SOL    HW186495   9.031   9.499   5.153  0.0017  0.2205  0.7373
28639SOL    HW286496   8.894   9.557   5.180 -0.6748 -1.0536  0.1058
28640SOL     OW86497   4.161   7.482   2.047 -0.5001  0.1261 -0.0285
28640SOL    HW186498   4.112   7.406   2.016 -0.5302  0.4829 -0.8855
28640SOL    HW286499   4.095   7.545   2.075 -0.4669 -0.6154  1.8857
28641SOL     OW86500   8.921   2.264   8.651  0.1948  0.0659 -0.3829
28641SOL    HW186501   8.874   2.330   8.702  0.2210 -1.4124  1.6760
28641SOL    HW286502   9.005   2.306   8.630 -0.8100  1.6498 -1.5756
28642SOL     OW86503   0.775   6.379   6.437  0.3313 -0.1903 -0.4231
28642SOL    HW186504   0.813   6.465   6.417 -0.4136  0.6960  1.6698
28642SOL    HW286505   0.850   6.319   6.436  0.9881  0.6176 -1.1462
28643SOL     OW86506   2.360   4.247   2.425 -0.4357 -0.3018  0.2524
28643SOL    HW186507   2.297   4.226   2.494 -0.2450  1.1706  0.9182
28643SOL    HW286508   2.306   4.272   2.350 -0.6536 -0.1510  0.4571
28644SOL     OW86509   4.096   4.911   4.030  0.4275 -0.0937 -0.1148
28644SOL    HW186510   4.011   4.914   4.073  1.3331  1.5212  1.6793
28644SOL    HW286511   4.157   4.886   4.099  1.5252 -0.4841 -1.1963
28645SOL     OW86512   8.477   9.415   5.026  0.2853 -1.0054  0.5202
28645SOL    HW186513   8.499   9.367   4.946  1.8098 -0.7406  0.7607
28645SOL    HW286514   8.412   9.360   5.070 -0.3207 -1.3258 -0.7090
28646SOL     OW86515   8.997   2.448   7.986 -0.2560 -0.1029  0.6133
28646SOL    HW186516   9.011   2.512   7.916  0.8946 -0.6454  0.3390
28646SOL    HW286517   8.901   2.441   7.993 -0.3879  0.1759 -0.7082
28647SOL     OW86518   8.280   4.178   8.205  0.2775 -0.5259 -0.1030
28647SOL    HW186519   8.268   4.192   8.111  0.9556 -0.8732 -0.2465
28647SOL    HW286520   8.304   4.264   8.240  2.0463 -0.7982 -0.5867
28648SOL     OW86521   8.775   0.097   2.833  0.7264  0.1646 -0.8632
28648SOL    HW186522   8.785   0.015   2.881 -0.5987  1.4379  1.8411
28648SOL    HW286523   8.853   0.148   2.858 -0.4972  1.2457  0.9746
28649SOL     OW86524   4.375   1.234   0.064  0.6790  0.1842  0.2340
28649SOL    HW186525   4.424   1.228  -0.019  0.6568  0.1598  0.2229
28649SOL    HW286526   4.305   1.296   0.045  1.6987  1.5333  0.7309
28650SOL     OW86527   2.039   2.618   8.282 -0.5297  0.1143  0.5541
28650SOL    HW186528   1.947   2.594   8.274 -0.3837 -0.2445 -0.1120
28650SOL    HW286529   2.066   2.640   8.193  0.0624  0.0905  0.7215
28651SOL     OW86530   1.538   2.559   5.063 -0.1083 -0.1674 -0.2494
28651SOL    HW186531   1.508   2.492   5.002 -1.6989  0.1469  0.1401
28651SOL    HW286532   1.592   2.512   5.127 -0.0415 -0.8151 -0.7748
28652SOL     OW86533   5.193   9.722   7.792  0.1334  0.0797  0.2300
28652SOL    HW186534   5.260   9.766   7.843  0.6770  0.2771 -0.6217
28652SOL    HW286535   5.237   9.646   7.754  0.0876  0.5999 -0.9151
28653SOL     OW86536   0.031   8.619   7.696 -0.4902 -0.2925  0.0127
28653SOL    HW186537  -0.061   8.625   7.668 -0.1047  0.2545 -1.2117
28653SOL    HW286538   0.033   8.661   7.781 -1.1400  0.9220 -0.5471
28654SOL     OW86539   0.409   6.296   2.810  0.4355 -0.1963  0.1861
28654SOL    HW186540   0.489   6.313   2.859  0.7505  0.2379 -0.4781
28654SOL    HW286541   0.412   6.203   2.791  1.4092  0.0514 -0.9363
28655SOL     OW86542   9.033   2.887   8.976  0.0697  0.1721 -0.2975
28655SOL    HW186543   8.946   2.868   9.012 -0.2124  1.8471 -0.0233
28655SOL    HW286544   9.073   2.801   8.963 -1.7434 -0.6530 -0.7351
28656SOL     OW86545   3.550   7.365   0.401  0.1612  0.4340  0.1736
28656SOL    HW186546   3.606   7.442   0.412 -1.2086  1.6014 -0.5859
28656SOL    HW286547   3.597   7.294   0.444  1.3945  1.7362  1.0577
28657SOL     OW86548   3.141   3.147   2.170  0.4740  0.0040 -0.1068
28657SOL    HW186549   3.184   3.147   2.084 -0.2782  1.1748 -0.4913
28657SOL    HW286550   3.048   3.136   2.151  0.1287  1.7129  0.4477
28658SOL     OW86551   8.460   2.748   8.449  0.5150 -0.2045 -0.3334
28658SOL    HW186552   8.417   2.667   8.420  0.9970  0.0679 -1.8877
28658SOL    HW286553   8.388   2.803   8.481  0.1143 -0.9873  0.1634
28659SOL     OW86554   1.021   5.457   5.164 -0.3257  0.2246 -0.0096
28659SOL    HW186555   1.066   5.377   5.137  1.5708  1.5018 -0.9409
28659SOL    HW286556   0.945   5.427   5.214  0.8149 -2.1129  0.4624
28660SOL     OW86557   5.747   8.308   2.185 -0.0330 -0.4534 -0.2201
28660SOL    HW186558   5.768   8.227   2.232 -2.4753 -2.2140 -1.8702
28660SOL    HW286559   5.701   8.362   2.249  0.0773 -1.1452  0.4501
28661SOL     OW86560   7.184   5.188   0.984 -0.1006 -0.0789  0.5152
28661SOL    HW186561   7.178   5.284   0.982 -0.1059 -0.0860 -0.4215
28661SOL    HW286562   7.093   5.159   0.973  0.1898 -0.1652 -2.7942
28662SOL     OW86563   4.493   4.529   5.961  0.1638  0.4858  0.1224
28662SOL    HW186564   4.584   4.520   5.988 -0.5980 -0.1421  2.8166
28662SOL    HW286565   4.446   4.551   6.042 -2.3018 -0.8844 -0.8246
28663SOL     OW86566   3.616   3.501   9.958  0.0643  0.2862 -0.4248
28663SOL    HW186567   3.695   3.448   9.970  0.4616  1.0877  0.6744
28663SOL    HW286568   3.544   3.439   9.955  0.4661 -0.3070  1.3073
28664SOL     OW86569   1.375   5.052   6.961  0.4317  0.2905 -0.2409
28664SOL    HW186570   1.347   4.997   6.888 -0.5913 -0.1317  0.4408
28664SOL    HW286571   1.464   5.023   6.980  0.0872 -0.8102 -0.2155
28665SOL     OW86572   7.527   9.265   4.656 -0.6836 -0.1765 -0.2992
28665SOL    HW186573   7.580   9.195   4.693  0.3950  0.5888 -0.3476
28665SOL    HW286574   7.579   9.344   4.670 -1.0626  0.3788 -1.8142
28666SOL     OW86575   8.551   8.952   4.537  0.6661 -0.0816  0.3918
28666SOL    HW186576   8.517   9.000   4.462 -0.7287  0.7173  1.4843
28666SOL    HW286577   8.533   9.008   4.613  2.4811 -0.6319  1.3001
28667SOL     OW86578   3.942   8.491   5.377  0.4331 -0.3695 -0.3326
28667SOL    HW186579   3.979   8.423   5.433 -0.2068  1.1163  2.0277
28667SOL    HW286580   3.878   8.536   5.432 -0.6749  0.8569 -2.4567
28668SOL     OW86581   9.491   3.450   4.311 -0.4467 -0.1220  0.7041
28668SOL    HW186582   9.463   3.501   4.387  0.3060 -0.3619  1.1551
28668SOL    HW286583   9.586   3.454   4.313 -0.4142 -0.2848 -0.1297
28669SOL     OW86584   8.521   1.192   5.774 -0.0370  0.0309 -0.0944
28669SOL    HW186585   8.488   1.110   5.812 -0.3950  0.8679  1.5159
28669SOL    HW286586   8.479   1.261   5.826 -0.1562  1.2706 -1.7421
28670SOL     OW86587   7.497   8.269   5.855  0.0811  0.3723  0.4015
28670SOL    HW186588   7.527   8.206   5.921  1.5321  0.3173 -0.2773
28670SOL    HW286589   7.476   8.215   5.779  0.9767  0.6713 -0.0609
28671SOL     OW86590   3.455   5.207   7.350  0.3088 -0.2867  0.4781
28671SOL    HW186591   3.370   5.248   7.334  0.9446  0.1985 -2.1118
28671SOL    HW286592   3.435   5.130   7.403 -1.3405  1.3933  2.4706
28672SOL     OW86593   5.544   4.889   2.826 -0.3823 -0.1461  0.1570
28672SOL    HW186594   5.538   4.973   2.780 -0.1879 -0.2982 -0.1504
28672SOL    HW286595   5.564   4.825   2.757 -1.5315 -0.6071  0.2236
28673SOL     OW86596   1.175   8.251   2.891  0.1342  0.4084 -0.4161
28673SOL    HW186597   1.259   8.205   2.891  0.2258  0.5225  0.9941
28673SOL    HW286598   1.125   8.209   2.821  1.2275  0.0953 -1.0424
28674SOL     OW86599   0.968   5.228   1.510 -0.3994 -0.2799 -0.0896
28674SOL    HW186600   0.995   5.319   1.498  1.1812 -0.6952  0.0839
28674SOL    HW286601   0.881   5.223   1.472 -1.0169  1.5918  1.0054
28675SOL     OW86602   6.355   6.208   1.064  0.2000  0.6201  0.1453
28675SOL    HW186603   6.415   6.249   1.127  0.3971  0.4015  0.1018
28675SOL    HW286604   6.377   6.115   1.069  2.4652  0.8810 -2.5743
28676SOL     OW86605   2.459   8.363   0.873  0.4795  0.3924  0.5468
28676SOL    HW186606   2.439   8.270   0.887 -2.4695  0.4622 -2.1517
28676SOL    HW286607   2.554   8.366   0.864  0.6678 -2.3537  0.8103
28677SOL     OW86608   4.324   0.161   1.419  0.3787 -0.0894 -0.2888
28677SOL    HW186609   4.372   0.221   1.476  2.6820 -1.1592 -1.0275
28677SOL    HW286610   4.315   0.210   1.336  0.3023  0.0582 -0.1945
28678SOL     OW86611   2.230   6.543   6.785  0.0067  0.2981 -0.2040
28678SOL    HW186612   2.268   6.463   6.820  1.4470  0.8491 -0.4532
28678SOL    HW286613   2.302   6.587   6.740 -0.5033  2.1952  0.7066
28679SOL     OW86614   2.130   4.644   9.342 -0.5638  0.1442  0.2805
28679SOL    HW186615   2.172   4.725   9.315  2.6628 -1.2093  0.8142
28679SOL    HW286616   2.063   4.671   9.405 -0.4111  2.4177 -0.4640
28680SOL     OW86617   8.559   5.517   8.416  0.7148 -0.2456 -0.2790
28680SOL    HW186618   8.568   5.565   8.334 -0.6391  2.3763  0.9966
28680SOL    HW286619   8.528   5.430   8.390 -2.2665  1.3210 -2.4427
28681SOL     OW86620   8.961   3.225   0.490  0.0023  0.1660 -0.3056
28681SOL    HW186621   9.004   3.251   0.408  0.9807  1.1096  0.4756
28681SOL    HW286622   8.987   3.292   0.553 -0.2702 -0.8532  0.9332
28682SOL     OW86623   8.433   3.461   4.655 -0.1795 -0.1930  0.3677
28682SOL    HW186624   8.447   3.548   4.692  1.7915  0.2409 -1.1835
28682SOL    HW286625   8.339   3.457   4.637 -0.4053  1.3612  1.0687
28683SOL     OW86626   7.661   4.431   8.358  0.3096 -0.0915 -0.0317
28683SOL    HW186627   7.717   4.395   8.427  0.7989  1.8010  0.6289
28683SOL    HW286628   7.712   4.502   8.320 -1.2506  1.0539 -0.0838
28684SOL     OW86629   5.436   3.602   6.410 -0.0062  0.7288 -0.2237
28684SOL    HW186630   5.497   3.552   6.463 -1.4975 -0.7105  0.2377
28684SOL    HW286631   5.349   3.573   6.440 -0.9875  3.6544  0.1005
28685SOL     OW86632   9.529   8.627   0.589 -0.0039 -0.0103  0.3408
28685SOL    HW186633   9.511   8.718   0.565  3.7662  0.3316 -2.0298
28685SOL    HW286634   9.450   8.579   0.564 -1.1156  2.2614 -0.7666
28686SOL     OW86635   1.436   1.703   9.781  0.4852  0.3617  0.1106
28686SOL    HW186636   1.463   1.619   9.744  3.3068  1.6797 -1.1455
28686SOL    HW286637   1.456   1.695   9.875 -1.3893 -1.0504  0.4551
28687SOL     OW86638   6.940   8.341   8.727 -0.8036 -0.4446  0.1979
28687SOL    HW186639   7.019   8.344   8.673 -2.5616 -0.0115 -2.5163
28687SOL    HW286640   6.913   8.250   8.726 -0.3402 -0.6047  1.1791
28688SOL     OW86641   9.499   6.758   3.767 -0.0486  0.2037  0.1997
28688SOL    HW186642   9.451   6.687   3.723  0.3930 -0.0893  0.1748
28688SOL    HW286643   9.454   6.770   3.850  0.0568 -0.3304  0.3411
28689SOL     OW86644   8.311   2.425   6.891 -0.3334 -0.1739 -0.1056
28689SOL    HW186645   8.352   2.340   6.905 -0.1203 -0.4815 -2.2487
28689SOL    HW286646   8.373   2.473   6.836 -1.1787  0.7382 -0.3015
28690SOL     OW86647   6.501   3.017   9.967 -0.2193 -0.2426  0.3715
28690SOL    HW186648   6.519   2.968   9.887  2.1827  1.5466 -0.2904
28690SOL    HW286649   6.405   3.016   9.975 -0.8398  1.8721 -4.1103
28691SOL     OW86650   8.951   6.326   7.773 -0.2802 -0.8461  0.4953
28691SOL    HW186651   8.870   6.298   7.730 -1.5823  0.1364  2.1947
28691SOL    HW286652   8.982   6.400   7.720 -1.2349 -0.3704  0.5927
28692SOL     OW86653   8.385   6.869   4.519 -0.1457 -0.3400  0.9721
28692SOL    HW186654   8.427   6.823   4.592  1.0096 -0.1625  0.4334
28692SOL    HW286655   8.292   6.851   4.530  0.2063 -2.1164  1.2511
28693SOL     OW86656   4.252   7.629   0.626 -0.0568 -0.1592  0.2535
28693SOL    HW186657   4.265   7.534   0.618  1.3189  0.0949 -1.0665
28693SOL    HW286658   4.222   7.656   0.539 -2.3791  0.3822  1.1580
28694SOL     OW86659   0.450   5.829   4.343  0.8041 -0.1296 -0.2287
28694SOL    HW186660   0.521   5.802   4.401  0.0759  0.6488  1.0623
28694SOL    HW286661   0.443   5.923   4.354 -0.1688 -0.1345 -0.6490
28695SOL     OW86662   7.414   9.961   1.749  0.2176  0.7629 -0.2124
28695SOL    HW186663   7.439   9.904   1.676 -0.1931 -0.3962  0.5156
28695SOL    HW286664   7.479   9.943   1.817 -0.4004  0.5077  0.3290
28696SOL     OW86665   1.162   1.529   1.404 -0.3699 -0.3183  0.0294
28696SOL    HW186666   1.236   1.564   1.355 -0.0836  0.6137  1.1048
28696SOL    HW286667   1.087   1.540   1.344  0.0434  0.4047 -0.3695
28697SOL     OW86668   0.666   9.482   9.610 -0.0840 -0.4136  0.5402
28697SOL    HW186669   0.639   9.460   9.699  1.3704  0.7392  1.3068
28697SOL    HW286670   0.759   9.459   9.607  0.3525  1.2933 -0.0559
28698SOL     OW86671   6.943   3.795   9.185 -0.3850 -0.3309  0.7645
28698SOL    HW186672   6.930   3.700   9.182 -0.7943 -0.3408  2.2629
28698SOL    HW286673   6.941   3.822   9.093 -0.8553 -1.6938  0.3483
28699SOL     OW86674   1.920   9.743   6.775  0.2641 -0.3805  0.1326
28699SOL    HW186675   1.971   9.797   6.715 -0.8917 -0.5135 -1.0029
28699SOL    HW286676   1.940   9.778   6.862  0.5522  1.0207 -0.4768
28700SOL     OW86677   6.471   2.119   1.034 -0.3361 -0.6983  0.2321
28700SOL    HW186678   6.474   2.120   1.130  1.2224 -2.5954  0.2569
28700SOL    HW286679   6.560   2.099   1.007 -0.9345 -1.0638 -1.6023
28701SOL     OW86680   7.086   6.752   6.059  0.0857 -0.1170 -0.0667
28701SOL    HW186681   7.170   6.776   6.099  0.1576 -1.4175  0.6367
28701SOL    HW286682   7.020   6.784   6.121  0.1418 -0.7054  0.3064
28702SOL     OW86683   0.983   2.668   8.013  0.0293  0.3961  0.3789
28702SOL    HW186684   1.064   2.688   8.061 -0.0763  1.1582  0.2463
28702SOL    HW286685   1.012   2.645   7.925  0.1828 -0.4861  0.6461
28703SOL     OW86686   7.636   2.050   4.009 -0.2144  0.0475  0.2309
28703SOL    HW186687   7.593   2.029   4.092  1.0761  2.2824  1.5770
28703SOL    HW286688   7.729   2.036   4.026  0.0096 -0.1820 -1.1044
28704SOL     OW86689   5.525   5.838   4.194 -0.5346  0.1227  0.0273
28704SOL    HW186690   5.431   5.830   4.176 -0.7148  0.2264  0.8618
28704SOL    HW286691   5.562   5.876   4.115 -1.2034  0.1236 -0.2923
28705SOL     OW86692   4.162   1.204   7.273  0.3800  0.1073 -0.0423
28705SOL    HW186693   4.229   1.233   7.212  1.9647 -2.0079  0.5744
28705SOL    HW286694   4.188   1.243   7.357 -1.2015  2.1341 -0.3994
28706SOL     OW86695   9.209   2.221   6.559  0.1295 -0.1530  0.4133
28706SOL    HW186696   9.286   2.212   6.615 -1.5480 -0.4032  2.8173
28706SOL    HW286697   9.187   2.315   6.563 -0.5569 -0.3327  0.9868
28707SOL     OW86698   6.054   0.512   2.212 -0.6350  0.0498  0.4141
28707SOL    HW186699   6.133   0.547   2.254 -0.3377  0.5461 -0.5192
28707SOL    HW286700   5.994   0.494   2.285  0.3964 -0.5215  1.1573
28708SOL     OW86701   3.077   4.432   6.849  0.0485  0.7920  0.7773
28708SOL    HW186702   3.018   4.380   6.903 -0.5140 -0.3270 -0.8651
28708SOL    HW286703   3.163   4.422   6.891 -0.1384 -1.0677  0.7727
28709SOL     OW86704   8.417   1.545   6.342 -0.6724 -0.1489  0.3022
28709SOL    HW186705   8.323   1.541   6.359 -1.2141  3.4728 -1.0380
28709SOL    HW286706   8.456   1.577   6.424 -1.2194  2.2435 -0.3115
28710SOL     OW86707   7.573   4.676   7.993 -0.3693  0.5735 -0.0731
28710SOL    HW186708   7.574   4.737   8.066 -1.2706 -1.1784  1.4983
28710SOL    HW286709   7.650   4.620   8.007 -1.6995 -1.1225  0.8249
28711SOL     OW86710   5.380   9.723   1.358 -0.1177  0.2661  0.4416
28711SOL    HW186711   5.321   9.787   1.320  0.9040 -0.8857 -3.4786
28711SOL    HW286712   5.332   9.640   1.353 -0.2519  0.1338  2.6462
28712SOL     OW86713   4.732   1.442   4.091 -0.4292  0.1364  0.0867
28712SOL    HW186714   4.710   1.354   4.062 -1.6746  0.9965 -1.7647
28712SOL    HW286715   4.694   1.500   4.025  2.7645  1.9980 -0.3776
28713SOL     OW86716   4.770   6.791   4.101 -0.7649  0.4027 -0.0682
28713SOL    HW186717   4.718   6.863   4.065  0.1952  0.1702 -2.0348
28713SOL    HW286718   4.706   6.726   4.128 -1.5352  0.4250 -1.7645
28714SOL     OW86719   3.182   3.021   8.576  0.4460  0.1379 -0.1420
28714SOL    HW186720   3.111   3.065   8.529 -0.0797 -0.9086 -0.3641
28714SOL    HW286721   3.174   3.054   8.666  0.3632  0.8432 -0.4023
28715SOL     OW86722   6.469   4.681   3.565  0.7805  0.2795 -0.1013
28715SOL    HW186723   6.417   4.677   3.485 -2.2334  1.1718  1.6412
28715SOL    HW286724   6.512   4.596   3.570 -1.7054 -1.1351 -1.0008
28716SOL     OW86725   3.060   1.234   7.107  0.1436 -0.1198 -0.0406
28716SOL    HW186726   3.035   1.324   7.129 -0.6557 -0.6830  1.5426
28716SOL    HW286727   3.004   1.211   7.033  1.4273  1.1613 -1.4711
28717SOL     OW86728   3.818   5.372   3.745  0.0529 -0.3727  0.2398
28717SOL    HW186729   3.809   5.313   3.820 -0.3385  0.6649  1.0447
28717SOL    HW286730   3.728   5.389   3.718  0.2323 -2.4978 -1.9383
28718SOL     OW86731   8.048   2.514   3.544  0.4643  0.0782 -0.0842
28718SOL    HW186732   8.134   2.473   3.554  0.9802  1.2271  0.4638
28718SOL    HW286733   8.029   2.551   3.630  0.5607  1.9218 -0.7993
28719SOL     OW86734   5.006   1.350   5.516 -0.0150  0.7682  0.1996
28719SOL    HW186735   5.030   1.397   5.595 -1.2334  1.0473  0.4126
28719SOL    HW286736   4.911   1.340   5.521  0.2280 -2.7441  0.7541
28720SOL     OW86737   4.550   2.024   4.064  0.4131 -0.6888 -0.3806
28720SOL    HW186738   4.528   2.117   4.066 -2.1359 -1.2397  1.3491
28720SOL    HW286739   4.643   2.021   4.085  0.6478  1.4704 -0.8975
28721SOL     OW86740   1.417   0.447   3.063  0.1218 -0.3422  0.1906
28721SOL    HW186741   1.491   0.423   3.007  0.8512  1.5189  0.2667
28721SOL    HW286742   1.395   0.537   3.037 -0.8103 -0.1480  1.5237
28722SOL     OW86743   4.376   6.555   8.554  0.0374  0.6536 -0.6446
28722SOL    HW186744   4.323   6.492   8.504  3.2851 -1.6713 -1.4861
28722SOL    HW286745   4.329   6.566   8.636 -1.5716 -1.5489 -1.1752
28723SOL     OW86746   1.150   8.973   6.797 -0.3501  0.5728  0.2374
28723SOL    HW186747   1.209   9.006   6.864 -0.1382  0.4953  0.0887
28723SOL    HW286748   1.207   8.945   6.725 -0.5089 -0.2289  0.4052
28724SOL     OW86749   5.474   8.830   0.728 -0.6872  0.0352 -0.2426
28724SOL    HW186750   5.496   8.780   0.649 -2.1405 -0.7684 -0.1863
28724SOL    HW286751   5.412   8.896   0.698  1.7409  2.3645 -0.4394
28725SOL     OW86752   5.908   7.092   9.707 -0.0502  0.2547 -0.2612
28725SOL    HW186753   5.904   7.182   9.673  0.9096  0.3754 -0.0937
28725SOL    HW286754   5.901   7.037   9.630  1.9640  0.5238 -0.6937
28726SOL     OW86755   1.152   3.559   4.687  0.0490 -0.2144 -0.0628
28726SOL    HW186756   1.245   3.567   4.708  0.2790 -0.4401 -0.9320
28726SOL    HW286757   1.135   3.465   4.689 -0.0832 -0.1950 -0.2175
28727SOL     OW86758   7.210   9.605   8.605  0.0583  0.1642 -0.0693
28727SOL    HW186759   7.304   9.596   8.586 -0.1015 -0.6850 -0.4901
28727SOL    HW286760   7.207   9.662   8.682  0.8607  1.1324 -0.7207
28728SOL     OW86761   5.623   7.187   1.521  0.0486  0.5169 -0.2707
28728SOL    HW186762   5.586   7.108   1.483  0.9539 -1.5318  2.7366
28728SOL    HW286763   5.557   7.255   1.507 -1.6824 -1.2638 -1.1185
28729SOL     OW86764   0.656   4.013   3.253 -0.0709 -0.1429 -0.1661
28729SOL    HW186765   0.654   3.935   3.307  1.3689 -0.6170 -0.7402
28729SOL    HW286766   0.706   3.988   3.175 -2.1802  0.4662 -1.8325
28730SOL     OW86767   1.555   8.649   3.866 -0.5290 -0.0971 -0.0668
28730SOL    HW186768   1.637   8.671   3.823  1.0218 -1.6516  1.9061
28730SOL    HW286769   1.537   8.725   3.923 -0.3609  0.1517 -0.3427
28731SOL     OW86770   4.457   5.746   3.058  0.7742 -0.4585 -0.0148
28731SOL    HW186771   4.532   5.729   3.116  1.4348 -0.1661 -0.7612
28731SOL    HW286772   4.443   5.840   3.065  0.7560 -0.4474 -0.2121
28732SOL     OW86773   5.777   5.991   9.880  0.2836  0.2840  0.2343
28732SOL    HW186774   5.822   5.910   9.859 -0.7743 -0.7280  1.6544
28732SOL    HW286775   5.732   6.016   9.799  0.3088 -0.7634 -0.1192
28733SOL     OW86776   4.073   8.250   3.051  0.0634 -0.0733  0.1172
28733SOL    HW186777   4.120   8.332   3.041  0.7875 -0.3673  0.9864
28733SOL    HW286778   4.045   8.249   3.143  1.6164 -1.5887  0.6174
28734SOL     OW86779   6.348   1.700   5.756 -0.5175  0.0203 -0.5007
28734SOL    HW186780   6.278   1.636   5.745 -0.2656 -0.5865  1.2442
28734SOL    HW286781   6.358   1.738   5.669 -1.9598 -0.9623 -1.1419
28735SOL     OW86782   1.519   5.493   8.080 -0.3238  0.4777 -0.7955
28735SOL    HW186783   1.591   5.541   8.122  0.7803 -2.3894  0.9211
28735SOL    HW286784   1.440   5.523   8.126  0.4959 -0.2918  1.2263
28736SOL     OW86785   9.981   9.282   6.675 -0.1304  0.8370 -0.3581
28736SOL    HW186786   9.920   9.247   6.740 -0.4455  1.2350 -0.4396
28736SOL    HW286787  10.024   9.204   6.639  2.0120  0.6969  2.1937
28737SOL     OW86788   2.778   5.445   0.097  0.0564  0.1577 -0.1476
28737SOL    HW186789   2.782   5.531   0.054 -0.1042 -0.9256 -2.5268
28737SOL    HW286790   2.867   5.411   0.090 -0.1820 -0.4133 -0.4951
28738SOL     OW86791   4.868   9.231   3.148  0.2316 -0.3282  0.1656
28738SOL    HW186792   4.950   9.190   3.174 -0.0089 -0.0201  1.4630
28738SOL    HW286793   4.842   9.284   3.223 -2.1921 -1.9908  0.6382
28739SOL     OW86794   8.726   4.778   5.867  0.4016 -0.6581 -0.3810
28739SOL    HW186795   8.813   4.810   5.892 -0.6558  2.4652 -0.3144
28739SOL    HW286796   8.701   4.720   5.939  1.4636  0.3349  0.8553
28740SOL     OW86797   3.421   4.656   3.375 -0.2367  0.3215  0.1900
28740SOL    HW186798   3.424   4.601   3.453  2.8405 -1.6668 -1.0993
28740SOL    HW286799   3.498   4.713   3.383  0.3458 -0.1664 -1.4423
28741SOL     OW86800   5.215   4.553   5.585  0.2476 -0.4689  0.3587
28741SOL    HW186801   5.160   4.512   5.652 -0.0657  0.6586  0.8305
28741SOL    HW286802   5.213   4.647   5.608 -1.5479  0.2731 -2.4301
28742SOL     OW86803   6.056   9.820   1.588 -0.0540  0.4521  0.2358
28742SOL    HW186804   5.986   9.870   1.546 -0.6125  0.5529  1.2453
28742SOL    HW286805   6.123   9.810   1.520 -1.0105  0.4173 -0.7273
28743SOL     OW86806   6.033   9.905   8.215 -0.4768  0.1428  0.0924
28743SOL    HW186807   6.057   9.937   8.302 -3.4319 -0.0567  1.1079
28743SOL    HW286808   6.082   9.823   8.204  0.5858  0.6137  1.1783
28744SOL     OW86809   5.621   6.004   9.659 -0.3374 -0.2803 -0.4115
28744SOL    HW186810   5.582   5.922   9.629 -0.8024 -0.3952  0.4994
28744SOL    HW286811   5.644   6.050   9.578 -2.0146 -0.3831 -0.9751
28745SOL     OW86812   2.712   0.858   3.932 -0.3486 -0.4161  0.2374
28745SOL    HW186813   2.711   0.811   3.848 -1.4861 -2.2893  1.2411
28745SOL    HW286814   2.685   0.947   3.909 -1.4196 -1.0814 -1.3065
28746SOL     OW86815   7.002   5.386   7.351  0.5557  0.7013 -0.2748
28746SOL    HW186816   6.989   5.334   7.430 -1.0775 -0.3036 -1.1416
28746SOL    HW286817   7.043   5.467   7.382  3.3232 -1.0493  1.1254
28747SOL     OW86818   5.113   8.093   7.478 -0.2775 -0.0327  0.3303
28747SOL    HW186819   5.114   8.121   7.570  1.0853 -1.1540  0.6980
28747SOL    HW286820   5.032   8.042   7.470 -0.3035 -0.1111  0.9756
28748SOL     OW86821   5.382   4.532   3.113  0.3498 -0.0202 -0.3424
28748SOL    HW186822   5.444   4.461   3.096 -0.6581 -0.8243 -0.7718
28748SOL    HW286823   5.337   4.545   3.029  0.4031  1.0279 -0.2267
28749SOL     OW86824   6.199   3.200   1.161  0.2646  0.3269 -0.3817
28749SOL    HW186825   6.258   3.219   1.234  1.3861  3.2054 -1.8733
28749SOL    HW286826   6.120   3.250   1.182  0.6190  1.2232 -1.1260
28750SOL     OW86827   8.151   1.127   3.153  0.2014  0.0470  0.2198
28750SOL    HW186828   8.119   1.124   3.063  0.7085  1.2017 -0.0229
28750SOL    HW286829   8.078   1.165   3.202  0.3762  0.6311  0.0478
28751SOL     OW86830   7.089   0.093   0.109  0.0587 -0.1640  0.0644
28751SOL    HW186831   7.096   0.097   0.204  0.0466  1.1107  0.0403
28751SOL    HW286832   7.001   0.060   0.092 -1.0634  2.3062  0.5599
28752SOL     OW86833   5.106   6.754   1.499 -0.3369  0.4426  0.0234
28752SOL    HW186834   5.146   6.785   1.581 -0.0958  2.4222 -0.7898
28752SOL    HW286835   5.026   6.710   1.527  0.3793 -0.0645  1.3969
28753SOL     OW86836   0.278   6.244   0.021 -0.0355 -0.9008  0.2299
28753SOL    HW186837   0.373   6.255   0.020 -0.2378  1.1976 -1.1266
28753SOL    HW286838   0.252   6.263   0.111  0.7745 -1.2417  0.5474
28754SOL     OW86839   0.505   0.237   1.101 -0.3726 -0.5557  0.3843
28754SOL    HW186840   0.489   0.193   1.185 -0.4876 -1.4578 -0.0960
28754SOL    HW286841   0.506   0.166   1.037  2.8314 -0.2747 -0.0196
28755SOL     OW86842   8.766   8.968   3.296 -0.5485 -0.7689  0.4090
28755SOL    HW186843   8.676   8.983   3.265 -0.2523  0.1270 -0.0399
28755SOL    HW286844   8.761   8.885   3.344 -1.0682 -2.1911 -1.9390
28756SOL     OW86845   7.823   7.162   0.994 -0.0251  0.2892  0.4149
28756SOL    HW186846   7.787   7.133   0.910 -0.0047 -0.0940  0.5358
28756SOL    HW286847   7.750   7.153   1.055  0.3294 -0.7405  0.7156
28757SOL     OW86848   0.041   4.367   6.365  0.1975  0.4674  0.0552
28757SOL    HW186849   0.036   4.461   6.352 -0.8041  0.8098  2.3544
28757SOL    HW286850   0.135   4.348   6.369  0.4466  1.7596  1.6222
28758SOL     OW86851   0.398   9.964   0.617  0.3626 -0.1492  0.2118
28758SOL    HW186852   0.478   9.935   0.574  1.1021  0.7501  0.9260
28758SOL    HW286853   0.352  10.016   0.552  2.0354  2.1905  0.7813
28759SOL     OW86854   2.730   0.085   5.707 -0.5542 -0.9827 -0.2562
28759SOL    HW186855   2.726   0.179   5.691 -0.5314 -0.7107  1.1904
28759SOL    HW286856   2.806   0.074   5.763 -1.2014 -1.7207  0.4955
28760SOL     OW86857   0.186   7.060   5.628 -0.5073  0.1456  0.0638
28760SOL    HW186858   0.198   6.974   5.586 -0.2432  0.5716 -0.7533
28760SOL    HW286859   0.143   7.040   5.711  0.2980 -0.8583  0.2636
28761SOL     OW86860   1.385   8.345   7.701 -0.1875 -0.2988  0.1905
28761SOL    HW186861   1.296   8.370   7.724  0.0301  0.6040  0.0765
28761SOL    HW286862   1.374   8.278   7.633 -0.7933  2.0466 -2.1688
28762SOL     OW86863   1.961   5.772   7.263  0.2899  0.1049 -0.1369
28762SOL    HW186864   2.006   5.698   7.222 -0.0490 -0.5453  0.6191
28762SOL    HW286865   1.874   5.737   7.284  0.3149  0.5501  0.7278
28763SOL     OW86866   9.314   5.370   5.763 -0.6663 -0.7922 -0.2081
28763SOL    HW186867   9.391   5.315   5.778  0.8406  1.2623  0.2163
28763SOL    HW286868   9.240   5.310   5.764  0.8419 -2.7524  0.3270
28764SOL     OW86869   6.157   3.870   7.461 -0.0610  0.0237  0.0715
28764SOL    HW186870   6.209   3.891   7.538 -0.7364  0.0704  0.5256
28764SOL    HW286871   6.067   3.889   7.487 -0.2339  0.7357 -0.9620
28765SOL     OW86872   8.719   8.019   8.218 -0.2486 -0.0262  0.6967
28765SOL    HW186873   8.701   8.107   8.184 -0.4762  0.0625  1.0353
28765SOL    HW286874   8.811   8.004   8.197  0.5602  1.3399  2.8653
28766SOL     OW86875   3.703   0.039  -0.024 -0.4807  0.4369 -0.3937
28766SOL    HW186876   3.741  -0.026   0.035 -0.7286 -0.2266 -0.9423
28766SOL    HW286877   3.732   0.123   0.010  1.8406 -0.0409 -1.0494
28767SOL     OW86878   8.239   7.638   1.513 -0.1076 -0.0093  0.0686
28767SOL    HW186879   8.251   7.581   1.589  2.1581 -2.3057 -1.8288
28767SOL    HW286880   8.198   7.583   1.447  0.9004  0.9174 -1.3998
28768SOL     OW86881   0.423   7.398   6.210 -0.2785 -0.3805 -0.6142
28768SOL    HW186882   0.482   7.458   6.163 -0.0638 -0.5992 -0.6322
28768SOL    HW286883   0.465   7.384   6.295 -1.0096  0.5384 -0.0920
28769SOL     OW86884   3.786   9.698   8.755 -0.2968  0.3853  0.0965
28769SOL    HW186885   3.715   9.694   8.820 -1.2834  1.3388 -0.8801
28769SOL    HW286886   3.742   9.688   8.671  0.8225  0.3350 -0.5011
28770SOL     OW86887   6.581   5.585   2.700 -0.5166 -0.1100  0.0033
28770SOL    HW186888   6.664   5.553   2.665 -1.4393 -1.9419 -0.5888
28770SOL    HW286889   6.596   5.679   2.714  1.2481 -0.1528 -1.2782
28771SOL     OW86890   2.194   6.812   4.235 -0.1528  0.0040  0.0472
28771SOL    HW186891   2.189   6.902   4.202  0.9286 -0.0591 -0.3118
28771SOL    HW286892   2.253   6.767   4.175  0.6246 -0.5104  1.1655
28772SOL     OW86893   6.784   0.618   1.640  0.0127 -0.1619 -0.0492
28772SOL    HW186894   6.784   0.654   1.551 -0.2115  0.7871  0.3221
28772SOL    HW286895   6.756   0.691   1.695 -1.1218 -1.1052  0.6597
28773SOL     OW86896   8.776   3.860   6.806  0.2822  0.6354 -0.4155
28773SOL    HW186897   8.724   3.921   6.859 -0.5847  1.4924 -2.1607
28773SOL    HW286898   8.859   3.905   6.791  0.6305  0.2812  0.3910
28774SOL     OW86899   6.887   1.416   3.040  0.3884 -0.1357 -0.9947
28774SOL    HW186900   6.892   1.321   3.049  1.7897  0.0767  1.0871
28774SOL    HW286901   6.925   1.435   2.954 -1.6489 -1.5274 -2.2891
28775SOL     OW86902   8.521   9.901   4.548  0.2131 -0.6627 -0.2975
28775SOL    HW186903   8.598   9.896   4.604  0.7881 -0.2989 -1.0377
28775SOL    HW286904   8.507   9.995   4.535 -0.1807 -0.7343 -0.3934
28776SOL     OW86905   5.905   7.845   3.776 -0.2400 -0.1562  0.3545
28776SOL    HW186906   5.932   7.846   3.868  0.8358 -3.2407  0.1715
28776SOL    HW286907   5.812   7.869   3.778  0.2673  2.0091  1.9418
28777SOL     OW86908   9.850   7.435   5.285  0.0617 -0.5722 -0.4802
28777SOL    HW186909   9.867   7.525   5.313  0.6118 -0.2307 -1.8246
28777SOL    HW286910   9.832   7.387   5.366 -0.4075  0.7772  0.2491
28778SOL     OW86911   1.244   4.284   9.325  0.0387  0.1915 -0.1913
28778SOL    HW186912   1.190   4.255   9.251  0.8753 -2.3212  0.1047
28778SOL    HW286913   1.331   4.298   9.288  0.4506 -1.0337  0.2531
28779SOL     OW86914   8.209   4.178   4.477 -0.1697 -0.3729 -0.0022
28779SOL    HW186915   8.284   4.237   4.474 -0.4229 -0.0656 -0.5161
28779SOL    HW286916   8.223   4.124   4.555 -0.5691  1.1983  1.1983
28780SOL     OW86917   1.694   9.851   2.635 -0.1854  0.2234  0.1106
28780SOL    HW186918   1.649   9.825   2.716  1.1812 -0.3859  0.7140
28780SOL    HW286919   1.659   9.793   2.568  0.2950 -0.8114  0.7388
28781SOL     OW86920   4.046   8.821   3.371 -0.4162 -0.4277  0.1889
28781SOL    HW186921   3.966   8.791   3.329  0.0820 -1.2806 -0.1984
28781SOL    HW286922   4.056   8.912   3.343 -1.7392 -0.0064  1.0280
28782SOL     OW86923   6.006   4.132   9.812  0.5103  0.0696  0.1573
28782SOL    HW186924   6.044   4.044   9.812 -0.9628 -0.5895  0.3439
28782SOL    HW286925   5.993   4.153   9.720  0.4302 -0.0897  0.1333
28783SOL     OW86926   3.040   1.005   9.909  0.0002  0.0725 -0.7550
28783SOL    HW186927   3.074   0.919   9.937  2.7563  1.7276  1.4922
28783SOL    HW286928   2.952   1.008   9.945 -0.6207 -2.2112 -1.8660
28784SOL     OW86929   2.532   8.598   7.862  0.5194  0.0588 -0.2404
28784SOL    HW186930   2.525   8.634   7.951  0.8309  1.3811 -0.7174
28784SOL    HW286931   2.626   8.597   7.845  0.3902  1.6623 -1.2418
28785SOL     OW86932   5.072   4.602   8.660  0.4134  0.2159  0.2540
28785SOL    HW186933   5.072   4.678   8.719  0.3219  1.3057 -1.0928
28785SOL    HW286934   4.981   4.591   8.635  0.4006 -0.4666  0.5883
28786SOL     OW86935   1.440   0.159   7.586  0.0898 -0.4264  0.1298
28786SOL    HW186936   1.516   0.139   7.641  1.6408  2.0950 -0.9106
28786SOL    HW286937   1.448   0.100   7.512  0.6957 -0.6124  0.3350
28787SOL     OW86938   4.259   9.165   9.875 -0.4201  0.4724 -0.5605
28787SOL    HW186939   4.353   9.180   9.866 -0.1616 -1.3019 -1.2934
28787SOL    HW286940   4.228   9.156   9.785 -0.8813 -1.0508 -0.2811
28788SOL     OW86941   1.594   3.975   8.536  0.2694 -0.8979  0.4502
28788SOL    HW186942   1.655   3.958   8.607  2.6403  0.9681 -0.9852
28788SOL    HW286943   1.546   4.053   8.564 -0.4564 -1.5215  0.9662
28789SOL     OW86944   4.578   8.773   0.285  0.1391  0.3770 -0.2973
28789SOL    HW186945   4.671   8.772   0.261 -0.0274  1.4366 -1.0913
28789SOL    HW286946   4.553   8.865   0.279 -0.8389  0.1776  0.4438
28790SOL     OW86947   0.590   9.879   8.149 -0.7031  0.2188  0.1828
28790SOL    HW186948   0.617   9.971   8.139 -0.6243  0.1237 -0.5690
28790SOL    HW286949   0.665   9.837   8.191 -1.7157  0.9969  2.9800
28791SOL     OW86950   2.132   5.582   7.315 -0.2933 -0.2335 -0.0516
28791SOL    HW186951   2.160   5.532   7.238 -0.4918  1.6099 -1.3716
28791SOL    HW286952   2.148   5.523   7.389 -0.1188 -2.0662 -1.4891
28792SOL     OW86953   8.094   3.317   2.470  0.0393 -0.2301 -0.3329
28792SOL    HW186954   8.188   3.320   2.455  0.2055 -1.9192  0.0681
28792SOL    HW286955   8.074   3.397   2.518  1.0747  0.6670 -1.3566
28793SOL     OW86956   3.226   2.365   3.949  0.2799 -0.7198 -0.1046
28793SOL    HW186957   3.315   2.331   3.935  0.1518 -0.5938 -1.3241
28793SOL    HW286958   3.209   2.419   3.872 -0.0790  0.9599  1.0820
28794SOL     OW86959   7.144   2.257   7.015 -0.1677  0.0887 -0.1108
28794SOL    HW186960   7.074   2.197   6.989  2.2253 -2.3278 -1.4594
28794SOL    HW286961   7.123   2.339   6.970 -2.0990 -0.5393 -0.4505
28795SOL     OW86962   5.735   8.892   1.121  0.0985 -0.1802 -0.9141
28795SOL    HW186963   5.692   8.870   1.039  1.9798 -0.9423 -1.7665
28795SOL    HW286964   5.816   8.842   1.120  0.8353  0.8584  0.7845
28796SOL     OW86965   5.985   6.947   0.709  0.0888  0.4854  0.0732
28796SOL    HW186966   5.917   6.963   0.774  0.9028 -0.1910  1.1327
28796SOL    HW286967   6.059   6.915   0.760  0.5310 -0.7152 -1.2587
28797SOL     OW86968   2.093   4.044   8.997 -0.3586  0.4251 -0.1108
28797SOL    HW186969   2.069   3.976   8.935  0.7145 -1.3705  1.3350
28797SOL    HW286970   2.032   4.034   9.070  0.8930 -0.2062  0.8985
28798SOL     OW86971   9.990   4.260   3.916  0.8499  0.0690  0.1792
28798SOL    HW186972   9.980   4.317   3.991  0.4006  2.5127 -1.6159
28798SOL    HW286973   9.903   4.223   3.902  0.5066  0.9531 -0.1058
28799SOL     OW86974   2.239   3.823   4.389  0.2390  0.3570  0.0586
28799SOL    HW186975   2.331   3.826   4.412  0.3709 -0.6871 -0.2703
28799SOL    HW286976   2.198   3.890   4.444  1.4056  1.9494 -0.8978
28800SOL     OW86977   5.378   3.972   4.510  0.0119 -0.2750 -0.1766
28800SOL    HW186978   5.393   3.918   4.433 -2.6919 -1.7409  0.2109
28800SOL    HW286979   5.283   3.968   4.524  0.0403  2.4581  1.4439
28801SOL     OW86980   4.428   8.348   0.959 -0.9614  0.3316 -0.0421
28801SOL    HW186981   4.373   8.371   1.034 -0.8525 -1.2352  0.5458
28801SOL    HW286982   4.419   8.253   0.951 -0.3072  0.3735 -1.5002
28802SOL     OW86983   5.593   4.832   2.251  0.5300  0.3785  0.1297
28802SOL    HW186984   5.521   4.892   2.271  1.5445  1.0459  1.9673
28802SOL    HW286985   5.671   4.886   2.254  1.1568 -0.3246 -1.9151
28803SOL     OW86986   9.450   5.038   4.477  0.6470 -0.4766 -0.0867
28803SOL    HW186987   9.424   5.082   4.396 -0.4797 -2.3658 -0.8204
28803SOL    HW286988   9.442   4.945   4.457  0.3396 -1.0077  2.2142
28804SOL     OW86989   2.223   4.397   0.191  0.5751 -0.0705  0.2515
28804SOL    HW186990   2.273   4.381   0.111 -0.0970 -0.1912 -0.1552
28804SOL    HW286991   2.148   4.339   0.184 -1.3664  2.3596 -0.7313
28805SOL     OW86992   1.769   2.634   9.686  0.4603 -0.5608  0.1684
28805SOL    HW186993   1.713   2.574   9.735  0.0995  0.4240  1.0063
28805SOL    HW286994   1.806   2.581   9.616 -0.3221 -1.6047  0.5222
28806SOL     OW86995   7.905   0.664   9.467  0.0941  0.0326 -0.3217
28806SOL    HW186996   7.894   0.570   9.459 -0.4812 -0.0651  1.2535
28806SOL    HW286997   7.848   0.689   9.540  0.5143  1.5379 -0.4747
28807SOL     OW86998   4.700   7.144   1.368 -0.0580  0.0106  0.2358
28807SOL    HW186999   4.760   7.122   1.439 -1.1501 -1.4593  0.7466
28807SOL    HW287000   4.615   7.154   1.411 -0.7286 -0.8745 -0.8387
28808SOL     OW87001   3.001   4.360  -0.005  0.1037  0.0524  0.3033
28808SOL    HW187002   2.959   4.435  -0.046  1.2852  0.5607 -0.0010
28808SOL    HW287003   2.943   4.338   0.069 -0.7806  0.6110 -0.2030
28809SOL     OW87004   0.365   8.292   2.987 -0.1435 -0.1844 -0.2171
28809SOL    HW187005   0.380   8.278   3.080  0.2794 -0.5842 -0.3440
28809SOL    HW287006   0.451   8.314   2.951 -0.2600 -0.2866 -0.5598
28810SOL     OW87007   7.171   2.072   1.738 -0.1167  0.2054  0.4772
28810SOL    HW187008   7.134   1.988   1.712 -0.4359 -0.0140  1.6084
28810SOL    HW287009   7.108   2.108   1.800  0.0991  1.2118  0.1311
28811SOL     OW87010   8.252   4.689   9.138 -0.3184  0.2005 -0.5094
28811SOL    HW187011   8.305   4.646   9.071  0.6453  0.3227  0.1489
28811SOL    HW287012   8.172   4.638   9.142 -0.3322  0.1111 -1.6473
28812SOL     OW87013   6.770   3.526   4.653 -0.6377 -0.2007  0.5850
28812SOL    HW187014   6.836   3.497   4.590 -1.0504  0.5046 -0.2018
28812SOL    HW287015   6.715   3.449   4.667 -0.7362 -0.2815 -0.1798
28813SOL     OW87016   7.551   5.519   9.046 -0.0293 -0.0557 -0.0264
28813SOL    HW187017   7.485   5.581   9.014 -0.9936 -0.7708  0.4947
28813SOL    HW287018   7.541   5.443   8.989  0.8192  0.0912 -0.3677
28814SOL     OW87019   5.082   4.538   3.589  0.3468 -0.4964  0.1091
28814SOL    HW187020   5.168   4.555   3.628  0.2988 -0.6909  0.3051
28814SOL    HW287021   5.099   4.535   3.495  0.9868 -2.8022  0.2335
28815SOL     OW87022   9.702   5.400   0.503  0.1183 -0.0240  0.1571
28815SOL    HW187023   9.794   5.396   0.528 -0.2688 -2.1437  1.4700
28815SOL    HW287024   9.662   5.325   0.545 -2.0466  0.2740 -1.1939
28816SOL     OW87025   2.828   3.242   7.891 -0.0496 -0.7202  0.0574
28816SOL    HW187026   2.742   3.247   7.850 -1.1388 -2.5851  1.9124
28816SOL    HW287027   2.873   3.170   7.846  0.8475  0.6113 -1.2954
28817SOL     OW87028   9.046   1.322   1.303  0.6006  0.3793  0.2494
28817SOL    HW187029   9.095   1.342   1.223  0.9635 -2.0438 -0.2246
28817SOL    HW287030   8.999   1.402   1.323  0.4333  1.0696 -2.4539
28818SOL     OW87031   8.788   5.602   0.081 -0.1800 -0.0365  0.2088
28818SOL    HW187032   8.879   5.627   0.098  0.3479 -1.5004 -0.2508
28818SOL    HW287033   8.756   5.669   0.021  0.4056  0.8222  0.8287
28819SOL     OW87034   6.852   8.321   3.128 -0.7615 -0.3001 -0.3888
28819SOL    HW187035   6.798   8.399   3.115 -0.1910  0.5004  1.6244
28819SOL    HW287036   6.852   8.307   3.223  3.0069  0.1108 -0.1495
28820SOL     OW87037   0.711   4.960   9.058  0.0988 -0.5058 -0.4538
28820SOL    HW187038   0.707   4.867   9.079  0.8754 -0.2055  1.2030
28820SOL    HW287039   0.621   4.991   9.071 -0.3890 -1.1738 -1.9896
28821SOL     OW87040   9.724   4.696   5.974  0.3372 -0.6232  0.1263
28821SOL    HW187041   9.748   4.607   5.999  1.5476 -0.4453 -0.3501
28821SOL    HW287042   9.727   4.746   6.055  1.3466 -0.6668  0.1244
28822SOL     OW87043   7.660   7.012   5.748  0.5924  0.3887 -0.5311
28822SOL    HW187044   7.748   6.981   5.727  0.2189 -0.4545 -0.9275
28822SOL    HW287045   7.602   6.952   5.701 -0.2045  0.6002  0.1576
28823SOL     OW87046   2.808   7.147   7.091 -0.1790 -0.2187  0.2096
28823SOL    HW187047   2.904   7.154   7.098 -0.0776  0.2721 -1.3793
28823SOL    HW287048   2.783   7.219   7.033 -1.6751  0.4535  1.6119
28824SOL     OW87049   8.918   1.623   1.911 -0.2904  0.5347  0.4543
28824SOL    HW187050   8.986   1.666   1.962 -0.9518  1.4944  0.5775
28824SOL    HW287051   8.927   1.530   1.930  0.9752  0.6491  0.4542
28825SOL     OW87052   2.862   7.647   8.145  0.6070  0.8782 -0.0270
28825SOL    HW187053   2.806   7.693   8.207  1.1766  0.4234  0.8414
28825SOL    HW287054   2.870   7.558   8.180  0.5581  0.4797 -1.0042
28826SOL     OW87055   4.955   4.390   4.909  0.0914 -0.3872 -0.3992
28826SOL    HW187056   5.014   4.315   4.909 -0.0734 -0.5818 -2.4857
28826SOL    HW287057   4.871   4.354   4.882 -0.0630  0.4887 -1.1154
28827SOL     OW87058   4.836   8.563   3.359  0.1681 -0.1085 -0.9219
28827SOL    HW187059   4.931   8.577   3.353  0.5053 -1.5914  0.2395
28827SOL    HW287060   4.815   8.581   3.451 -0.3150 -1.5857 -0.7167
28828SOL     OW87061   0.076   3.313   2.904  0.5146  0.2994 -0.3248
28828SOL    HW187062  -0.014   3.293   2.930  0.7284  1.3879  1.3669
28828SOL    HW287063   0.117   3.228   2.893 -0.3584 -0.2109  0.2299
28829SOL     OW87064   3.325   2.594   4.213  0.8817 -0.2969 -0.1448
28829SOL    HW187065   3.348   2.646   4.135  1.8101  1.8802  1.4542
28829SOL    HW287066   3.264   2.649   4.262  2.4396 -0.3133  1.9784
28830SOL     OW87067   2.123   3.341   8.573  0.1917 -0.2967 -0.3856
28830SOL    HW187068   2.195   3.319   8.514  1.3710  1.4024  0.3500
28830SOL    HW287069   2.131   3.279   8.645  1.3163  0.2520 -0.0182
28831SOL     OW87070   3.319   6.418   5.789 -0.0246  0.4253 -0.0456
28831SOL    HW187071   3.317   6.380   5.701 -0.1590 -0.8293  0.4707
28831SOL    HW287072   3.310   6.512   5.775 -2.1150  0.0946 -1.2705
28832SOL     OW87073   0.117   5.901   8.474  0.0082  0.5102  0.1898
28832SOL    HW187074   0.063   5.979   8.472  0.7829  1.0599 -1.7935
28832SOL    HW287075   0.062   5.833   8.434 -0.6859 -0.0361  1.9642
28833SOL     OW87076   8.250   9.764   7.548  0.0485 -0.0600 -0.1122
28833SOL    HW187077   8.180   9.827   7.568  0.3246  0.3328 -0.3842
28833SOL    HW287078   8.276   9.729   7.633 -0.1324  0.1646  0.0361
28834SOL     OW87079   0.469   1.839   9.340  1.0939 -0.3112 -0.5248
28834SOL    HW187080   0.490   1.767   9.399  0.1111  0.8349  1.2925
28834SOL    HW287081   0.521   1.913   9.373 -1.0400  0.9058  0.2536
28835SOL     OW87082   8.546   8.750   4.300 -0.3115 -0.0354 -0.3698
28835SOL    HW187083   8.549   8.659   4.330 -2.4164 -0.3370 -0.8912
28835SOL    HW287084   8.548   8.802   4.381  0.1223 -0.5726 -0.0307
28836SOL     OW87085   6.459   2.890   9.331  0.3027 -0.0462 -0.5633
28836SOL    HW187086   6.374   2.850   9.351  0.7905 -0.5226  0.6745
28836SOL    HW287087   6.494   2.839   9.258 -1.8331  2.1576 -3.3649
28837SOL     OW87088   6.666   3.320   9.324  0.2049 -0.3316  0.3925
28837SOL    HW187089   6.593   3.274   9.282 -0.3030  1.1980 -0.4695
28837SOL    HW287090   6.728   3.250   9.346  1.2889 -1.1919 -4.4055
28838SOL     OW87091   3.161   7.540   1.086  0.0737  0.0995  0.0777
28838SOL    HW187092   3.195   7.626   1.062  1.6709 -0.6194 -0.3480
28838SOL    HW287093   3.237   7.482   1.084 -1.2323 -1.7048 -1.4774
28839SOL     OW87094   1.129   8.219   1.589 -0.0614  0.1137  0.2144
28839SOL    HW187095   1.085   8.222   1.504 -1.6088  1.8412  0.9945
28839SOL    HW287096   1.197   8.286   1.583 -0.9429  1.0807  0.6853
28840SOL     OW87097   7.917   1.996   4.594 -0.2599  0.3422  0.0235
28840SOL    HW187098   7.833   2.033   4.567 -0.7999 -1.7399 -1.3815
28840SOL    HW287099   7.981   2.065   4.573 -1.2626  0.7560 -1.9892
28841SOL     OW87100   0.614   7.489   8.983  0.4706 -0.3433  0.2098
28841SOL    HW187101   0.590   7.566   8.932  1.1133 -0.7188 -0.7001
28841SOL    HW287102   0.588   7.509   9.072  1.2858  1.2331  0.1168
28842SOL     OW87103   7.256   7.214   2.655  0.1401  0.3752  0.2650
28842SOL    HW187104   7.268   7.153   2.583  0.4195 -0.6102  1.1190
28842SOL    HW287105   7.330   7.197   2.713  0.8593  2.3212 -0.0126
28843SOL     OW87106   5.973   3.545   0.690  1.1261 -0.0652 -0.6206
28843SOL    HW187107   6.027   3.486   0.742  1.1146 -0.6388 -1.2414
28843SOL    HW287108   5.883   3.525   0.717  0.9071 -2.1520 -2.5685
28844SOL     OW87109   5.753   6.695   9.408 -0.1928  0.0886  0.0393
28844SOL    HW187110   5.730   6.616   9.358 -1.8743  1.1271 -0.9296
28844SOL    HW287111   5.683   6.757   9.388  1.6786  2.2618 -0.1676
28845SOL     OW87112   6.812   8.247   8.324 -0.0631  0.0743 -0.0723
28845SOL    HW187113   6.857   8.331   8.315 -0.9111  0.3219 -2.6258
28845SOL    HW287114   6.722   8.264   8.296 -0.6930 -1.3671  0.9106
28846SOL     OW87115   5.456   8.503   2.105  0.0640 -0.3894 -0.2259
28846SOL    HW187116   5.366   8.473   2.092  0.2503 -2.3229  2.3140
28846SOL    HW287117   5.511   8.436   2.064  0.3723 -1.3120  1.5790
28847SOL     OW87118   5.080   0.884   0.369 -0.1188 -0.1939  0.9153
28847SOL    HW187119   5.108   0.851   0.454 -1.1311 -1.2927  0.8507
28847SOL    HW287120   4.991   0.849   0.357 -0.1492  0.2615 -0.4134
28848SOL     OW87121   5.884   3.714   1.073  0.5635  0.5245 -0.5706
28848SOL    HW187122   5.968   3.675   1.048  0.8192  0.9633 -0.3947
28848SOL    HW287123   5.862   3.773   1.001  1.2960  1.7839  0.2132
28849SOL     OW87124   2.232   1.919   9.307 -0.4287 -1.0099 -0.8961
28849SOL    HW187125   2.273   1.989   9.256 -0.3011 -0.7009 -0.3679
28849SOL    HW287126   2.273   1.838   9.274  2.7237 -0.5773  1.4828
28850SOL     OW87127   1.003   2.701   4.306 -0.1646 -0.3146  0.1096
28850SOL    HW187128   0.926   2.749   4.338 -2.3698 -2.7775 -1.1371
28850SOL    HW287129   1.068   2.770   4.288 -2.0308  1.8796  1.1949
28851SOL     OW87130   7.577   0.237   6.156 -0.2294  0.5657 -0.2818
28851SOL    HW187131   7.641   0.257   6.087 -1.7025  0.9311 -1.6179
28851SOL    HW287132   7.541   0.152   6.131 -0.3165  0.3896  0.4204
28852SOL     OW87133   2.147   3.328   2.137 -0.2912  0.8326 -0.2467
28852SOL    HW187134   2.087   3.369   2.200 -0.2678  0.0115  0.3395
28852SOL    HW287135   2.108   3.242   2.120  0.5281  0.4294 -0.1360
28853SOL     OW87136   0.031   3.240   1.265  0.0268  0.0747  0.5138
28853SOL    HW187137   0.072   3.310   1.316  1.8292 -0.3153 -0.3021
28853SOL    HW287138   0.094   3.222   1.195 -1.0751 -1.3556 -0.1608
28854SOL     OW87139   1.805   8.111   4.658  0.2896 -0.2697 -0.4066
28854SOL    HW187140   1.862   8.035   4.643  0.2367 -0.4364  0.1772
28854SOL    HW287141   1.716   8.075   4.655 -0.0432  0.4939 -4.3887
28855SOL     OW87142   7.162   1.371   4.083 -0.9778  0.2175 -0.3532
28855SOL    HW187143   7.071   1.402   4.083 -0.6579  1.5132 -3.4862
28855SOL    HW287144   7.160   1.288   4.035 -0.7050 -0.6591  1.0997
28856SOL     OW87145   8.405   3.058   2.308 -0.2047 -0.2041 -0.3459
28856SOL    HW187146   8.482   3.021   2.351  0.4193  0.5106 -0.8118
28856SOL    HW287147   8.348   2.984   2.292  0.6450 -0.8420 -0.5076
28857SOL     OW87148   5.678   4.387   4.861  0.5368 -0.3255  0.1039
28857SOL    HW187149   5.605   4.440   4.894  1.4836  1.5117 -0.6233
28857SOL    HW287150   5.638   4.304   4.836 -1.0978  0.1998  0.8497
28858SOL     OW87151   9.882   1.620   3.214  0.5320  0.0607  0.0975
28858SOL    HW187152   9.914   1.544   3.166 -0.8604 -0.8910  0.5846
28858SOL    HW287153   9.852   1.585   3.298  1.0110  1.3593  0.8471
28859SOL     OW87154   2.477   5.029   9.958  0.4321 -0.3885  0.1028
28859SOL    HW187155   2.560   4.995   9.989  1.1572  1.0468 -0.1482
28859SOL    HW287156   2.488   5.124   9.960 -1.2802 -0.1589  0.2623
28860SOL     OW87157   4.200   9.245   5.063  0.3267 -0.3402  0.3432
28860SOL    HW187158   4.230   9.236   4.972  1.5166  1.4955  0.4939
28860SOL    HW287159   4.137   9.317   5.060 -0.6130 -1.1197  0.7978
28861SOL     OW87160   3.476   6.805   8.120 -0.7082 -0.3486  0.2320
28861SOL    HW187161   3.447   6.816   8.030 -0.1168 -0.1299  0.0635
28861SOL    HW287162   3.434   6.877   8.168 -1.0332 -0.4735  0.1354
28862SOL     OW87163   4.690   9.066   8.234  0.3007 -0.1871  0.5725
28862SOL    HW187164   4.651   9.101   8.154  0.9485 -0.5639  0.0832
28862SOL    HW287165   4.747   8.995   8.204  1.5955  0.5358  1.2286
28863SOL     OW87166   1.925   7.618   5.559  0.1388 -0.3877 -0.2547
28863SOL    HW187167   1.896   7.527   5.561 -0.8194 -0.0941  2.2350
28863SOL    HW287168   2.012   7.617   5.598  1.0806 -0.4524 -2.2068
28864SOL     OW87169   8.973   1.942   0.200 -0.1906 -0.3472 -0.2488
28864SOL    HW187170   8.970   1.958   0.294  0.1492 -1.8870  0.0546
28864SOL    HW287171   8.892   1.896   0.180 -0.6276  0.6539 -0.8730
28865SOL     OW87172   3.956   2.411   6.565 -0.6741  0.3140 -0.8030
28865SOL    HW187173   3.977   2.500   6.591 -1.2462 -0.3342  2.3711
28865SOL    HW287174   4.041   2.366   6.563 -0.5864  0.4384 -0.1204
28866SOL     OW87175   1.013   3.706   8.957 -0.2023  0.0305  0.0543
28866SOL    HW187176   1.054   3.720   9.042  1.6045 -2.9118 -0.1826
28866SOL    HW287177   1.078   3.736   8.893 -0.1128 -0.9094 -0.3069
28867SOL     OW87178   3.609   0.540   7.744 -0.3091  0.1530  0.1330
28867SOL    HW187179   3.625   0.497   7.660 -0.8074 -0.8372  0.5219
28867SOL    HW287180   3.613   0.634   7.725 -0.3759 -0.0590 -0.9835
28868SOL     OW87181   0.822   6.326   3.845  0.5390 -0.3756  0.0937
28868SOL    HW187182   0.729   6.311   3.827  0.3612  0.0940  0.5915
28868SOL    HW287183   0.828   6.419   3.867  0.9061 -0.6759  1.3685
28869SOL     OW87184   0.595   2.669   6.643  0.0030  0.4044 -0.5473
28869SOL    HW187185   0.559   2.757   6.638 -1.7088 -0.2773 -0.7910
28869SOL    HW287186   0.590   2.646   6.736 -2.2587 -0.4630 -0.8224
28870SOL     OW87187   9.929   1.188   0.304  0.1549  0.1616  0.3663
28870SOL    HW187188   9.937   1.235   0.387  0.2511 -0.1037  0.5081
28870SOL    HW287189   9.856   1.128   0.317  0.4596 -0.2050  0.4182
28871SOL     OW87190   0.720   8.585   1.048  0.2585 -0.2376  0.3747
28871SOL    HW187191   0.807   8.558   1.017  0.1804 -2.7124  1.9687
28871SOL    HW287192   0.663   8.576   0.972  1.3360  1.3260 -0.6651
28872SOL     OW87193   3.589   2.833   7.958 -0.0899  0.4329  0.0126
28872SOL    HW187194   3.656   2.766   7.967 -0.0809  0.3394 -0.7009
28872SOL    HW287195   3.603   2.891   8.033  0.9287  0.5358 -0.2444
28873SOL     OW87196   1.185   3.428   9.579 -0.6783  0.2081  0.1958
28873SOL    HW187197   1.197   3.352   9.635 -1.0696 -0.3031 -0.4092
28873SOL    HW287198   1.105   3.410   9.529 -0.2504  0.5697 -0.6493
28874SOL     OW87199   0.959   5.408   6.902  0.9157 -0.2132 -0.2440
28874SOL    HW187200   1.039   5.450   6.871  1.6654  0.9488  2.9881
28874SOL    HW287201   0.896   5.479   6.910 -0.0297 -0.8860 -1.2574
28875SOL     OW87202   0.308   4.205   1.215  0.2331 -0.5840 -0.3223
28875SOL    HW187203   0.395   4.202   1.255 -0.4198 -3.2594  1.0972
28875SOL    HW287204   0.320   4.163   1.130  0.3420 -0.8487 -0.1762
28876SOL     OW87205   0.649   9.949   9.599  0.2859  0.0527  0.0710
28876SOL    HW187206   0.629  10.042   9.586 -1.3155 -0.0311  1.7092
28876SOL    HW287207   0.586   9.903   9.543 -0.8772 -0.0811  1.4367
28877SOL     OW87208   4.464   6.914   8.306  0.1029  0.7038 -0.8112
28877SOL    HW187209   4.427   6.958   8.383  2.3457 -0.4695  1.0786
28877SOL    HW287210   4.494   6.986   8.250 -0.3370  1.5949  0.0561
28878SOL     OW87211   2.571   0.186   3.652  0.3960  0.5678 -0.0658
28878SOL    HW187212   2.536   0.104   3.685  0.5821  0.8505  0.8468
28878SOL    HW287213   2.665   0.183   3.673  0.4565  0.9013 -0.2749
28879SOL     OW87214   3.352   6.088   3.942  0.0702 -0.0889 -0.7904
28879SOL    HW187215   3.262   6.086   3.908 -0.1634  0.5871 -0.2241
28879SOL    HW287216   3.346   6.141   4.022  0.6336 -1.4697  0.2212
28880SOL     OW87217   6.300   4.183   1.659 -0.2998  0.5252 -0.4546
28880SOL    HW187218   6.273   4.181   1.750  2.1261 -0.1827  0.3122
28880SOL    HW287219   6.336   4.096   1.642  1.2724  1.3157 -1.4050
28881SOL     OW87220   1.036   6.531   6.747  0.0215 -0.0678  0.4745
28881SOL    HW187221   1.119   6.488   6.727  0.5154 -0.9162  3.7405
28881SOL    HW287222   1.018   6.585   6.670  2.2855 -1.7583 -1.4085
28882SOL     OW87223   0.129   3.479   9.599  0.1189  0.4533 -0.1970
28882SOL    HW187224   0.195   3.495   9.531  0.6495  2.5532  0.7067
28882SOL    HW287225   0.181   3.462   9.678 -0.4235  1.1421  0.3171
28883SOL     OW87226   3.320   6.281   5.527  0.3910 -0.6581 -0.0150
28883SOL    HW187227   3.379   6.330   5.469  2.3650 -2.9618 -0.0883
28883SOL    HW287228   3.264   6.232   5.468 -1.5498  1.3352  0.0601
28884SOL     OW87229   0.763   2.431   4.947 -0.1565 -0.4965  0.0012
28884SOL    HW187230   0.713   2.449   4.868 -1.0308  1.3752  0.9049
28884SOL    HW287231   0.697   2.427   5.017  0.7482 -0.0511  0.9139
28885SOL     OW87232   3.529   9.035   3.345  0.0957 -0.3760  0.2735
28885SOL    HW187233   3.450   9.060   3.297 -1.1988 -2.7739  1.0123
28885SOL    HW287234   3.568   8.965   3.292  0.6827 -0.5364  0.9031
28886SOL     OW87235   4.573   3.163   8.549  0.2853 -0.0108 -0.6909
28886SOL    HW187236   4.496   3.110   8.530  0.0830  0.4351 -1.1430
28886SOL    HW287237   4.626   3.109   8.607  0.2867 -0.8797 -1.4847
28887SOL     OW87238   5.025   6.575   8.973 -0.4771  0.7423 -0.3405
28887SOL    HW187239   5.081   6.512   8.929 -2.3931 -0.6960 -0.8622
28887SOL    HW287240   5.075   6.602   9.050  1.0523 -0.1739 -0.9667
28888SOL     OW87241   8.699   8.222   0.878 -0.2053 -0.6137  0.1050
28888SOL    HW187242   8.633   8.260   0.937 -0.8442 -2.0909  0.3945
28888SOL    HW287243   8.773   8.202   0.935  1.2161  2.4277 -0.4541
28889SOL     OW87244   9.329   4.759   7.877  0.5093  0.3474 -0.3455
28889SOL    HW187245   9.324   4.809   7.958  0.8085 -2.2932  1.4272
28889SOL    HW287246   9.423   4.751   7.860  0.5383 -0.8386  0.2608
28890SOL     OW87247   9.029  -0.010   4.935  0.0062  0.0525  0.0223
28890SOL    HW187248   9.021  -0.051   4.849 -1.0632  0.2289  0.0233
28890SOL    HW287249   9.090   0.062   4.921 -0.5104  0.3665 -0.7161
28891SOL     OW87250   5.760   9.191   3.800  0.2738 -0.3473 -0.3721
28891SOL    HW187251   5.719   9.156   3.879  0.1609  1.7919  0.5902
28891SOL    HW287252   5.850   9.213   3.826  0.8755 -1.4279 -1.4114
28892SOL     OW87253   6.252   0.379   3.834  0.3476  0.1375 -0.0955
28892SOL    HW187254   6.245   0.474   3.847  2.1633  0.4646 -1.1751
28892SOL    HW287255   6.334   0.367   3.787  2.1430 -2.2968  3.2500
28893SOL     OW87256   5.712   8.319   0.229 -0.4599  0.2395 -0.3204
28893SOL    HW187257   5.751   8.375   0.162 -0.6136  0.0951 -0.5341
28893SOL    HW287258   5.786   8.286   0.279 -0.2491 -0.4837 -1.0752
28894SOL     OW87259   3.414   7.443   4.225 -0.3711 -0.8944 -0.3977
28894SOL    HW187260   3.493   7.392   4.241 -0.3229 -0.3275  1.4386
28894SOL    HW287261   3.373   7.452   4.311 -1.6099  0.1642 -1.0501
28895SOL     OW87262   7.774   7.897   6.927 -0.4533  0.9266  0.6022
28895SOL    HW187263   7.848   7.840   6.904  2.1054  2.9680  2.9600
28895SOL    HW287264   7.751   7.941   6.846  0.2914 -0.4428 -0.3935
28896SOL     OW87265   8.204   0.184   1.584 -0.2175  0.1612  0.0212
28896SOL    HW187266   8.111   0.183   1.559 -0.6471 -1.4378  1.5285
28896SOL    HW287267   8.237   0.099   1.558  0.6779  0.5021  0.0280
28897SOL     OW87268   7.616   0.100   9.393  0.3616 -0.1763 -0.0419
28897SOL    HW187269   7.566   0.169   9.437  0.5344 -0.5463  0.7514
28897SOL    HW287270   7.689   0.081   9.452  2.4277  1.4791 -1.8773
28898SOL     OW87271   0.168   3.964   4.734  0.0086  0.2565  0.2033
28898SOL    HW187272   0.222   4.042   4.721 -0.0189  0.1748 -0.4364
28898SOL    HW287273   0.108   3.988   4.804 -0.2434  0.9382 -0.2332
28899SOL     OW87274   2.085   2.690   7.683 -0.3604  0.5716  0.2243
28899SOL    HW187275   2.121   2.620   7.628 -0.9281  1.8420 -1.8697
28899SOL    HW287276   2.154   2.757   7.684  0.6239 -0.3287  3.0873
28900SOL     OW87277   3.403   4.387   7.196 -0.1360  0.5986  0.3979
28900SOL    HW187278   3.487   4.344   7.183  0.2696  1.7180 -0.9977
28900SOL    HW287279   3.417   4.445   7.270  0.5766  1.3055 -0.2617
28901SOL     OW87280   2.858   3.276   4.046  0.0423  0.2217 -0.5026
28901SOL    HW187281   2.876   3.314   4.132 -2.5662  1.4497 -0.4082
28901SOL    HW287282   2.943   3.278   4.001  0.9404  1.9269  1.1306
28902SOL     OW87283   8.267   3.076   4.697 -0.1035 -0.0969  0.2037
28902SOL    HW187284   8.223   3.016   4.757  1.0001  0.4774  1.6590
28902SOL    HW287285   8.229   3.162   4.717 -0.8552 -0.1237 -1.0561
28903SOL     OW87286   2.452   1.278   2.588 -0.1629 -0.5627 -0.0215
28903SOL    HW187287   2.499   1.306   2.509 -0.9435  1.5392  0.2018
28903SOL    HW287288   2.360   1.294   2.568 -0.5534 -1.7940  0.6645
28904SOL     OW87289   8.876   4.079   6.345  0.3526 -0.1200  0.3259
28904SOL    HW187290   8.932   4.036   6.410  0.2251  0.5201  0.8744
28904SOL    HW287291   8.817   4.133   6.397  0.0473  0.1690 -0.3142
28905SOL     OW87292   2.723   3.145   8.564  0.4773  0.0540  0.3617
28905SOL    HW187293   2.634   3.128   8.593 -0.3767  2.2918 -0.7457
28905SOL    HW287294   2.765   3.188   8.638 -0.7743  2.9856 -0.4931
28906SOL     OW87295   4.892   9.614   2.299 -0.0328  0.5197  0.2668
28906SOL    HW187296   4.941   9.615   2.381 -1.7540 -1.1707  1.3897
28906SOL    HW287297   4.805   9.646   2.322 -0.1509  1.3322 -1.2105
28907SOL     OW87298   3.539   6.184   6.007 -0.9820 -0.0676 -0.3179
28907SOL    HW187299   3.602   6.190   5.935  0.2545  0.9740  0.8073
28907SOL    HW287300   3.475   6.119   5.977  1.7922 -2.8553 -0.6457
28908SOL     OW87301   5.313   3.081   5.205 -0.0032 -0.5928  0.4206
28908SOL    HW187302   5.399   3.053   5.174  0.4174  0.0231  0.9983
28908SOL    HW287303   5.252   3.016   5.169  0.4625 -0.0030 -1.5503
28909SOL     OW87304   7.205   4.350   7.218 -0.0153 -0.3629  0.1851
28909SOL    HW187305   7.135   4.414   7.227  0.0273 -0.1323 -0.9397
28909SOL    HW287306   7.281   4.390   7.260 -0.5116 -0.5564  1.2902
28910SOL     OW87307   5.471   8.489   3.071  0.0138  0.3916 -0.2943
28910SOL    HW187308   5.435   8.457   2.988  0.6626 -0.3859 -0.2895
28910SOL    HW287309   5.419   8.567   3.091 -0.7610  0.0641 -0.9595
28911SOL     OW87310   9.636   4.312   8.281  0.3630  0.0198 -0.0776
28911SOL    HW187311   9.671   4.229   8.314  0.2937  0.2911  0.6957
28911SOL    HW287312   9.700   4.342   8.217 -0.4361 -1.4740 -1.6781
28912SOL     OW87313   9.635   2.596   6.810  0.1609 -0.4124  0.2440
28912SOL    HW187314   9.595   2.518   6.848 -0.6113 -0.1664 -0.0427
28912SOL    HW287315   9.582   2.668   6.843 -0.5061 -0.1809 -1.2642
28913SOL     OW87316   5.555   7.894   7.035 -0.4339  0.2522  0.1100
28913SOL    HW187317   5.619   7.931   7.095 -1.2818  0.2631  1.0441
28913SOL    HW287318   5.476   7.946   7.048 -1.3353 -1.1820  0.6999
28914SOL     OW87319  -0.026   9.278   3.138  0.0061  0.5462  0.2890
28914SOL    HW187320   0.011   9.333   3.208  1.6297  0.1858 -0.2326
28914SOL    HW287321   0.016   9.193   3.150 -0.5763  0.1524 -0.4212
28915SOL     OW87322   3.234   0.956   2.278  0.3681 -0.0607 -0.1361
28915SOL    HW187323   3.254   1.010   2.355  2.1372  0.2505 -0.7638
28915SOL    HW287324   3.153   0.992   2.244 -0.7571 -0.5662  1.8796
28916SOL     OW87325   1.720   9.286   8.954  0.6177 -0.5659 -0.1105
28916SOL    HW187326   1.747   9.212   8.900 -0.0976  0.3801 -1.8419
28916SOL    HW287327   1.630   9.304   8.926 -0.7983 -1.6148  3.2145
28917SOL     OW87328   5.483   5.981   2.971  0.3073 -0.3227  0.2393
28917SOL    HW187329   5.514   6.039   3.040 -0.3229 -0.4278  0.6091
28917SOL    HW287330   5.549   5.991   2.901  0.2842  0.7348  0.3426
28918SOL     OW87331   9.736   5.064   3.075  0.3825 -0.2542 -0.5911
28918SOL    HW187332   9.781   5.028   2.999 -1.9585 -1.0328 -1.7229
28918SOL    HW287333   9.649   5.024   3.072 -0.7797  1.9352  0.8110
28919SOL     OW87334   0.297   4.009   7.635  0.1523  0.2427  0.0134
28919SOL    HW187335   0.292   3.930   7.581 -2.2546  0.4609 -0.2141
28919SOL    HW287336   0.283   3.978   7.724 -1.4980  0.4062 -0.1451
28920SOL     OW87337   9.628   3.429   9.544  0.1809  0.3266  0.1703
28920SOL    HW187338   9.699   3.426   9.479 -0.1456  0.2066 -0.1880
28920SOL    HW287339   9.672   3.422   9.628  0.6139  0.4756 -0.0398
28921SOL     OW87340   1.340   0.424   2.274 -0.0663 -0.0054  0.0044
28921SOL    HW187341   1.401   0.498   2.274  0.3455 -0.3344  0.9506
28921SOL    HW287342   1.381   0.359   2.216  0.7617 -0.4267  1.0263
28922SOL     OW87343   1.699   4.800   4.942 -0.3557 -0.5628  0.3542
28922SOL    HW187344   1.773   4.742   4.962 -0.6396 -0.7566  0.8565
28922SOL    HW287345   1.679   4.843   5.025  1.3056  1.9860 -0.4521
28923SOL     OW87346   6.825   2.872   4.042 -0.0167  0.2337  0.1626
28923SOL    HW187347   6.792   2.839   3.959  2.0281 -1.5430 -0.0377
28923SOL    HW287348   6.775   2.825   4.109  0.1037 -0.2603 -0.0930
28924SOL     OW87349   2.007   0.908   4.398 -0.2718  0.7427 -0.0175
28924SOL    HW187350   2.064   0.851   4.450 -2.6831 -1.2114  0.6950
28924SOL    HW287351   1.989   0.983   4.455 -0.3682  0.1636  0.7268
28925SOL     OW87352   7.576   1.574   4.746  0.2075  0.1040  0.2584
28925SOL    HW187353   7.643   1.633   4.713  1.1099 -0.7966  0.4067
28925SOL    HW287354   7.528   1.545   4.668  0.7839 -0.1817  0.0094
28926SOL     OW87355   6.481   0.418   7.014  0.0221  0.8103  0.0932
28926SOL    HW187356   6.523   0.335   7.038 -1.1486 -0.2762 -1.4215
28926SOL    HW287357   6.531   0.485   7.061  1.6249 -0.6591  0.5766
28927SOL     OW87358   3.268   1.525   2.305 -0.7399  0.1440  0.1921
28927SOL    HW187359   3.332   1.484   2.247 -0.6400 -1.2699  1.2448
28927SOL    HW287360   3.316   1.597   2.347 -0.8444  1.2424 -1.4937
28928SOL     OW87361   0.866   1.156   4.542 -0.0616  0.9597  0.2038
28928SOL    HW187362   0.901   1.116   4.462 -0.6311  1.0629 -0.1063
28928SOL    HW287363   0.773   1.171   4.522 -0.2394  0.8499  0.9407
28929SOL     OW87364   1.205   5.794   0.076  0.5275  0.0097  0.4969
28929SOL    HW187365   1.245   5.773  -0.008  3.0978 -1.6158  1.9934
28929SOL    HW287366   1.143   5.723   0.092 -0.5847  0.7578 -0.3276
28930SOL     OW87367   4.814   3.042   8.209 -0.5225  0.2730  0.0302
28930SOL    HW187368   4.776   2.965   8.250  0.8210  0.4001  1.6211
28930SOL    HW287369   4.880   3.008   8.148 -1.9438  0.1122 -1.4767
28931SOL     OW87370   1.560   5.554   1.904  0.4766  0.0714 -1.4147
28931SOL    HW187371   1.643   5.559   1.950 -0.7803 -1.4627  1.2707
28931SOL    HW287372   1.500   5.608   1.957 -0.7203 -0.5656 -2.0802
28932SOL     OW87373   7.552   9.829   8.195  0.1588  0.1002 -0.3951
28932SOL    HW187374   7.515   9.835   8.283  0.7846 -1.7739  0.0453
28932SOL    HW287375   7.478   9.848   8.137 -1.0741 -1.6150  0.5081
28933SOL     OW87376   4.873   2.532   2.474 -0.2191 -0.0563  0.2852
28933SOL    HW187377   4.926   2.552   2.397  0.9094 -0.3039  0.9673
28933SOL    HW287378   4.787   2.507   2.439  0.6576 -1.4703 -0.9797
28934SOL     OW87379   4.478   6.932   2.911 -0.5674  0.0379  0.2611
28934SOL    HW187380   4.529   6.861   2.872 -2.2716 -2.4470  2.2551
28934SOL    HW287381   4.529   6.959   2.987 -1.1948 -1.0653  1.1072
28935SOL     OW87382   2.682   8.094   3.927 -0.0455 -0.3138 -0.4916
28935SOL    HW187383   2.674   8.033   4.000  0.9890 -0.2510 -0.3228
28935SOL    HW287384   2.593   8.128   3.915  0.1180  1.3043  2.1140
28936SOL     OW87385   6.690   7.036   6.504 -0.3775  0.2885 -0.0860
28936SOL    HW187386   6.704   7.119   6.458 -2.6228  0.3071 -0.8997
28936SOL    HW287387   6.650   6.979   6.438 -1.8512 -0.3563  1.2774
28937SOL     OW87388   2.442   1.785   6.271  0.5266  0.5019 -0.6366
28937SOL    HW187389   2.524   1.835   6.272  0.5425  0.4900 -1.2209
28937SOL    HW287390   2.442   1.738   6.354  1.4092  0.0283 -0.8928
28938SOL     OW87391   7.423   2.945   4.971 -0.0243  0.2205 -0.2646
28938SOL    HW187392   7.396   2.864   5.014 -0.1114  0.1963 -0.3632
28938SOL    HW287393   7.353   3.007   4.992  0.4506  0.5081  0.5039
28939SOL     OW87394   0.309   8.882   3.633  0.0186 -0.2704 -0.0572
28939SOL    HW187395   0.251   8.821   3.587 -1.0722 -0.2817  1.2468
28939SOL    HW287396   0.286   8.870   3.726 -0.3130  2.1974  0.2451
28940SOL     OW87397   8.468   7.887   2.326  0.1579  0.2958 -0.4984
28940SOL    HW187398   8.458   7.982   2.330  0.0339  0.2919 -0.7509
28940SOL    HW287399   8.528   7.867   2.398  0.2135  0.5685 -0.4665
28941SOL     OW87400   3.708   7.917   6.730  0.1408 -0.3940 -0.2921
28941SOL    HW187401   3.669   7.940   6.646 -0.6790 -0.6424  0.0128
28941SOL    HW287402   3.646   7.856   6.770 -0.0842  0.6498  1.0213
28942SOL     OW87403   2.059   9.137   9.079 -0.0058 -0.1193  0.1580
28942SOL    HW187404   2.018   9.051   9.087 -0.4298  0.0345 -0.3267
28942SOL    HW287405   2.153   9.120   9.088  0.0842 -0.9068 -1.7578
28943SOL     OW87406   1.362   6.695   6.113 -0.3787 -0.1820 -0.0191
28943SOL    HW187407   1.332   6.784   6.128  1.2520  0.5881 -1.0837
28943SOL    HW287408   1.433   6.682   6.176 -1.2315 -1.1012  0.7960
28944SOL     OW87409   6.554   5.834   4.090 -0.3922 -0.7257 -0.0729
28944SOL    HW187410   6.548   5.912   4.146 -1.6165  0.6521 -2.0104
28944SOL    HW287411   6.497   5.770   4.132 -0.7016  0.0048  0.6575
28945SOL     OW87412   9.238   6.742   3.923 -0.5123 -0.7431 -0.1396
28945SOL    HW187413   9.242   6.837   3.917  0.3206 -0.6338  1.5501
28945SOL    HW287414   9.163   6.717   3.870 -0.0462  0.7474 -1.5461
28946SOL     OW87415   1.186   7.062   4.743 -1.0956 -0.3862 -0.2315
28946SOL    HW187416   1.131   7.107   4.806  0.7852  0.5525  0.8451
28946SOL    HW287417   1.204   7.128   4.675  0.6477  0.1759  0.7069
28947SOL     OW87418   6.288   4.847   1.511 -0.0901 -0.0030 -0.7216
28947SOL    HW187419   6.303   4.768   1.564  2.6626  0.4656 -0.6499
28947SOL    HW287420   6.196   4.869   1.526 -0.1757 -1.5621  1.5647
28948SOL     OW87421   8.169   1.240   9.815 -0.6916  0.1770 -0.1210
28948SOL    HW187422   8.074   1.254   9.814 -0.9371 -1.3367 -0.9848
28948SOL    HW287423   8.182   1.158   9.766  1.0157  0.0875  0.4145
28949SOL     OW87424   6.071   5.547   5.877 -0.1643 -0.1555  0.0746
28949SOL    HW187425   6.167   5.550   5.874 -0.1141  0.8235  1.4906
28949SOL    HW287426   6.047   5.628   5.922 -1.6828 -0.2234 -0.5847
28950SOL     OW87427   7.530   3.049   2.924  0.0310  0.6158 -0.1662
28950SOL    HW187428   7.608   3.066   2.872  0.3695  0.2995  0.2342
28950SOL    HW287429   7.556   2.982   2.986 -0.7124  0.1142 -0.3779
28951SOL     OW87430   8.551   2.966   6.811 -0.1752 -0.0689 -0.4185
28951SOL    HW187431   8.569   3.059   6.800 -3.2968  0.6118 -0.4881
28951SOL    HW287432   8.606   2.923   6.745  1.3251  1.6671 -0.3825
28952SOL     OW87433   6.700   1.420   7.861 -0.0808 -0.5709  0.4312
28952SOL    HW187434   6.788   1.384   7.866  0.0518 -0.2633  0.3208
28952SOL    HW287435   6.689   1.469   7.943  0.1891  0.1469  0.0476
28953SOL     OW87436   8.161   4.995   8.319  0.5276 -0.6252  0.1670
28953SOL    HW187437   8.180   5.054   8.246 -0.8592 -0.8414 -0.4072
28953SOL    HW287438   8.234   5.007   8.380  0.0451  2.0396  0.3122
28954SOL     OW87439   3.068   4.871   6.667 -0.7719  0.2090 -0.6271
28954SOL    HW187440   3.020   4.790   6.679  0.9000 -0.6837  0.4685
28954SOL    HW287441   3.064   4.914   6.753 -0.4125  0.5824 -0.7905
28955SOL     OW87442   6.563   1.546   8.978  0.4553  0.4093  0.2893
28955SOL    HW187443   6.651   1.575   8.951  0.9094 -0.4870  0.7514
28955SOL    HW287444   6.566   1.548   9.074  0.6872 -1.5782  0.3772
28956SOL     OW87445   9.239   9.458   3.741  0.7702  0.0623  1.1374
28956SOL    HW187446   9.281   9.395   3.683  0.9315  1.1278  0.0735
28956SOL    HW287447   9.188   9.404   3.802  1.6418 -1.1213  0.8474
28957SOL     OW87448   9.903   3.028   2.714 -0.0242 -0.1392  0.4504
28957SOL    HW187449   9.911   2.956   2.651 -0.6010  0.5366 -0.4151
28957SOL    HW287450   9.911   3.107   2.662 -2.4347  0.4818  0.8735
28958SOL     OW87451   7.562   7.201   7.429  0.5040 -0.7050  0.6754
28958SOL    HW187452   7.535   7.265   7.495  0.7204 -1.0359  1.0853
28958SOL    HW287453   7.568   7.252   7.348 -2.8929 -0.8691  0.1642
28959SOL     OW87454   5.031   4.661   4.843  0.3729 -0.1275  0.8159
28959SOL    HW187455   4.977   4.588   4.875 -2.3860  1.4561  0.1306
28959SOL    HW287456   5.047   4.714   4.921 -2.2229  1.2208  0.5357
28960SOL     OW87457   7.058   6.040   0.512 -0.0561  0.4914  0.1116
28960SOL    HW187458   7.057   6.132   0.539  1.5116  0.2916  0.9381
28960SOL    HW287459   7.094   5.993   0.586  0.1101 -0.6795 -0.6812
28961SOL     OW87460   6.888   4.914   8.116 -0.4428 -0.5837 -0.3875
28961SOL    HW187461   6.972   4.941   8.080  0.1947 -1.4433  0.4156
28961SOL    HW287462   6.842   4.996   8.133 -0.0117 -0.1227 -1.3786
28962SOL     OW87463   9.239   2.874   0.073  0.6265 -0.4859 -0.4700
28962SOL    HW187464   9.168   2.855   0.012  1.7333 -2.8738 -1.1804
28962SOL    HW287465   9.235   2.804   0.138  0.7119  0.8724  1.0670
28963SOL     OW87466   5.982   8.640   9.405 -0.1354  0.0143  0.0084
28963SOL    HW187467   5.974   8.728   9.440 -0.9967  0.3506 -0.9638
28963SOL    HW287468   5.998   8.584   9.481 -0.5972  0.8820  0.7555
28964SOL     OW87469   8.034   7.172   7.477  0.2595 -0.5854 -0.2376
28964SOL    HW187470   7.980   7.189   7.400  0.9095 -0.1479 -0.6139
28964SOL    HW287471   8.113   7.224   7.462  0.5618 -0.8073  0.5417
28965SOL     OW87472   6.624   1.464   0.963  0.0147  0.2737 -0.1189
28965SOL    HW187473   6.570   1.499   0.893 -1.6003  0.7688  1.3181
28965SOL    HW287474   6.595   1.373   0.974 -0.3664  0.4658  0.4944
28966SOL     OW87475   5.755   0.929   0.823  0.0595 -0.1697  0.1985
28966SOL    HW187476   5.838   0.881   0.829  0.9002  1.2569  0.6960
28966SOL    HW287477   5.703   0.880   0.759  1.7256 -0.4819 -0.9911
28967SOL     OW87478   2.761   3.837   8.009 -0.5245  0.0589 -0.6826
28967SOL    HW187479   2.727   3.863   7.924 -1.1248  0.5869 -0.2871
28967SOL    HW287480   2.687   3.799   8.055  0.1482 -1.6257 -0.9372
28968SOL     OW87481   1.151   6.677   2.128  0.2286  0.0521 -0.2113
28968SOL    HW187482   1.096   6.607   2.092  1.5700 -1.3312  0.3395
28968SOL    HW287483   1.183   6.724   2.051 -1.6225  0.8388 -0.5435
28969SOL     OW87484   9.290   1.067   6.185 -0.0966  0.3808  0.1694
28969SOL    HW187485   9.286   1.151   6.139  0.4643 -0.0990 -0.7844
28969SOL    HW287486   9.261   1.087   6.274  0.4349  1.6713  0.0749
28970SOL     OW87487   0.948   1.938   7.803 -0.1190  0.1869 -0.8918
28970SOL    HW187488   0.958   2.031   7.787  1.3338  0.3707  0.7415
28970SOL    HW287489   0.959   1.929   7.898 -1.1641 -1.5492 -0.8825
28971SOL     OW87490   6.703   1.551   9.887 -0.1456 -0.0427  0.0661
28971SOL    HW187491   6.633   1.485   9.888  1.3956 -1.7550  0.1827
28971SOL    HW287492   6.776   1.510   9.934  0.9777  1.6648 -0.0751
28972SOL     OW87493   3.440   8.082   9.967 -0.6010  0.0730 -0.0077
28972SOL    HW187494   3.475   8.010   9.914 -0.3124  0.7804 -0.8145
28972SOL    HW287495   3.462   8.161   9.917 -0.1300  0.7867  1.2838
28973SOL     OW87496   0.191   0.824   1.244  0.0102  0.0767 -0.0123
28973SOL    HW187497   0.181   0.844   1.151 -1.4704  1.4489  0.3972
28973SOL    HW287498   0.110   0.781   1.269  1.0830 -1.8561  0.3108
28974SOL     OW87499   7.480   1.158   5.710 -0.3426  0.2253 -0.0185
28974SOL    HW187500   7.469   1.253   5.718  0.5946  0.6857 -3.1306
28974SOL    HW287501   7.528   1.146   5.629 -0.9257 -2.9833 -0.0041
28975SOL     OW87502   0.538   6.117   9.564 -0.0259  0.2221 -0.0061
28975SOL    HW187503   0.482   6.039   9.562 -0.5442  0.5998 -1.0382
28975SOL    HW287504   0.626   6.085   9.546 -0.3216 -0.0768 -0.9941
28976SOL     OW87505   8.212   6.561   0.783 -0.1117  0.2508  0.1241
28976SOL    HW187506   8.168   6.638   0.819  0.0083 -0.2362  1.3600
28976SOL    HW287507   8.305   6.578   0.796 -0.0961 -0.1950  0.6073
28977SOL     OW87508   3.153   1.863   8.893 -0.2720  0.4438 -0.1303
28977SOL    HW187509   3.070   1.888   8.932 -1.3444 -0.4244 -1.7158
28977SOL    HW287510   3.209   1.939   8.904 -0.2975  0.0916  3.4248
28978SOL     OW87511   4.258   2.318   6.995 -0.0389 -0.2236 -0.1745
28978SOL    HW187512   4.297   2.317   6.908 -0.9155 -0.9265 -0.5779
28978SOL    HW287513   4.235   2.410   7.010 -1.1945 -0.3072 -1.3090
28979SOL     OW87514   0.507   2.759   5.377  0.5309 -0.6562 -0.5457
28979SOL    HW187515   0.467   2.767   5.463  0.5776  1.6023 -0.6788
28979SOL    HW287516   0.589   2.712   5.393  0.5759 -0.2045  0.6687
28980SOL     OW87517   8.893   5.671   2.640 -0.0049  0.4208  0.0702
28980SOL    HW187518   8.837   5.609   2.593  1.0603  0.2741 -1.0666
28980SOL    HW287519   8.963   5.618   2.677 -0.1112  0.7110  0.7003
28981SOL     OW87520   8.107   3.784   0.714  0.3745  0.3738 -0.0832
28981SOL    HW187521   8.137   3.875   0.716 -3.0373  1.6602  1.0560
28981SOL    HW287522   8.111   3.760   0.622  1.3325  1.6994 -0.4183
28982SOL     OW87523   0.693   3.265   5.728  0.3390 -0.5288  0.3735
28982SOL    HW187524   0.777   3.312   5.722  0.4668 -0.6584  1.0584
28982SOL    HW287525   0.693   3.207   5.651  1.6023 -1.6815  1.1960
28983SOL     OW87526   5.051   7.569   4.501 -0.0611 -0.2576 -0.4650
28983SOL    HW187527   4.994   7.605   4.433  0.4253 -1.1161 -1.3488
28983SOL    HW287528   4.998   7.503   4.545 -0.7444  1.0404  0.7476
28984SOL     OW87529   3.883   6.959   9.250  0.2236 -0.0329 -0.4644
28984SOL    HW187530   3.885   6.991   9.340 -0.0356  2.1438 -1.1590
28984SOL    HW287531   3.974   6.962   9.222  0.1275  0.7577 -0.7197
28985SOL     OW87532   7.089   8.603   0.733  0.3309  0.1272  0.5310
28985SOL    HW187533   7.058   8.599   0.642  1.5363  0.3016  0.0936
28985SOL    HW287534   7.132   8.519   0.748  2.4972  1.0738  0.0204
28986SOL     OW87535   9.089   8.286   7.109 -0.4292  0.4513 -0.2158
28986SOL    HW187536   9.036   8.242   7.043 -2.8412  1.0490  1.2124
28986SOL    HW287537   9.100   8.375   7.076 -0.7320  0.4550 -0.3091
28987SOL     OW87538   5.998   8.505   1.338  0.6534  0.1147  0.4214
28987SOL    HW187539   5.972   8.519   1.247  1.2947 -1.5623 -0.0513
28987SOL    HW287540   6.005   8.410   1.347 -1.3190  0.1048  2.7863
28988SOL     OW87541   1.969   4.699   3.382  0.4249  0.4187 -0.2750
28988SOL    HW187542   1.899   4.755   3.347 -0.9818 -0.8763  0.3572
28988SOL    HW287543   2.019   4.672   3.305 -0.8826 -0.0818 -0.9764
28989SOL     OW87544   4.948   2.630   7.357  0.3194 -0.2513  0.4651
28989SOL    HW187545   4.871   2.574   7.366 -0.6601  0.9708  0.0676
28989SOL    HW287546   4.990   2.626   7.443  0.3758 -1.7144  0.3815
28990SOL     OW87547   4.870   7.727   5.152  0.1470  0.3033 -0.2863
28990SOL    HW187548   4.806   7.727   5.223 -1.0528  0.3901 -1.3136
28990SOL    HW287549   4.933   7.795   5.176  1.4997 -1.6584  2.1060
28991SOL     OW87550   8.353   8.243   7.383 -0.2603 -0.0593  0.0970
28991SOL    HW187551   8.347   8.322   7.330  0.0484 -0.1160 -0.0223
28991SOL    HW287552   8.334   8.273   7.472  0.2887  0.2353  0.1227
28992SOL     OW87553   2.955   3.733   3.655  0.8289 -0.1305  0.7415
28992SOL    HW187554   2.964   3.828   3.647 -0.6418 -0.0154  0.1224
28992SOL    HW287555   2.898   3.720   3.731 -0.7459 -0.3801 -0.4214
28993SOL     OW87556   6.617   7.269   1.029 -0.2170 -0.2923 -0.0135
28993SOL    HW187557   6.710   7.246   1.027 -0.3893 -0.9731 -0.6000
28993SOL    HW287558   6.602   7.299   1.119  0.3562 -1.0786  0.3624
28994SOL     OW87559   0.561   7.005   0.321  0.2998 -0.1180  0.3418
28994SOL    HW187560   0.603   6.926   0.355  0.0110 -0.7648 -0.7390
28994SOL    HW287561   0.532   6.980   0.233 -1.6610  0.5440  0.7644
28995SOL     OW87562   1.570   7.101   4.099 -0.1758 -0.5768  0.1858
28995SOL    HW187563   1.595   7.191   4.081  0.1577 -0.9459 -1.3894
28995SOL    HW287564   1.606   7.082   4.186  2.6777 -0.2173 -0.8227
28996SOL     OW87565   8.626   3.482   5.059  0.0502 -0.2938 -0.0261
28996SOL    HW187566   8.576   3.561   5.038  1.2213  0.3229 -0.6195
28996SOL    HW287567   8.576   3.411   5.020 -2.3733 -0.2207  2.6563
28997SOL     OW87568   1.973   1.043   5.990 -0.4330  0.1140 -0.4587
28997SOL    HW187569   1.947   1.135   5.981  0.3591  0.3338 -0.5059
28997SOL    HW287570   2.066   1.041   5.968 -0.6092 -0.8206 -1.2163
28998SOL     OW87571   5.211   1.764   4.048  0.0664 -0.1635 -0.6937
28998SOL    HW187572   5.175   1.852   4.058 -1.0799 -0.3461 -2.5564
28998SOL    HW287573   5.142   1.715   4.004  1.0047 -1.7722 -0.4681
28999SOL     OW87574   6.127   4.618   9.141 -0.0603  0.1500 -0.1250
28999SOL    HW187575   6.102   4.708   9.163  0.5229  0.1303  0.6598
28999SOL    HW287576   6.066   4.592   9.072 -0.0590  1.2397 -0.5437
29000SOL     OW87577   2.750   1.490   4.728  0.1386  0.2539 -0.4664
29000SOL    HW187578   2.836   1.520   4.698  0.8015 -1.7783 -0.7206
29000SOL    HW287579   2.718   1.434   4.658 -1.0037  0.2770  0.0205
29001SOL     OW87580   0.738   1.583   8.617 -0.1674 -0.5326  0.0172
29001SOL    HW187581   0.655   1.541   8.594  0.0298 -1.4994  1.0016
29001SOL    HW287582   0.717   1.634   8.695  0.4089 -1.7664  1.0162
29002SOL     OW87583   9.577   1.976   6.840  0.2072  0.3831 -0.4397
29002SOL    HW187584   9.626   1.959   6.921  0.3675  0.5740 -0.4975
29002SOL    HW287585   9.635   2.031   6.788 -0.0886  0.6588 -0.4853
29003SOL     OW87586   1.283   0.712   4.339 -0.3242  0.2331  0.6225
29003SOL    HW187587   1.193   0.693   4.311 -0.2540  1.8758 -0.9163
29003SOL    HW287588   1.338   0.670   4.272  0.0408  0.0218  1.0496
29004SOL     OW87589   1.475   4.089   4.867  0.3380  0.4988 -0.1078
29004SOL    HW187590   1.544   4.032   4.833  0.2213 -0.3540  1.0287
29004SOL    HW287591   1.485   4.171   4.818  1.5248  0.0550 -0.6398
29005SOL     OW87592   9.340   9.284   5.044  0.0621  0.9637 -0.2407
29005SOL    HW187593   9.288   9.265   5.122  1.9074  0.2947  0.8913
29005SOL    HW287594   9.360   9.197   5.007  0.8783  1.1710 -0.3056
29006SOL     OW87595   4.035   0.749   3.807 -0.1760 -0.2498 -0.4185
29006SOL    HW187596   3.968   0.711   3.864 -0.8569 -1.1350 -1.7595
29006SOL    HW287597   3.986   0.786   3.734  0.6023  1.7513  0.0108
29007SOL     OW87598   6.544   8.718   7.334 -0.0911  0.2839  0.6597
29007SOL    HW187599   6.620   8.688   7.383  1.3797  1.5904 -0.7117
29007SOL    HW287600   6.543   8.665   7.254 -1.2393 -0.4163  1.1155
29008SOL     OW87601   1.719   1.058   6.856 -0.1720  0.3506  0.2103
29008SOL    HW187602   1.669   1.016   6.786  0.3046 -0.1556  0.1592
29008SOL    HW287603   1.798   1.090   6.813 -0.6391  1.5412  0.2055
29009SOL     OW87604   8.622   0.591   4.152  0.3822 -0.1812  0.4145
29009SOL    HW187605   8.620   0.495   4.152 -0.1454 -0.2122  2.5329
29009SOL    HW287606   8.714   0.613   4.137  0.3596 -0.9570 -1.1118
29010SOL     OW87607   1.246   1.223   7.064 -0.2409 -0.0035 -0.5901
29010SOL    HW187608   1.156   1.231   7.033 -0.4369 -0.3807 -0.1376
29010SOL    HW287609   1.291   1.299   7.027 -0.7116  0.1213 -0.9227
29011SOL     OW87610   8.929   9.242   5.082 -0.0652  0.3893 -0.0875
29011SOL    HW187611   8.894   9.234   5.171  1.9171 -0.0650  0.7143
29011SOL    HW287612   8.933   9.336   5.066  0.4555  0.5157  0.7106
29012SOL     OW87613   3.023   1.129   4.803  0.0969 -0.2496 -0.2812
29012SOL    HW187614   3.102   1.127   4.749  0.2748  0.9494 -0.0905
29012SOL    HW287615   3.042   1.070   4.876  1.3929  1.0567  0.4969
29013SOL     OW87616   1.621   0.855   0.272 -0.0193  0.0171 -0.6195
29013SOL    HW187617   1.654   0.944   0.285  0.3960 -0.0888 -0.9152
29013SOL    HW287618   1.542   0.865   0.220 -0.1768  0.2423 -0.3354
29014SOL     OW87619   3.179   2.740   1.857  0.1687  0.1434  0.3097
29014SOL    HW187620   3.098   2.769   1.898  0.3380 -0.2676  0.9505
29014SOL    HW287621   3.174   2.645   1.859 -0.5622  0.0596 -2.1338
29015SOL     OW87622   3.684   5.180   0.408 -0.1010  0.2628 -0.3880
29015SOL    HW187623   3.603   5.157   0.453  1.2942  1.9364  3.3801
29015SOL    HW287624   3.667   5.265   0.369 -0.7636 -0.3726 -1.5318
29016SOL     OW87625   1.609   5.898   6.023  0.0208 -0.1878 -0.6226
29016SOL    HW187626   1.654   5.814   6.032 -0.7500 -0.5558 -0.0131
29016SOL    HW287627   1.550   5.885   5.949  0.7300  0.2101 -1.2633
29017SOL     OW87628   7.772   7.607   6.128 -0.5495 -0.9564  0.0783
29017SOL    HW187629   7.792   7.697   6.102  0.1157 -0.8822  0.8000
29017SOL    HW287630   7.844   7.583   6.188 -1.4047 -1.5092  0.9093
29018SOL     OW87631   5.784   8.844   8.795  0.0654 -0.2603 -0.0668
29018SOL    HW187632   5.710   8.817   8.740 -0.2641  0.1032  0.1953
29018SOL    HW287633   5.793   8.773   8.859 -0.4476 -0.0225  0.2777
29019SOL     OW87634   8.334   6.443   4.601 -0.2450  0.3666 -0.2833
29019SOL    HW187635   8.377   6.362   4.626 -1.2391 -0.4299 -1.0576
29019SOL    HW287636   8.240   6.423   4.606 -0.4942  0.8847 -2.2612
29020SOL     OW87637   4.784   3.037   7.308 -0.5605  0.1438 -0.2846
29020SOL    HW187638   4.723   2.969   7.278 -1.8145  1.5989 -1.1802
29020SOL    HW287639   4.763   3.114   7.255  1.0504  1.1549  0.4494
29021SOL     OW87640   1.232   3.203   7.864 -0.4645 -0.1875  0.6491
29021SOL    HW187641   1.322   3.229   7.883  0.4335 -2.3451 -0.2827
29021SOL    HW287642   1.203   3.157   7.943  0.3210 -1.9474 -0.0253
29022SOL     OW87643   5.609   4.059   0.642 -0.5414  0.0489 -0.7148
29022SOL    HW187644   5.609   4.016   0.557  0.8217 -1.0823 -0.1741
29022SOL    HW287645   5.699   4.090   0.654 -0.6089 -0.1625  0.4802
29023SOL     OW87646   3.364   3.545   8.050  0.7202  0.0548  0.0178
29023SOL    HW187647   3.446   3.506   8.020  0.8665  0.8498 -0.6283
29023SOL    HW287648   3.348   3.503   8.135  1.9989  0.1874  0.3421
29024SOL     OW87649   4.987   7.840   4.024 -0.1449  0.3417 -0.2218
29024SOL    HW187650   4.940   7.814   3.945 -0.1268  2.2290 -0.9028
29024SOL    HW287651   5.079   7.836   4.000 -0.0478 -0.6921  0.2571
29025SOL     OW87652   9.801   5.512   3.659  0.1181  0.6780 -0.1134
29025SOL    HW187653   9.888   5.552   3.647  0.2160  0.6949  0.6179
29025SOL    HW287654   9.769   5.499   3.570  1.7085 -1.1506 -0.4918
29026SOL     OW87655   5.744   1.806   5.390  0.0638  0.5824 -0.6156
29026SOL    HW187656   5.701   1.891   5.393 -0.4697  0.2934  1.6519
29026SOL    HW287657   5.706   1.756   5.463  1.5111 -1.0269 -0.8724
29027SOL     OW87658   3.897   0.344   0.921 -0.3811  0.1008  0.2758
29027SOL    HW187659   3.894   0.257   0.880  0.5239 -0.1062  0.6271
29027SOL    HW287660   3.826   0.393   0.878 -0.1021 -0.4188 -0.8173
29028SOL     OW87661   4.220   6.534   3.654  0.2586 -0.3235  0.8477
29028SOL    HW187662   4.145   6.565   3.704 -2.1970 -1.2572 -1.9394
29028SOL    HW287663   4.248   6.454   3.699 -0.5648 -0.0819  1.8240
29029SOL     OW87664   9.301   7.522   3.460  0.0925  0.0575  0.1712
29029SOL    HW187665   9.379   7.556   3.417  0.0941 -1.2261 -0.9275
29029SOL    HW287666   9.228   7.551   3.405 -0.0916  0.0946  0.4299
29030SOL     OW87667   8.276   5.848   9.452 -0.4362  1.0699 -0.4247
29030SOL    HW187668   8.332   5.836   9.375 -2.2467  2.0120 -1.9778
29030SOL    HW287669   8.283   5.941   9.472  1.3878  0.5602  1.7498
29031SOL     OW87670   9.422   6.064   3.602 -0.3128 -0.0144  0.3094
29031SOL    HW187671   9.460   6.071   3.689  0.4853 -0.1152 -0.0255
29031SOL    HW287672   9.382   5.977   3.601 -0.8930  0.2399  0.7902
29032SOL     OW87673   9.670   3.522   3.340  0.9738 -0.1066 -0.7657
29032SOL    HW187674   9.644   3.456   3.276  0.3446 -0.4814 -0.1433
29032SOL    HW287675   9.685   3.601   3.288 -2.4669  0.4614 -1.1417
29033SOL     OW87676   6.590   2.113   3.408  0.3140  0.1570 -0.0272
29033SOL    HW187677   6.531   2.069   3.347  0.1899  1.1453 -0.6349
29033SOL    HW287678   6.564   2.205   3.405  0.7315  0.3199  1.0395
29034SOL     OW87679   3.177   2.302   6.426 -0.1297  0.0963 -0.0595
29034SOL    HW187680   3.238   2.231   6.406 -0.3085 -0.2052  0.4548
29034SOL    HW287681   3.226   2.382   6.404  0.6200 -0.1246  0.7458
29035SOL     OW87682   4.398   5.282   5.635 -0.6585  0.5524  0.2216
29035SOL    HW187683   4.374   5.200   5.594 -0.3687 -0.4092  1.8810
29035SOL    HW287684   4.315   5.327   5.650 -1.1788 -1.0079  2.3948
29036SOL     OW87685   8.661   8.962   8.535 -0.3926 -0.0575  0.4581
29036SOL    HW187686   8.612   9.011   8.601  0.0666 -0.6237  1.2401
29036SOL    HW287687   8.746   8.947   8.575  0.6649  1.3800 -1.0864
29037SOL     OW87688   2.316   8.551   8.227 -0.0284  0.2383 -0.8576
29037SOL    HW187689   2.397   8.500   8.233 -0.2296  0.1006  2.5474
29037SOL    HW287690   2.304   8.587   8.314 -2.8203  1.6030 -1.6951
29038SOL     OW87691   1.031   7.461   4.900  0.1609  0.6218 -0.4126
29038SOL    HW187692   1.126   7.456   4.917  0.1567  1.3941 -0.1201
29038SOL    HW287693   1.023   7.456   4.805  0.4778  0.2754 -0.4222
29039SOL     OW87694   9.147   3.690   7.765 -0.3746 -0.7717 -0.7045
29039SOL    HW187695   9.105   3.730   7.841  0.9618 -1.1224  0.2489
29039SOL    HW287696   9.210   3.628   7.801 -0.4571 -1.7341 -2.1233
29040SOL     OW87697   7.057   6.559   4.841  0.3015  0.0681 -0.4380
29040SOL    HW187698   7.037   6.653   4.837  0.0771  0.0457  0.0353
29040SOL    HW287699   7.145   6.551   4.805 -0.2348  0.2731 -1.8457
29041SOL     OW87700   6.014   4.542   3.075 -0.0258  0.1501  0.5408
29041SOL    HW187701   6.011   4.616   3.015 -1.4533  1.0159  1.6052
29041SOL    HW287702   6.050   4.579   3.156 -1.9642  0.0249  1.4972
29042SOL     OW87703   4.717   9.413   8.083  0.2820 -0.2083 -0.6737
29042SOL    HW187704   4.652   9.475   8.115 -0.1484 -0.9683 -0.0551
29042SOL    HW287705   4.801   9.457   8.097  0.3323 -1.2878  3.5341
29043SOL     OW87706   6.312   3.904   7.685  0.2330 -0.1751  0.0010
29043SOL    HW187707   6.309   3.849   7.763  1.3552  0.3433  0.4210
29043SOL    HW287708   6.405   3.918   7.669 -0.0307  1.3602 -0.2769
29044SOL     OW87709   0.018   7.181   6.196 -0.6275  0.0957  0.1563
29044SOL    HW187710   0.049   7.103   6.242  2.5788 -0.8417 -3.0999
29044SOL    HW287711   0.072   7.252   6.230 -0.7501  0.1077  0.3255
29045SOL     OW87712   9.713   1.518   5.724  0.1914  0.6296 -0.9627
29045SOL    HW187713   9.745   1.597   5.768  1.3122 -0.2872 -0.0611
29045SOL    HW287714   9.627   1.503   5.762  1.5458 -0.7258  1.8175
29046SOL     OW87715   5.028   0.424   4.236 -0.4672  0.1596 -0.2043
29046SOL    HW187716   5.076   0.487   4.183  1.5180 -0.6993  0.4512
29046SOL    HW287717   4.945   0.411   4.190 -0.3648  2.1888 -1.0608
29047SOL     OW87718   5.628   9.729   1.235 -0.0352  0.4086  0.4694
29047SOL    HW187719   5.541   9.737   1.275 -0.7078 -1.2777 -0.5362
29047SOL    HW287720   5.680   9.681   1.299 -0.4126 -0.2113  0.3217
29048SOL     OW87721   7.703   7.715   1.535  0.7624 -0.1202 -0.0578
29048SOL    HW187722   7.793   7.727   1.563 -0.2686  0.7445  3.4619
29048SOL    HW287723   7.670   7.804   1.522  0.1182 -0.3564 -0.0975
29049SOL     OW87724   2.103   8.433   0.057  0.2947 -0.1085 -0.2527
29049SOL    HW187725   2.045   8.431   0.133 -0.5509  1.6547 -0.7846
29049SOL    HW287726   2.089   8.349   0.014 -1.7381  0.1451 -0.2271
29050SOL     OW87727   6.834   5.138   0.109  0.1612  0.0770 -0.6732
29050SOL    HW187728   6.805   5.226   0.085 -1.7476 -0.6618 -1.2648
29050SOL    HW287729   6.824   5.087   0.029 -0.9213 -1.1634  0.2048
29051SOL     OW87730   6.763   0.702   1.078  0.2928  0.0090 -0.3569
29051SOL    HW187731   6.829   0.771   1.085 -0.6251  0.8146  0.5553
29051SOL    HW287732   6.791   0.636   1.142  0.1437  0.4041  0.1160
29052SOL     OW87733   5.577   5.701   9.888  1.1052 -0.3804 -0.0512
29052SOL    HW187734   5.560   5.757   9.812  1.0618  0.6439  0.7020
29052SOL    HW287735   5.522   5.624   9.873 -0.1723  0.5398 -0.2604
29053SOL     OW87736   0.688   4.264   8.088 -0.0091 -0.3146 -0.4379
29053SOL    HW187737   0.710   4.332   8.025  1.0681  0.9795  1.2655
29053SOL    HW287738   0.736   4.187   8.057  2.0842  0.8225 -0.1983
29054SOL     OW87739   7.258   1.767   9.457  0.3834 -0.3989 -0.1566
29054SOL    HW187740   7.318   1.706   9.500 -0.0348 -1.2734 -0.8073
29054SOL    HW287741   7.233   1.828   9.527  1.5505 -0.3845  0.2634
29055SOL     OW87742   2.923   7.613   5.869 -0.4906 -0.1193 -0.8283
29055SOL    HW187743   2.995   7.573   5.918 -0.4033  2.4891  1.3714
29055SOL    HW287744   2.922   7.566   5.785  1.5989 -2.4507  0.3326
29056SOL     OW87745   2.820   9.577   6.319 -0.2887  0.2015  0.2842
29056SOL    HW187746   2.754   9.540   6.261 -2.4296  0.7672  2.2172
29056SOL    HW287747   2.901   9.530   6.296 -1.1369 -0.0152 -2.6475
29057SOL     OW87748   6.711   3.701   9.754  0.2236 -0.0384 -0.6652
29057SOL    HW187749   6.735   3.784   9.795  1.3553 -0.9238  0.5708
29057SOL    HW287750   6.757   3.635   9.806  0.4029 -1.3483 -2.4103
29058SOL     OW87751   7.084   0.500   2.419  0.2631  0.0653 -0.2250
29058SOL    HW187752   7.043   0.427   2.466 -2.2666  1.0836 -0.6447
29058SOL    HW287753   7.137   0.544   2.484 -0.7689 -0.2985  0.8963
29059SOL     OW87754   8.776   2.768   9.016 -0.4172 -0.7925  0.1691
29059SOL    HW187755   8.715   2.838   8.993  0.0079 -0.4348  0.1345
29059SOL    HW287756   8.741   2.733   9.098 -0.4076 -0.2753  0.4004
29060SOL     OW87757   6.741   4.599   4.492  0.8937  0.3320  0.3008
29060SOL    HW187758   6.667   4.605   4.432 -0.4510 -0.8693  1.7719
29060SOL    HW287759   6.769   4.508   4.487  0.9790  0.2974  1.2208
29061SOL     OW87760   3.558   3.583   6.825  0.6906 -0.4257 -0.1074
29061SOL    HW187761   3.565   3.547   6.914  1.2950  0.2514  0.1217
29061SOL    HW287762   3.494   3.525   6.782  0.9291 -1.1997  0.5400
29062SOL     OW87763   9.482   6.695   8.408  0.5393 -0.0063 -0.5731
29062SOL    HW187764   9.554   6.666   8.464  0.3042 -0.1614 -0.3485
29062SOL    HW287765   9.413   6.630   8.423 -0.4152  1.2869  0.7784
29063SOL     OW87766   2.612   2.525   6.750  0.3615  0.0965  0.6290
29063SOL    HW187767   2.547   2.457   6.765 -0.4802  0.9404  0.9065
29063SOL    HW287768   2.647   2.507   6.663  0.5108 -0.9663  0.8977
29064SOL     OW87769   7.296   4.330   6.401 -0.0317  0.2408  0.2049
29064SOL    HW187770   7.358   4.364   6.465 -0.6610 -0.3210  1.1375
29064SOL    HW287771   7.243   4.267   6.450  1.4331 -2.5679 -1.5536
29065SOL     OW87772   0.709   5.880   6.818  0.1708 -0.2521 -0.3206
29065SOL    HW187773   0.789   5.855   6.770 -0.7385 -0.1753 -1.9700
29065SOL    HW287774   0.736   5.884   6.909  1.8755 -0.9748 -0.7484
29066SOL     OW87775   6.440   2.291   6.985  0.3180  0.3838 -0.4338
29066SOL    HW187776   6.366   2.239   7.015 -0.4539  0.7820 -1.5749
29066SOL    HW287777   6.513   2.264   7.041 -0.5584 -0.3832  0.3729
29067SOL     OW87778   5.490   3.587   3.764 -0.1210 -0.0785  0.5490
29067SOL    HW187779   5.584   3.568   3.767  0.1746  1.2976  1.0969
29067SOL    HW287780   5.472   3.628   3.849 -1.1068  0.1104  0.2544
29068SOL     OW87781   8.786   8.631   5.639 -0.9801 -0.1641  0.4639
29068SOL    HW187782   8.713   8.624   5.577 -1.5909 -0.1960  1.1751
29068SOL    HW287783   8.761   8.575   5.712 -0.0173 -0.5457  0.5111
29069SOL     OW87784   2.072   5.300   3.992  0.1731 -0.4638  0.3693
29069SOL    HW187785   2.036   5.382   4.025  0.2033 -0.8953  1.5008
29069SOL    HW287786   2.043   5.297   3.901  1.2942  1.4402 -0.1031
29070SOL     OW87787   1.804   6.051   5.955  0.1714 -0.2735  0.4520
29070SOL    HW187788   1.855   6.063   6.035  0.1791 -1.0028  0.5584
29070SOL    HW287789   1.720   6.016   5.984  0.2516 -0.7497  0.1266
29071SOL     OW87790   6.954   3.397   6.514 -0.3784 -0.5056 -0.4239
29071SOL    HW187791   7.029   3.457   6.520 -0.5284 -0.3173 -0.4236
29071SOL    HW287792   6.891   3.432   6.577 -0.1635 -1.0999  0.1283
29072SOL     OW87793   3.285   3.657   2.949 -0.1096 -0.2895 -0.3267
29072SOL    HW187794   3.311   3.585   2.893 -0.8989 -1.1715  0.4178
29072SOL    HW287795   3.356   3.721   2.940 -0.0525 -0.5576 -2.0222
29073SOL     OW87796   3.821   9.740   3.336 -0.3072 -0.1818 -0.0141
29073SOL    HW187797   3.756   9.795   3.293 -0.6127 -0.0148  0.6508
29073SOL    HW287798   3.786   9.651   3.328 -1.1892  0.0196  1.3131
29074SOL     OW87799   2.618   6.337   8.485  0.2407 -0.4336  0.6495
29074SOL    HW187800   2.608   6.245   8.508 -1.8181 -0.0651  1.3984
29074SOL    HW287801   2.538   6.379   8.516 -0.7671  0.9383 -3.1881
29075SOL     OW87802   9.247   2.484   2.831 -0.2900  0.1447 -1.3467
29075SOL    HW187803   9.175   2.499   2.769 -1.1914 -0.8235 -0.5680
29075SOL    HW287804   9.259   2.389   2.830 -2.1851 -0.2871  1.9116
29076SOL     OW87805   9.727   0.663   5.522  0.1831 -0.0953 -0.0081
29076SOL    HW187806   9.724   0.567   5.519  1.9261 -0.1676 -1.0377
29076SOL    HW287807   9.814   0.685   5.490 -0.0826  1.8479  0.4655
29077SOL     OW87808   4.175   9.887   0.765 -0.2876 -0.0658 -0.0231
29077SOL    HW187809   4.226   9.967   0.766 -0.7304  0.2142  1.1256
29077SOL    HW287810   4.200   9.844   0.683  1.0312  0.5333  0.0447
29078SOL     OW87811   5.864   7.609   2.743  0.0839 -0.0092 -0.5295
29078SOL    HW187812   5.953   7.578   2.761 -0.2955 -0.4723  0.6657
29078SOL    HW287813   5.832   7.552   2.674  0.7510  0.2440 -1.0619
29079SOL     OW87814   8.177   9.547   2.712 -0.0990  0.3298  0.0537
29079SOL    HW187815   8.174   9.641   2.727 -1.4798  0.2356  0.5083
29079SOL    HW287816   8.090   9.525   2.678 -0.0712 -0.8992  0.7127
29080SOL     OW87817   0.673   9.498   5.778  0.4560 -0.1913 -0.0778
29080SOL    HW187818   0.619   9.429   5.817  0.2908 -0.1078 -0.1563
29080SOL    HW287819   0.733   9.452   5.720 -1.4142 -0.1006 -2.2445
29081SOL     OW87820   1.747   1.271   7.028  0.0512  0.0539 -0.0304
29081SOL    HW187821   1.831   1.302   6.994 -0.0706  0.3645 -0.0480
29081SOL    HW287822   1.715   1.211   6.960 -0.3579  0.9479 -0.6352
29082SOL     OW87823   8.017   8.111   6.966  0.2687  0.3702 -0.3730
29082SOL    HW187824   8.015   8.083   7.058  2.0155 -2.2327 -1.0129
29082SOL    HW287825   7.935   8.079   6.929  0.5593 -0.6153 -0.1999
29083SOL     OW87826   4.242   3.093   1.620 -0.2479  0.1598  0.0668
29083SOL    HW187827   4.325   3.075   1.664 -0.7894  0.9391  1.4706
29083SOL    HW287828   4.192   3.145   1.684 -1.2191  1.0059 -1.3328
29084SOL     OW87829   3.586   1.355   0.128  0.0408 -0.3253 -0.6168
29084SOL    HW187830   3.518   1.401   0.176 -0.7900 -2.1064  0.0006
29084SOL    HW287831   3.580   1.389   0.039 -0.9079  0.3425 -0.3123
29085SOL     OW87832   6.661   6.581   8.584  0.8336  0.1273 -0.5423
29085SOL    HW187833   6.640   6.587   8.491 -0.8687  0.6594 -0.1508
29085SOL    HW287834   6.734   6.642   8.596  1.0152  0.1135 -1.5062
29086SOL     OW87835   0.612   3.808   9.415  0.4061  0.5793  0.1700
29086SOL    HW187836   0.605   3.766   9.330  0.1804  0.8493  0.0523
29086SOL    HW287837   0.532   3.860   9.423 -0.1550 -0.3786  1.0617
29087SOL     OW87838   6.854   7.551   2.080 -0.5378  0.2759  0.4707
29087SOL    HW187839   6.939   7.533   2.120 -0.3457  0.0233 -0.0403
29087SOL    HW287840   6.836   7.474   2.026 -1.9614 -0.5143  1.9936
29088SOL     OW87841   6.860   6.052   1.609  0.3264  0.0981  0.0932
29088SOL    HW187842   6.774   6.074   1.574  1.3335  3.0030 -0.8124
29088SOL    HW287843   6.851   6.065   1.704 -0.8425 -2.1956  0.3776
29089SOL     OW87844   7.214   5.278   9.974  0.0480 -0.0952  0.1923
29089SOL    HW187845   7.277   5.221   9.929  1.3683  1.4964 -0.0929
29089SOL    HW287846   7.134   5.271   9.921  1.4104  1.3630 -2.2890
29090SOL     OW87847   3.859   8.585   7.971  0.6155 -1.0385 -0.2469
29090SOL    HW187848   3.841   8.678   7.989  0.1599 -1.1692 -0.0053
29090SOL    HW287849   3.954   8.581   7.960  0.8001 -0.7525  1.0414
29091SOL     OW87850   5.021   4.424   1.336  0.4852 -0.1519 -0.2358
29091SOL    HW187851   5.093   4.373   1.374 -0.0611 -0.6061  0.1937
29091SOL    HW287852   5.064   4.501   1.299  1.2692 -0.6906 -0.4899
29092SOL     OW87853   6.651   7.572   7.802 -0.1861  0.1085  0.5163
29092SOL    HW187854   6.591   7.509   7.842  2.1135 -2.0284  0.8564
29092SOL    HW287855   6.701   7.607   7.876  1.0014 -0.4341 -0.0118
29093SOL     OW87856   3.195   1.361   4.718  0.1475 -0.4351 -0.2114
29093SOL    HW187857   3.118   1.381   4.665 -0.9382 -0.0485  1.4546
29093SOL    HW287858   3.264   1.416   4.681 -0.7419  0.3367 -0.7878
29094SOL     OW87859   5.857   3.797   0.049  0.3359 -0.3236  0.3659
29094SOL    HW187860   5.892   3.787  -0.040 -1.0578 -1.8310 -0.0664
29094SOL    HW287861   5.877   3.713   0.091 -1.6909 -0.7969  0.4552
29095SOL     OW87862   3.298   1.873   4.798 -0.4153 -0.4929 -0.4206
29095SOL    HW187863   3.294   1.966   4.823 -2.4033 -0.7909  0.5910
29095SOL    HW287864   3.304   1.826   4.881 -0.1666 -1.3051 -0.8907
29096SOL     OW87865   0.075   5.669   2.999 -0.2716 -0.4210 -0.2507
29096SOL    HW187866   0.086   5.616   2.920 -0.4799 -0.5873 -0.1699
29096SOL    HW287867  -0.020   5.677   3.009 -0.2570 -0.8372  0.2731
29097SOL     OW87868   1.337   0.512   1.453  0.0679  0.3662 -0.2198
29097SOL    HW187869   1.362   0.440   1.395  0.3085 -1.2714  1.8299
29097SOL    HW287870   1.253   0.484   1.490 -0.8435  2.0897 -0.8625
29098SOL     OW87871   9.939   4.187   6.109  0.3147 -0.1365  0.2493
29098SOL    HW187872  10.018   4.168   6.058  0.9960  0.3018  1.0918
29098SOL    HW287873   9.924   4.108   6.160  0.4235 -0.1008  0.3395
29099SOL     OW87874   7.658   5.329   8.107 -0.6331 -0.8444  0.5136
29099SOL    HW187875   7.645   5.415   8.066  0.8519 -0.6716  0.3560
29099SOL    HW287876   7.707   5.348   8.186 -1.2279 -1.4570  1.0376
29100SOL     OW87877   2.031   8.002   5.595  0.1263  0.2344 -0.6516
29100SOL    HW187878   1.971   7.929   5.579 -0.7697  1.0454 -1.1149
29100SOL    HW287879   1.996   8.045   5.674  2.1107 -1.2838  1.1524
29101SOL     OW87880   7.588   5.685   4.176 -0.1632 -0.0262  0.0154
29101SOL    HW187881   7.505   5.731   4.184  0.1132  0.5319 -0.2328
29101SOL    HW287882   7.605   5.681   4.082  0.6212  0.8664  0.1006
29102SOL     OW87883   9.574   1.984   1.348 -0.4921 -0.1247 -0.5648
29102SOL    HW187884   9.548   1.911   1.405  0.3332  0.3232  0.4254
29102SOL    HW287885   9.605   1.943   1.268  0.2706 -0.8946  0.1039
29103SOL     OW87886   6.077   5.142   8.598 -0.0802  0.0363  0.0245
29103SOL    HW187887   6.119   5.206   8.541 -0.8501  1.6311  1.1581
29103SOL    HW287888   6.048   5.072   8.539  0.3146  0.9798 -1.3366
29104SOL     OW87889   0.357   2.497   4.702 -0.4266 -0.5368 -0.5731
29104SOL    HW187890   0.392   2.552   4.632 -2.1006  0.5239 -0.6353
29104SOL    HW287891   0.314   2.558   4.762  0.7437 -1.4394  1.3034
29105SOL     OW87892   5.116   4.095   1.875 -0.2804 -0.2987  0.4859
29105SOL    HW187893   5.051   4.055   1.817  0.0955 -0.0368 -0.1234
29105SOL    HW287894   5.155   4.021   1.921 -0.5973 -0.5089  0.4231
29106SOL     OW87895   7.047   4.799   6.910  0.4621 -0.3827 -0.1906
29106SOL    HW187896   7.117   4.765   6.853  0.0606 -0.4766 -0.6289
29106SOL    HW287897   7.089   4.809   6.995  1.0712 -0.2304 -0.5038
29107SOL     OW87898   3.765   0.975   3.874  0.0764 -0.4726 -0.6587
29107SOL    HW187899   3.802   1.063   3.882  0.7982 -0.7771 -0.6020
29107SOL    HW287900   3.670   0.989   3.879  0.0882  0.4814 -2.2213
29108SOL     OW87901   0.228   8.932   0.595 -0.2783  0.4554 -0.1566
29108SOL    HW187902   0.266   8.869   0.657 -0.0590 -0.1697 -0.9075
29108SOL    HW287903   0.297   8.946   0.530 -1.5563 -1.3418 -2.0107
29109SOL     OW87904   3.840   9.260   3.813  0.4416  0.0420  0.1917
29109SOL    HW187905   3.902   9.268   3.740  0.0138  3.4191  0.0442
29109SOL    HW287906   3.895   9.250   3.891  1.1150  1.2247 -0.1189
29110SOL     OW87907   9.912   4.193   3.370  0.2906 -0.1208 -0.4613
29110SOL    HW187908   9.975   4.122   3.383  0.2375 -0.4915 -2.0693
29110SOL    HW287909   9.907   4.204   3.275 -1.1105  0.7740 -0.3095
29111SOL     OW87910   1.573   9.807   9.267 -0.2882 -0.2747  0.4694
29111SOL    HW187911   1.517   9.750   9.214  2.4858 -1.4911 -1.3835
29111SOL    HW287912   1.572   9.891   9.221 -0.6457 -0.2619  0.4975
29112SOL     OW87913   6.378   8.794   2.608 -0.0294 -0.4702  0.2999
29112SOL    HW187914   6.439   8.860   2.576  1.5748 -1.0923  1.8856
29112SOL    HW287915   6.327   8.839   2.675  1.3956 -0.8720  1.7299
29113SOL     OW87916   6.337   1.817   5.244  0.0913 -0.0275  0.4292
29113SOL    HW187917   6.297   1.815   5.157 -0.1157  0.1086  0.5184
29113SOL    HW287918   6.264   1.798   5.303  0.0465  0.7719  0.6346
29114SOL     OW87919   4.985   1.125   5.693  0.3724 -0.0692  0.1037
29114SOL    HW187920   5.019   1.191   5.634 -1.0721  1.9459  1.3806
29114SOL    HW287921   4.894   1.113   5.667 -0.1234  0.4202  1.5072
29115SOL     OW87922   9.554   6.259   9.394  0.4541 -0.5117 -0.2803
29115SOL    HW187923   9.541   6.201   9.469  1.7231 -1.0461 -0.4475
29115SOL    HW287924   9.521   6.344   9.423  1.3515 -0.5922  1.0643
29116SOL     OW87925   2.951   6.483   1.108  0.1542  0.0412  0.1845
29116SOL    HW187926   2.868   6.436   1.111 -0.9991  2.0172  1.5593
29116SOL    HW287927   2.954   6.522   1.021  0.7822 -1.8541 -0.7046
29117SOL     OW87928   1.933   4.435   0.325 -0.1482  0.1907 -0.0002
29117SOL    HW187929   1.986   4.375   0.274  0.2677  0.0579  0.5842
29117SOL    HW287930   1.966   4.522   0.301 -2.0021  0.3723 -2.3035
29118SOL     OW87931   3.955   1.596   8.378  0.4710 -0.3616  0.1487
29118SOL    HW187932   3.945   1.579   8.284  2.1163 -0.6701  0.0065
29118SOL    HW287933   4.030   1.655   8.384  0.8799 -0.9704  1.3167
29119SOL     OW87934   1.343   0.698   4.603  0.1236  0.0573 -0.6287
29119SOL    HW187935   1.267   0.692   4.660 -0.6137  1.8157 -1.3446
29119SOL    HW287936   1.307   0.687   4.514  0.7630  0.4570 -0.9467
29120SOL     OW87937   3.995   8.033   7.166 -0.5429  0.1649 -0.0693
29120SOL    HW187938   4.037   8.103   7.117  0.4298  0.4695  1.1579
29120SOL    HW287939   4.052   7.957   7.155  0.1408  0.4601  1.2364
29121SOL     OW87940   0.191   8.589   5.173  0.4140 -0.1617  0.2390
29121SOL    HW187941   0.264   8.591   5.234 -0.1350  2.8781  0.9818
29121SOL    HW287942   0.118   8.553   5.223  0.7597 -0.7872  0.3014
29122SOL     OW87943   9.244   3.831   4.732  0.7420 -0.0634 -0.3326
29122SOL    HW187944   9.299   3.757   4.758  1.2693  0.2969 -0.3970
29122SOL    HW287945   9.162   3.791   4.703  1.5600 -0.7401 -1.8407
29123SOL     OW87946   8.652   1.115   0.531 -0.0865 -0.0451 -0.3746
29123SOL    HW187947   8.678   1.207   0.523  0.9637 -0.3829 -1.0966
29123SOL    HW287948   8.713   1.079   0.596 -0.6963 -0.1633  0.1384
29124SOL     OW87949   4.314   1.585   4.241 -0.1416  0.0600  0.0831
29124SOL    HW187950   4.314   1.555   4.150  2.5187  0.3417 -0.0998
29124SOL    HW287951   4.386   1.648   4.244 -0.7323  0.6783  2.2074
29125SOL     OW87952   9.181   9.415   7.839 -0.0133  0.3369 -0.6275
29125SOL    HW187953   9.231   9.338   7.866  2.1174  1.9799  0.3949
29125SOL    HW287954   9.220   9.441   7.756  0.0102  0.9397 -0.4316
29126SOL     OW87955   4.210   7.332   8.752 -0.2610 -0.1984 -0.0866
29126SOL    HW187956   4.231   7.304   8.663  0.4597  2.0866 -0.6938
29126SOL    HW287957   4.294   7.350   8.793 -0.5634 -1.6190  1.2341
29127SOL     OW87958   8.219   2.886   2.159  0.3529 -0.0007  0.2159
29127SOL    HW187959   8.140   2.839   2.133  0.8545  0.0162 -1.4591
29127SOL    HW287960   8.283   2.864   2.092  1.4819  0.7701  1.0043
29128SOL     OW87961   0.890   8.281   9.206 -0.0848  0.3849  0.4094
29128SOL    HW187962   0.953   8.209   9.203  0.1927  0.6598 -0.7408
29128SOL    HW287963   0.826   8.254   9.272  0.6106 -0.4088  0.7831
29129SOL     OW87964   8.881   3.416   3.828 -0.4945 -0.1346  0.1713
29129SOL    HW187965   8.871   3.338   3.774  1.7613  1.1333 -2.2895
29129SOL    HW287966   8.838   3.485   3.778  0.9586  0.9329  0.3368
29130SOL     OW87967   6.755   0.536   9.637 -0.0218  0.2917  0.1219
29130SOL    HW187968   6.783   0.586   9.561 -1.0717  1.2769  0.3454
29130SOL    HW287969   6.824   0.550   9.702  0.1978  0.6051 -0.1786
29131SOL     OW87970   7.608   2.471   6.406  0.2275 -0.0337 -0.3874
29131SOL    HW187971   7.635   2.516   6.326  0.2293  1.2661  0.3056
29131SOL    HW287972   7.689   2.461   6.456  0.3814 -1.6643 -0.9034
29132SOL     OW87973   1.919   1.479   2.417 -0.1295  0.5162 -0.0157
29132SOL    HW187974   1.906   1.568   2.383  0.3738 -0.1712 -2.1543
29132SOL    HW287975   1.832   1.453   2.449 -1.5695  0.1486 -3.6600
29133SOL     OW87976   3.736   6.462   3.482 -0.8314  0.2256 -0.4629
29133SOL    HW187977   3.716   6.414   3.562  2.1604 -1.0653 -0.3434
29133SOL    HW287978   3.763   6.549   3.511 -2.0006  0.5459 -0.3025
29134SOL     OW87979   0.080   1.643   7.803 -0.1169  0.1318 -0.0430
29134SOL    HW187980   0.035   1.604   7.878 -0.3662  1.3168  0.4300
29134SOL    HW287981   0.089   1.570   7.741 -0.4452 -0.7145  0.8772
29135SOL     OW87982   0.133   0.294   1.030  0.0909  0.4621  0.0372
29135SOL    HW187983   0.205   0.252   0.982  0.1010  1.0345 -0.4604
29135SOL    HW287984   0.090   0.350   0.965  0.4674  1.7118  0.8214
29136SOL     OW87985   4.916   2.144   9.895  0.1494  0.2663  0.2915
29136SOL    HW187986   4.884   2.058   9.868 -0.7195  1.0280 -1.2490
29136SOL    HW287987   4.988   2.162   9.834 -1.4639  1.7718 -1.2986
29137SOL     OW87988   8.424   7.677   0.067  0.0228  0.4992 -0.0973
29137SOL    HW187989   8.488   7.643   0.003  2.0795  3.0434  0.4291
29137SOL    HW287990   8.475   7.737   0.122 -2.2295  0.3466  2.3544
29138SOL     OW87991   8.133   2.648   4.742 -0.5836 -0.0125  0.5568
29138SOL    HW187992   8.121   2.575   4.803  1.9012 -1.1561 -0.2086
29138SOL    HW287993   8.209   2.624   4.690 -0.1907  2.7767 -0.3250
29139SOL     OW87994   7.064   6.806   1.675  0.1121 -0.1844  0.7221
29139SOL    HW187995   7.118   6.741   1.629 -0.3927 -0.2950  0.2776
29139SOL    HW287996   7.090   6.890   1.637  0.3844 -0.1753  0.9224
29140SOL     OW87997   1.448   2.138   7.401  0.5337  0.5815 -0.1460
29140SOL    HW187998   1.364   2.094   7.386  0.9196 -0.3767  0.4132
29140SOL    HW287999   1.425   2.225   7.433 -0.2539 -0.0070  0.9326
29141SOL     OW88000   5.297   0.415   1.985  0.4084  0.9108  0.5110
29141SOL    HW188001   5.276   0.485   2.047  0.7776  1.8239 -0.3620
29141SOL    HW288002   5.212   0.388   1.949 -0.1442 -1.4249  3.1891
29142SOL     OW88003   3.223   6.530   6.824  0.2540  0.2203  0.0713
29142SOL    HW188004   3.177   6.610   6.849  0.8664  0.3881  0.7036
29142SOL    HW288005   3.238   6.538   6.730  0.8961  1.1676  0.2412
29143SOL     OW88006   7.533   2.744   0.325  0.2246 -0.0215 -0.5411
29143SOL    HW188007   7.618   2.769   0.359 -0.5092  0.3450  1.1239
29143SOL    HW288008   7.472   2.758   0.398 -0.9741 -2.1285 -1.0205
29144SOL     OW88009   0.682   5.321   6.489  0.1301 -0.7028 -0.1734
29144SOL    HW188010   0.615   5.362   6.544  0.6291 -1.4328  1.0016
29144SOL    HW288011   0.677   5.228   6.510  1.0465 -0.8603 -0.6004
29145SOL     OW88012   7.837   8.413   5.409 -0.1786 -0.2503  0.4333
29145SOL    HW188013   7.808   8.460   5.331 -2.6725 -1.0212  0.8280
29145SOL    HW288014   7.932   8.426   5.410  0.0348 -0.6735 -3.0317
29146SOL     OW88015   1.037   6.710   8.656  0.5897  0.2982  0.2121
29146SOL    HW188016   0.994   6.712   8.741  0.2818 -1.2636  0.1231
29146SOL    HW288017   1.124   6.747   8.672  0.0586  1.3343  0.8767
29147SOL     OW88018   8.755   2.006   3.925 -0.2108  0.2044 -0.1908
29147SOL    HW188019   8.843   2.039   3.941 -0.1632 -0.8634  1.9607
29147SOL    HW288020   8.767   1.931   3.867 -0.1018  2.1257 -2.8783
29148SOL     OW88021   8.013   4.959   8.557  0.8349  0.5393  1.0198
29148SOL    HW188022   8.073   5.014   8.506  0.7164  0.5439  0.8830
29148SOL    HW288023   8.058   4.875   8.565  0.0621 -0.0887 -0.7134
29149SOL     OW88024   3.002   9.916   9.682  0.5646  0.3686 -0.2670
29149SOL    HW188025   3.085   9.900   9.728 -0.3141 -0.6792  1.0111
29149SOL    HW288026   2.974  10.002   9.713  0.4595  0.0916  0.4085
29150SOL     OW88027   0.887   4.054   7.709 -0.0575  0.3928 -0.2026
29150SOL    HW188028   0.823   4.064   7.638 -0.4010  1.2255  0.2195
29150SOL    HW288029   0.971   4.044   7.664 -0.0339  2.5012 -0.7287
29151SOL     OW88030   3.373   1.061   0.370 -0.1116 -0.2491  0.3567
29151SOL    HW188031   3.364   1.096   0.281 -4.3632  0.4977  0.8697
29151SOL    HW288032   3.312   0.987   0.372 -1.4048  0.7794  3.0338
29152SOL     OW88033   3.494   6.439   4.309 -0.1295 -0.0466  0.1904
29152SOL    HW188034   3.482   6.533   4.300 -1.3070 -0.2347 -0.3407
29152SOL    HW288035   3.588   6.428   4.326  0.2110  1.1277 -0.8481
29153SOL     OW88036   0.471   6.964   8.972  0.5810 -0.0144  0.5221
29153SOL    HW188037   0.408   6.934   9.037 -0.3624 -0.2984 -0.4951
29153SOL    HW288038   0.420   7.017   8.911  1.6009  0.9245  0.4526
29154SOL     OW88039   7.738   2.852   5.065 -0.7170  0.1223  0.2990
29154SOL    HW188040   7.666   2.892   5.114 -1.8136 -0.8527 -0.4855
29154SOL    HW288041   7.734   2.891   4.978  0.3999  0.8517  0.5410
29155SOL     OW88042   2.671   1.370   5.432  0.3287 -0.6588  0.0354
29155SOL    HW188043   2.675   1.437   5.364  0.0482  1.1607  1.7058
29155SOL    HW288044   2.578   1.351   5.441  0.3148 -0.4967  0.2550
29156SOL     OW88045   0.577   5.435   4.427 -0.1973  0.1114 -0.7187
29156SOL    HW188046   0.542   5.354   4.464 -0.7923  1.0990  0.9922
29156SOL    HW288047   0.664   5.442   4.465 -1.2683  1.7710  1.7276
29157SOL     OW88048   9.460   3.094   7.008  0.5372  0.3954  0.3092
29157SOL    HW188049   9.424   3.121   7.092  2.4235  0.3151  1.1980
29157SOL    HW288050   9.457   3.173   6.954  1.3179  1.0371  1.1857
29158SOL     OW88051   5.319   7.289   1.628 -0.3223 -0.3081  0.0280
29158SOL    HW188052   5.286   7.362   1.576  0.8042 -0.1429 -0.4583
29158SOL    HW288053   5.371   7.330   1.697  0.4925 -0.6485 -0.3730
29159SOL     OW88054   8.090   2.859   2.727 -0.0207  0.1214 -0.3184
29159SOL    HW188055   8.052   2.771   2.729 -0.6899  0.4126  0.3287
29159SOL    HW288056   8.086   2.888   2.819  3.4808 -0.5413  0.1681
29160SOL     OW88057   0.968   7.489   2.298 -0.5610 -0.0765  0.4441
29160SOL    HW188058   1.036   7.537   2.251 -1.2245  0.8705  0.4368
29160SOL    HW288059   0.959   7.407   2.250 -2.4513  1.5417 -2.1916
29161SOL     OW88060   4.445   3.617   4.458 -0.2303  0.3888 -0.1615
29161SOL    HW188061   4.515   3.671   4.495  0.9976 -0.7679 -0.7444
29161SOL    HW288062   4.478   3.528   4.462 -1.3987 -0.1121 -1.0913
29162SOL     OW88063   5.660   7.849   1.581  0.2063  0.3414 -0.0290
29162SOL    HW188064   5.746   7.810   1.567  0.7627  1.4448  0.2086
29162SOL    HW288065   5.637   7.888   1.496 -0.8543 -1.3924 -0.6006
29163SOL     OW88066   8.278   5.398   7.790 -0.2543 -0.0833 -0.1840
29163SOL    HW188067   8.288   5.402   7.885 -1.1053 -0.1731 -0.0844
29163SOL    HW288068   8.223   5.473   7.769  1.3176  0.9395 -0.8221
29164SOL     OW88069   0.938   1.179   6.533  0.2426  0.4018  0.0633
29164SOL    HW188070   1.014   1.232   6.555  0.0855  1.1362 -1.0741
29164SOL    HW288071   0.972   1.090   6.523  0.6701  0.4421  1.0890
29165SOL     OW88072   2.633   9.500   8.943  0.2362 -0.0132  0.0543
29165SOL    HW188073   2.687   9.440   8.893  2.7036  0.5556  1.8364
29165SOL    HW288074   2.682   9.582   8.944  0.3303  0.0249  3.2369
29166SOL     OW88075   7.930   0.911   4.326  0.0712  0.0940 -0.0799
29166SOL    HW188076   7.843   0.890   4.293  0.5928 -1.3454 -0.6028
29166SOL    HW288077   7.914   0.953   4.411 -1.1399  0.3078 -0.3980
29167SOL     OW88078   7.603   2.539   4.373  0.1888  0.2326 -0.0609
29167SOL    HW188079   7.691   2.501   4.381 -0.4022 -0.9870  1.0974
29167SOL    HW288080   7.611   2.625   4.415  0.7886  0.0644  0.1881
29168SOL     OW88081   1.932   2.699   6.793  0.3633  0.0747  0.2375
29168SOL    HW188082   1.963   2.636   6.858 -0.9761  0.1223  0.9573
29168SOL    HW288083   1.903   2.774   6.843 -2.5522 -0.6606 -0.1562
29169SOL     OW88084   5.043   6.075   7.021 -0.1418  0.3878  0.2186
29169SOL    HW188085   5.135   6.062   7.046  0.0040  0.5056 -0.2420
29169SOL    HW288086   4.998   5.999   7.058  0.2249  0.0746  0.0325
29170SOL     OW88087   2.174   9.669   1.664 -0.4634 -0.0414 -0.1344
29170SOL    HW188088   2.193   9.758   1.694 -2.4236 -0.1336  1.6255
29170SOL    HW288089   2.083   9.673   1.633 -0.5682 -1.3999 -0.0770
29171SOL     OW88090   9.486   2.235   2.504 -0.1585 -0.3115  0.4638
29171SOL    HW188091   9.434   2.261   2.580 -1.6308  1.2592 -0.9849
29171SOL    HW288092   9.427   2.179   2.453  0.6989 -1.0775  0.2768
29172SOL     OW88093   7.271   4.067   5.663 -0.1826 -0.3816  0.4478
29172SOL    HW188094   7.250   4.155   5.693 -0.1270 -0.5044  0.8547
29172SOL    HW288095   7.337   4.036   5.725 -2.2810 -1.8046  2.1128
29173SOL     OW88096   1.848   8.384   5.922  0.0049  0.1295 -0.5476
29173SOL    HW188097   1.921   8.409   5.865 -1.2040 -0.1404 -2.2763
29173SOL    HW288098   1.771   8.423   5.881 -0.9094 -0.0098  0.9677
29174SOL     OW88099   8.384   5.930   8.965  0.3625 -0.2106  0.3356
29174SOL    HW188100   8.326   5.917   8.890  1.0234 -1.5952  0.0334
29174SOL    HW288101   8.468   5.955   8.925  0.4443  0.0724  0.6779
29175SOL     OW88102   8.961   3.630   3.640 -0.4212 -0.2502  0.3816
29175SOL    HW188103   9.007   3.680   3.707  2.5370  0.6261 -2.0637
29175SOL    HW288104   9.012   3.549   3.631 -0.3126 -0.0474 -1.1802
29176SOL     OW88105   2.852   1.138   6.388 -0.3382 -0.3364 -0.0513
29176SOL    HW188106   2.891   1.056   6.418  0.1332 -0.8888 -1.9846
29176SOL    HW288107   2.920   1.204   6.399  1.3957 -1.2999 -3.4432
29177SOL     OW88108   7.940   7.724   5.037  0.0498 -0.0598 -0.2726
29177SOL    HW188109   7.965   7.753   4.949 -2.5544 -1.7146 -1.6892
29177SOL    HW288110   7.845   7.731   5.039 -0.0248 -0.8050  2.1633
29178SOL     OW88111   6.229   9.844   0.806 -0.0939  0.0997 -0.3206
29178SOL    HW188112   6.167   9.915   0.820  1.0307  0.9369  0.5999
29178SOL    HW288113   6.216   9.785   0.880 -0.4765 -0.2594 -0.6661
29179SOL     OW88114   3.153   6.083   5.487 -0.4122 -0.3983 -0.5672
29179SOL    HW188115   3.212   6.019   5.447 -1.4052 -0.4296 -2.0846
29179SOL    HW288116   3.114   6.037   5.562 -0.3200 -1.2151 -1.0106
29180SOL     OW88117   6.777   9.496   5.620 -0.2097  0.3417 -0.0798
29180SOL    HW188118   6.824   9.555   5.679  0.0807  1.1525 -1.0921
29180SOL    HW288119   6.840   9.477   5.550 -1.1451  0.8897 -1.1017
29181SOL     OW88120   8.428   2.873   7.354  0.0437  0.2058  0.6317
29181SOL    HW188121   8.427   2.809   7.425 -1.2789  0.5573  0.9526
29181SOL    HW288122   8.515   2.865   7.316  0.1229 -1.3199  1.0828
29182SOL     OW88123   2.273   0.856   4.881 -0.6023  0.4791  0.0515
29182SOL    HW188124   2.225   0.916   4.823  0.5283  0.7776 -0.5994
29182SOL    HW288125   2.365   0.870   4.860 -0.2972 -1.9464 -0.6213
29183SOL     OW88126   6.278   5.203   2.639 -0.7721  0.2514  0.0832
29183SOL    HW188127   6.259   5.288   2.678 -0.2450  0.6354 -0.4644
29183SOL    HW288128   6.230   5.203   2.556 -3.2280 -1.2166  1.3855
29184SOL     OW88129   0.355   1.729   6.815  0.1925 -0.0190  0.9936
29184SOL    HW188130   0.309   1.812   6.806 -1.7321 -1.0941  0.4885
29184SOL    HW288131   0.369   1.699   6.725  0.1313 -0.6339  1.1830
29185SOL     OW88132   6.316   3.428   4.480  0.0840 -0.7079  0.2382
29185SOL    HW188133   6.311   3.362   4.412  2.3524  0.3014 -1.0001
29185SOL    HW288134   6.398   3.410   4.526  0.8850  1.3375 -0.2834
29186SOL     OW88135   3.981   8.790   2.940  0.0514 -0.7376 -0.2702
29186SOL    HW188136   3.940   8.776   3.025  2.2344 -1.1277  0.7764
29186SOL    HW288137   3.908   8.790   2.878 -1.4819 -1.5910  1.4475
29187SOL     OW88138   2.197   5.290   0.554  0.8524 -0.5678  0.3360
29187SOL    HW188139   2.224   5.198   0.558 -0.3698 -0.9102  1.5639
29187SOL    HW288140   2.101   5.286   0.549  0.8493  0.6077 -2.5877
29188SOL     OW88141   2.916   8.808   5.718 -0.1822  1.0699  0.2349
29188SOL    HW188142   2.936   8.849   5.634 -0.6753  2.4657  0.7624
29188SOL    HW288143   2.886   8.881   5.773 -2.0287 -0.1651  0.9259
29189SOL     OW88144   9.744   3.401   5.879  0.4475 -0.1106 -0.9044
29189SOL    HW188145   9.796   3.366   5.951  1.1571 -0.3212 -1.5060
29189SOL    HW288146   9.801   3.463   5.835  0.2078 -0.3605 -1.5873
29190SOL     OW88147   9.094   9.528   0.109 -0.0637 -0.2240  0.9622
29190SOL    HW188148   9.014   9.482   0.083 -1.0730  1.0869  1.6169
29190SOL    HW288149   9.089   9.612   0.064  2.0176 -0.8586 -0.6552
29191SOL     OW88150   1.848   4.963   1.002  0.0307 -0.2256 -0.0735
29191SOL    HW188151   1.878   4.907   1.074  0.4350 -0.0045 -0.0665
29191SOL    HW288152   1.867   5.052   1.032 -0.2262 -0.1068 -0.2603
29192SOL     OW88153   9.166   3.546   2.967  0.0323  0.5723  0.5207
29192SOL    HW188154   9.242   3.587   3.007  0.6049  0.6210 -0.5655
29192SOL    HW288155   9.198   3.513   2.883 -1.0318  0.1670  0.2565
29193SOL     OW88156   0.069   7.931   5.174  0.2379  0.4428  0.0289
29193SOL    HW188157  -0.009   7.878   5.158  2.0421 -2.0654 -1.1925
29193SOL    HW288158   0.124   7.876   5.230  2.0583  1.1798 -0.9562
29194SOL     OW88159   3.801   5.564   3.551 -0.6395  0.1682  0.6554
29194SOL    HW188160   3.857   5.639   3.572  1.6364 -0.9321 -1.0944
29194SOL    HW288161   3.828   5.496   3.613 -1.7294  0.2996  1.3152
29195SOL     OW88162   2.763   1.532   9.351  0.7736  0.0676  0.3730
29195SOL    HW188163   2.713   1.609   9.378 -0.1939 -0.1609 -0.7095
29195SOL    HW288164   2.738   1.464   9.413 -1.5364 -0.4935 -1.0699
29196SOL     OW88165   5.027   7.919   2.323  0.5381  0.0180 -0.4397
29196SOL    HW188166   5.014   8.014   2.325  0.2231 -0.0293  0.5454
29196SOL    HW288167   4.948   7.883   2.364 -0.4637 -0.8211 -2.9566
29197SOL     OW88168   8.297   3.852   7.301  0.7940 -0.4133  0.0013
29197SOL    HW188169   8.300   3.947   7.291 -0.7672 -0.3063  0.3736
29197SOL    HW288170   8.388   3.824   7.288  1.4581  1.2101  0.9028
29198SOL     OW88171   1.793   1.799   0.319 -0.1556  0.2807 -0.2167
29198SOL    HW188172   1.879   1.838   0.337 -0.2476 -0.0692  1.0374
29198SOL    HW288173   1.735   1.835   0.385  0.0641 -2.9686  1.9918
29199SOL     OW88174   2.816   8.373   5.873 -0.1309 -0.1017 -0.0444
29199SOL    HW188175   2.739   8.430   5.862  1.1462  1.8191  0.4958
29199SOL    HW288176   2.891   8.430   5.857  1.2367 -1.7261  0.2617
29200SOL     OW88177   0.103   3.339   8.044 -0.4399 -0.4167  0.5564
29200SOL    HW188178   0.142   3.326   7.957 -1.8327  1.1061 -0.3589
29200SOL    HW288179   0.176   3.330   8.105  0.5403 -1.6919 -0.7459
29201SOL     OW88180   5.294   7.770   3.642 -0.5096  0.3990 -0.0173
29201SOL    HW188181   5.208   7.743   3.674 -0.8984  1.8560  0.2441
29201SOL    HW288182   5.338   7.688   3.618 -1.1253 -0.5754  1.9381
29202SOL     OW88183   4.443   2.912   7.509  0.1234 -0.0035 -0.3040
29202SOL    HW188184   4.435   2.858   7.588 -0.6048 -0.4067 -0.6436
29202SOL    HW288185   4.396   2.993   7.531 -1.7292 -0.8516 -0.9517
29203SOL     OW88186   9.745   8.413   9.204 -1.2619 -0.2822 -0.0118
29203SOL    HW188187   9.668   8.364   9.232  0.0832 -1.6015  1.5519
29203SOL    HW288188   9.751   8.486   9.266 -1.1712 -0.2603 -0.0468
29204SOL     OW88189   0.910   6.662   6.496 -0.3669  0.2610 -0.4185
29204SOL    HW188190   0.868   6.743   6.523  0.7099 -0.0874  2.7345
29204SOL    HW288191   0.984   6.690   6.443  2.0965  1.8248  3.4010
29205SOL     OW88192   7.685   3.874   8.068 -0.4752 -0.2323  0.3165
29205SOL    HW188193   7.752   3.835   8.012  1.1755  1.1178  1.2621
29205SOL    HW288194   7.718   3.863   8.157 -1.7819 -0.0118  0.8515
29206SOL     OW88195   0.313   9.050   0.127 -0.1038 -0.6065  0.0572
29206SOL    HW188196   0.343   9.059   0.217 -1.6907  0.1303  0.5445
29206SOL    HW288197   0.229   9.005   0.134 -0.4168 -0.2084 -1.0262
29207SOL     OW88198   8.425   8.545   9.489  0.1916  0.2873 -0.4654
29207SOL    HW188199   8.439   8.496   9.408 -0.9625 -1.0199  0.0862
29207SOL    HW288200   8.495   8.517   9.547 -0.8167 -1.2731  0.0647
29208SOL     OW88201   9.218   3.661   7.507 -0.2415 -0.5781 -0.4673
29208SOL    HW188202   9.171   3.677   7.589  0.3754 -1.2430  0.0279
29208SOL    HW288203   9.304   3.699   7.521 -0.2600 -0.3436 -0.9632
29209SOL     OW88204   2.757   4.694   2.436 -0.0269  0.4949 -0.0245
29209SOL    HW188205   2.674   4.672   2.395 -0.2363  1.5130 -0.1563
29209SOL    HW288206   2.813   4.723   2.364  0.1483  0.7002  0.1918
29210SOL     OW88207   3.916   2.099   6.238  0.2236  0.0724  0.1861
29210SOL    HW188208   3.989   2.155   6.210  1.4634 -1.5702 -0.0157
29210SOL    HW288209   3.895   2.046   6.161 -0.7793  0.0923  0.4315
29211SOL     OW88210   2.473   6.220   3.399 -0.2041  0.6234 -0.0322
29211SOL    HW188211   2.499   6.304   3.435  2.0323 -0.2267  0.4995
29211SOL    HW288212   2.524   6.155   3.448  1.5073 -0.7414 -3.2368
29212SOL     OW88213   6.064   2.738   2.733  0.1476 -0.1438  0.2210
29212SOL    HW188214   6.011   2.667   2.770 -1.0304  0.4007 -0.3652
29212SOL    HW288215   6.122   2.694   2.671 -0.0423 -0.6812  0.4166
29213SOL     OW88216   0.894   3.317   0.847 -0.1101  0.0039  0.0858
29213SOL    HW188217   0.958   3.272   0.791 -0.9672 -0.6492 -0.3920
29213SOL    HW288218   0.927   3.304   0.936  2.5340  2.9632 -0.2408
29214SOL     OW88219   4.839   3.464   5.543 -0.0078  0.2370 -0.0910
29214SOL    HW188220   4.910   3.475   5.606  0.3592  2.6820 -0.8170
29214SOL    HW288221   4.883   3.443   5.461 -0.2718 -0.2041 -0.1210
29215SOL     OW88222   1.075   7.577   9.382  0.1605 -0.8395 -0.5203
29215SOL    HW188223   1.096   7.485   9.401  0.9429 -0.7163 -0.7544
29215SOL    HW288224   1.144   7.627   9.427 -0.0714 -0.3804 -0.6680
29216SOL     OW88225   7.378   2.112   3.124 -0.5067 -0.0584  0.1660
29216SOL    HW188226   7.385   2.046   3.193  1.0920 -0.1651 -0.0455
29216SOL    HW288227   7.284   2.124   3.111 -0.8754 -2.6668 -0.1476
29217SOL     OW88228   4.959   3.874   6.861  0.0223 -0.4368  0.1757
29217SOL    HW188229   5.011   3.800   6.892  0.4103  0.3663  1.5306
29217SOL    HW288230   4.922   3.913   6.940 -0.7385  0.4202 -0.5670
29218SOL     OW88231   2.101   1.162   8.603  0.1941  0.0298 -0.0970
29218SOL    HW188232   2.173   1.134   8.659 -0.0095 -0.9505 -0.3013
29218SOL    HW288233   2.115   1.117   8.520 -1.1160 -0.9019  0.1440
29219SOL     OW88234   3.602   5.175   9.475  0.0360 -0.3977 -0.1195
29219SOL    HW188235   3.570   5.243   9.535  0.2481 -0.4131  0.0114
29219SOL    HW288236   3.570   5.093   9.514  0.0463 -0.3971 -0.1094
29220SOL     OW88237   1.509   0.923   4.898  0.0816  0.0302  0.0009
29220SOL    HW188238   1.510   0.858   4.827  0.1440  0.4115 -0.3462
29220SOL    HW288239   1.456   0.995   4.864  0.9883  0.6806 -0.0751
29221SOL     OW88240   5.171   8.251   1.346 -0.5119  0.0530  0.2431
29221SOL    HW188241   5.160   8.269   1.440  1.3533  0.2670  0.4616
29221SOL    HW288242   5.217   8.327   1.312  0.7715 -0.9627 -0.3744
29222SOL     OW88243   3.655   5.606   0.490  0.2216 -0.2179  0.4565
29222SOL    HW188244   3.689   5.547   0.556 -0.7570 -0.8202  0.4428
29222SOL    HW288245   3.611   5.549   0.427  2.0399  0.2304 -1.3215
29223SOL     OW88246   2.993   4.480   3.521  0.1676 -0.3653  0.5602
29223SOL    HW188247   3.048   4.430   3.582  0.3869  0.1218  0.7759
29223SOL    HW288248   2.965   4.416   3.456  0.0205 -0.8765  1.1104
29224SOL     OW88249   9.111   8.014   0.181 -0.0437  0.2054 -0.7206
29224SOL    HW188250   9.086   8.096   0.139 -2.3914  0.3136  0.7082
29224SOL    HW288251   9.184   8.038   0.238 -0.4810  1.2522 -0.5746
29225SOL     OW88252   2.134   7.062   5.389  0.4244  0.0451  0.4114
29225SOL    HW188253   2.097   7.143   5.354  1.8747  0.1219 -1.0826
29225SOL    HW288254   2.188   7.091   5.463  1.7012  0.6179 -0.6954
29226SOL     OW88255   8.333   0.928   5.916 -0.5277  0.0639  0.2528
29226SOL    HW188256   8.275   0.853   5.908 -1.4739  0.9280 -1.5079
29226SOL    HW288257   8.285   1.000   5.877  0.7493  1.3889  1.0159
29227SOL     OW88258   8.110   5.815   2.208 -0.3715  0.5739 -0.1254
29227SOL    HW188259   8.049   5.773   2.147 -0.1628  1.3196 -0.8662
29227SOL    HW288260   8.101   5.765   2.289  0.7246 -1.6621 -1.2819
29228SOL     OW88261   4.561   8.155   8.922 -0.4121 -0.7962  0.2454
29228SOL    HW188262   4.554   8.132   9.015  0.0482 -1.4865  0.1187
29228SOL    HW288263   4.631   8.221   8.919 -1.1565  0.0236  0.5081
29229SOL     OW88264   4.408   5.700   1.037 -0.0604 -0.8387  0.0133
29229SOL    HW188265   4.343   5.672   0.973  0.7970 -0.8979 -0.8569
29229SOL    HW288266   4.457   5.620   1.058  1.2664 -0.3781 -1.1579
29230SOL     OW88267   4.864   8.653   5.626 -0.0778  0.6944 -0.1401
29230SOL    HW188268   4.943   8.603   5.650 -0.5681 -0.0475 -0.0403
29230SOL    HW288269   4.802   8.633   5.696 -0.6711  0.5395 -0.7110
29231SOL     OW88270   3.670   3.040   2.636  0.1758  0.1935 -0.5294
29231SOL    HW188271   3.687   3.016   2.727 -2.9995  1.2909  0.4939
29231SOL    HW288272   3.595   2.986   2.611  0.7883  0.1607 -2.3884
29232SOL     OW88273   2.463   8.246   0.225  0.7475  0.2673  0.0134
29232SOL    HW188274   2.475   8.303   0.149 -0.5966 -0.3074 -0.6647
29232SOL    HW288275   2.493   8.160   0.196 -1.9411 -0.5193 -0.7585
29233SOL     OW88276   0.719   5.035   6.469  0.3882  0.4583  0.1307
29233SOL    HW188277   0.778   4.993   6.532  0.2679  0.3684  0.1870
29233SOL    HW288278   0.756   5.016   6.383  1.5124  2.0567  0.2260
29234SOL     OW88279   0.088   2.131   4.134  0.4389 -0.6035  0.6446
29234SOL    HW188280   0.042   2.110   4.216 -0.1896 -0.7042  0.2734
29234SOL    HW288281   0.074   2.225   4.122  0.2449 -0.6516  0.4840
29235SOL     OW88282   8.068   7.226   8.312 -0.2542  0.2055 -0.1633
29235SOL    HW188283   8.075   7.170   8.389  0.3308  1.0266  0.4077
29235SOL    HW288284   7.985   7.272   8.324 -0.8689 -0.7157 -0.7724
29236SOL     OW88285   0.754   5.484   0.569 -0.1811  0.2114 -0.0301
29236SOL    HW188286   0.720   5.413   0.623 -0.5721 -1.5039 -2.3834
29236SOL    HW288287   0.688   5.553   0.577 -0.2646 -0.0059  1.5558
29237SOL     OW88288   8.236   2.717   5.294  0.5095  0.1268  0.0907
29237SOL    HW188289   8.248   2.806   5.260  0.0580  0.5650  1.0337
29237SOL    HW288290   8.316   2.698   5.342  0.9800 -0.3392 -0.8448
29238SOL     OW88291   0.068   6.551   1.417  0.2208 -0.3361 -0.2820
29238SOL    HW188292   0.016   6.521   1.343  1.3412  0.7860 -1.5918
29238SOL    HW288293   0.014   6.618   1.459  0.6166  0.9911 -1.7669
29239SOL     OW88294   8.296   8.799   8.822 -0.1930  0.2629 -0.3569
29239SOL    HW188295   8.354   8.760   8.757  1.3446 -1.0438  1.6864
29239SOL    HW288296   8.237   8.728   8.848 -1.5484  1.0787 -1.0496
29240SOL     OW88297   9.667   0.797   5.133  0.1571  0.0392 -0.5460
29240SOL    HW188298   9.619   0.752   5.202  0.2326  0.5073 -0.1876
29240SOL    HW288299   9.622   0.771   5.052  0.9605 -1.6638 -0.4839
29241SOL     OW88300   1.715   3.615   7.306 -0.0435  0.3662  0.2241
29241SOL    HW188301   1.645   3.576   7.255 -0.2331  1.9631 -0.8160
29241SOL    HW288302   1.795   3.577   7.270 -0.1758  1.4906 -1.3378
29242SOL     OW88303   0.314   2.545   9.051  0.5001  0.6691  0.1929
29242SOL    HW188304   0.347   2.491   9.122  0.1015  1.4515  0.9929
29242SOL    HW288305   0.363   2.516   8.974  2.1987  0.9804  1.1003
29243SOL     OW88306   0.709   8.498   4.787 -0.0014  0.1677 -0.5382
29243SOL    HW188307   0.626   8.501   4.835 -0.2169 -1.1388 -0.8119
29243SOL    HW288308   0.697   8.429   4.722  0.7777  0.9705 -1.5816
29244SOL     OW88309   1.018   6.246   7.953  0.8307 -0.0773 -0.3745
29244SOL    HW188310   1.064   6.278   7.876  0.4582  0.5045 -0.3588
29244SOL    HW288311   1.081   6.255   8.025  0.7345  0.6170 -0.3724
29245SOL     OW88312   9.298   1.421   4.055  0.6251 -0.1342  0.0701
29245SOL    HW188313   9.333   1.470   4.130 -0.9473  1.4719 -0.1682
29245SOL    HW288314   9.344   1.459   3.979  1.3975 -0.9751  0.1043
29246SOL     OW88315   1.605   3.754   9.291 -0.5666  0.1491 -0.1414
29246SOL    HW188316   1.648   3.780   9.210  1.9433 -0.3639  0.9466
29246SOL    HW288317   1.583   3.661   9.277  0.8217 -0.2340  0.1241
29247SOL     OW88318   5.634   8.988   9.006  0.0855  0.1160 -0.7865
29247SOL    HW188319   5.581   9.060   8.970  1.1821  0.9805 -0.7302
29247SOL    HW288320   5.692   8.964   8.934  1.2150  0.7885 -0.1240
29248SOL     OW88321   6.690   6.144   9.857  1.0180  0.3085 -0.0646
29248SOL    HW188322   6.663   6.054   9.839  1.6592 -0.0583  0.7433
29248SOL    HW288323   6.612   6.187   9.891  0.5593  0.2199 -0.9817
29249SOL     OW88324   5.731   4.477   7.404 -0.6541  0.2430 -0.0606
29249SOL    HW188325   5.806   4.532   7.424 -0.6594  1.6045 -3.1959
29249SOL    HW288326   5.658   4.538   7.395 -1.2812 -0.5899 -0.8444
29250SOL     OW88327   4.770   5.588   3.891  0.0340  0.5964 -0.5191
29250SOL    HW188328   4.725   5.613   3.811 -0.2608  1.7540 -0.0159
29250SOL    HW288329   4.768   5.667   3.945 -0.9402 -0.5267  1.1678
29251SOL     OW88330   3.157   5.121   1.051  0.3439 -0.5259 -0.0631
29251SOL    HW188331   3.253   5.117   1.047  0.3166 -1.2656 -0.0802
29251SOL    HW288332   3.135   5.203   1.007  0.9895 -0.1782  0.2578
29252SOL     OW88333   5.754   0.596   2.411 -0.2752  0.2425  0.2235
29252SOL    HW188334   5.792   0.667   2.464 -0.2364 -0.2583  0.8837
29252SOL    HW288335   5.692   0.639   2.353  0.2269  0.8978  0.1582
29253SOL     OW88336   0.899   2.678   5.263 -0.0067 -0.2678  0.6579
29253SOL    HW188337   0.949   2.603   5.295  0.6227  0.5894  1.7441
29253SOL    HW288338   0.966   2.742   5.239 -0.4619 -0.5483 -1.6892
29254SOL     OW88339   3.681   5.906   4.188 -0.2661 -0.5146  0.2518
29254SOL    HW188340   3.747   5.889   4.255  0.4435 -0.4315 -0.4124
29254SOL    HW288341   3.678   6.002   4.181 -1.8180 -0.4261  1.5949
29255SOL     OW88342   0.158   8.882   8.387 -0.2504 -0.4633 -0.0003
29255SOL    HW188343   0.202   8.894   8.303  0.2877 -1.6217  0.1043
29255SOL    HW288344   0.064   8.888   8.366 -0.1263  2.7471 -0.1075
29256SOL     OW88345   6.720   2.984   2.269 -0.1469 -0.0247  0.0767
29256SOL    HW188346   6.778   2.994   2.345  1.2006 -0.0926 -0.9163
29256SOL    HW288347   6.779   2.975   2.194 -1.4464 -0.1378 -0.9726
29257SOL     OW88348   2.500   8.617   1.265  0.1203 -0.4118  0.1809
29257SOL    HW188349   2.508   8.531   1.306  2.6259  0.7482  2.4535
29257SOL    HW288350   2.406   8.631   1.256 -0.3761 -2.8929  0.8350
29258SOL     OW88351   9.778   1.860   5.044 -0.2949  0.0206  0.0405
29258SOL    HW188352   9.740   1.903   4.968 -0.4000  1.0673  0.6600
29258SOL    HW288353   9.848   1.806   5.009 -1.6154 -1.0726 -1.0070
29259SOL     OW88354   8.354   4.676   2.808  0.2127  0.9544  0.0261
29259SOL    HW188355   8.322   4.701   2.721 -1.6923  0.2488  0.4735
29259SOL    HW288356   8.278   4.638   2.851  1.4580  0.0877  1.5517
29260SOL     OW88357   8.278   9.711   1.011 -0.1238  0.1102  0.1162
29260SOL    HW188358   8.200   9.705   0.957  0.3910  0.6797 -0.7238
29260SOL    HW288359   8.350   9.688   0.952  0.4746  1.0184  0.4688
29261SOL     OW88360   8.415   7.226   6.949  0.2675 -0.0555 -0.3513
29261SOL    HW188361   8.379   7.196   6.865  0.2904  0.3939 -0.5272
29261SOL    HW288362   8.344   7.275   6.990  0.1019 -0.6676  0.1103
29262SOL     OW88363   1.141   4.503   9.437  0.1154 -0.2763 -0.0336
29262SOL    HW188364   1.168   4.429   9.383  1.8427  1.3047 -1.5048
29262SOL    HW288365   1.120   4.572   9.374 -0.3470  0.8368  1.2906
29263SOL     OW88366   2.967   6.147   2.925  0.4602  0.2133  0.2478
29263SOL    HW188367   3.008   6.152   2.839 -0.1369 -0.9554 -0.1247
29263SOL    HW288368   2.926   6.061   2.927 -1.5889  1.1226  0.7717
29264SOL     OW88369   4.831   7.257   5.263 -0.2775 -0.5168  0.7637
29264SOL    HW188370   4.753   7.292   5.220 -0.6604 -1.0186  1.0237
29264SOL    HW288371   4.876   7.334   5.298  0.3401 -0.0543 -1.0004
29265SOL     OW88372   5.185   7.452   2.779 -0.1347  0.0900 -0.2722
29265SOL    HW188373   5.132   7.531   2.791  1.2189  0.8354  0.9652
29265SOL    HW288374   5.257   7.479   2.722  0.4684 -0.1751  0.3486
29266SOL     OW88375   3.458   0.029   0.083 -0.1210 -0.1796 -0.7291
29266SOL    HW188376   3.515   0.102   0.059  0.3440  0.1357  1.1244
29266SOL    HW288377   3.487  -0.044   0.028 -1.2451  1.2175 -3.3391
29267SOL     OW88378   9.907   3.671   8.251  0.0510  1.1846  0.6975
29267SOL    HW188379   9.866   3.701   8.332 -0.2405  2.5714  0.0514
29267SOL    HW288380   9.891   3.741   8.188  1.6177  0.8351 -0.1364
29268SOL     OW88381   0.288   8.122   7.036  0.6238  0.0470 -0.4815
29268SOL    HW188382   0.303   8.206   7.080  0.2327 -0.3503  0.4415
29268SOL    HW288383   0.354   8.063   7.073  1.6624  0.2173 -1.9755
29269SOL     OW88384   2.867   2.516   2.478 -0.0499 -0.2255 -0.2845
29269SOL    HW188385   2.944   2.459   2.485 -0.1138 -0.3666 -0.7304
29269SOL    HW288386   2.838   2.508   2.387 -0.1986  0.3408 -0.2946
29270SOL     OW88387   9.860   6.762   5.972 -0.0306 -0.2841  0.2599
29270SOL    HW188388   9.900   6.736   6.055 -1.4771 -1.3630  0.6740
29270SOL    HW288389   9.782   6.811   5.998 -0.4028 -0.4761 -0.4686
29271SOL     OW88390   7.315   3.814   2.645  0.0751 -0.3100  0.2652
29271SOL    HW188391   7.293   3.803   2.737 -1.0786  0.4429  0.0966
29271SOL    HW288392   7.393   3.760   2.632  1.0209  0.5722  1.9644
29272SOL     OW88393   3.305   5.438   6.396  0.4120 -0.9942  0.0010
29272SOL    HW188394   3.358   5.404   6.468 -1.6447 -0.6505  1.7720
29272SOL    HW288395   3.218   5.452   6.434 -0.0648  1.8907 -1.7763
29273SOL     OW88396   9.424   1.274   1.188 -0.7742  0.1563 -0.6598
29273SOL    HW188397   9.504   1.295   1.235 -1.3138  1.3233 -0.2353
29273SOL    HW288398   9.399   1.187   1.221  0.3150 -0.2317 -0.8238
29274SOL     OW88399   3.221   5.313   8.246  0.1094 -0.4284  0.3748
29274SOL    HW188400   3.231   5.392   8.299  1.6683  0.3503 -0.9948
29274SOL    HW288401   3.131   5.318   8.212  0.0335  0.4947  0.6817
29275SOL     OW88402   0.943   0.320   1.939  0.6879 -0.4929 -0.6297
29275SOL    HW188403   1.008   0.370   1.890 -0.1136 -0.0997 -1.3191
29275SOL    HW288404   0.951   0.231   1.906  1.3470 -0.5938 -0.2107
29276SOL     OW88405   9.121   6.764   9.445 -0.1706 -0.1081 -0.1292
29276SOL    HW188406   9.098   6.721   9.362 -0.0687 -0.8648  0.2265
29276SOL    HW288407   9.037   6.785   9.485 -0.2215  0.3856 -0.4819
29277SOL     OW88408   9.861   6.419   5.157  0.9401 -0.1027 -0.1777
29277SOL    HW188409   9.952   6.444   5.142  1.4247  0.5107  2.9228
29277SOL    HW288410   9.859   6.392   5.249 -1.8593 -0.8956 -0.3821
29278SOL     OW88411   9.215   1.677   7.908 -0.1196 -0.1683 -0.2645
29278SOL    HW188412   9.192   1.708   7.996 -2.0682 -0.5585 -0.5820
29278SOL    HW288413   9.281   1.609   7.923  0.1496  0.3088  0.8381
29279SOL     OW88414   4.178   7.729   4.441 -0.1086  0.9598 -0.5483
29279SOL    HW188415   4.147   7.820   4.438 -0.2575  0.9357  0.2383
29279SOL    HW288416   4.230   7.724   4.520 -0.9720  0.0843 -0.0219
29280SOL     OW88417   8.760   9.525   3.565 -0.1936  0.0040 -0.2388
29280SOL    HW188418   8.791   9.450   3.617 -0.7379  0.2764  0.4882
29280SOL    HW288419   8.711   9.485   3.493 -0.0336 -0.3503 -0.1552
29281SOL     OW88420   2.875   7.504   3.111 -0.1700 -0.0928  0.5095
29281SOL    HW188421   2.906   7.595   3.113 -2.9703  0.9483  0.0401
29281SOL    HW288422   2.867   7.483   3.018 -1.5569 -0.0444  0.6009
29282SOL     OW88423   0.774   3.137   1.235 -0.7329 -0.0399 -0.1150
29282SOL    HW188424   0.780   3.102   1.324 -1.6244 -1.3195 -0.5247
29282SOL    HW288425   0.708   3.082   1.192  0.0830  0.1835 -1.7367
29283SOL     OW88426   9.053   9.414   2.034 -0.1581 -0.3093  0.7053
29283SOL    HW188427   8.966   9.443   2.007  1.1211  0.0688 -3.7971
29283SOL    HW288428   9.095   9.494   2.067 -0.4053  0.3220 -0.4655
29284SOL     OW88429   9.023   7.973   4.012 -0.1189  0.0680 -0.3204
29284SOL    HW188430   9.104   8.023   4.016  0.5872 -1.1182  1.2459
29284SOL    HW288431   9.024   7.932   3.925 -0.8526  2.8643 -1.7699
29285SOL     OW88432   5.610   7.099   5.187 -0.2378  0.1140  0.1628
29285SOL    HW188433   5.585   7.162   5.254 -0.5901  0.5347 -0.3518
29285SOL    HW288434   5.677   7.044   5.228  0.1689  0.9060  0.5675
29286SOL     OW88435   0.228   5.015   2.890 -0.2032  0.3219  0.7331
29286SOL    HW188436   0.151   4.977   2.930 -1.3063  1.4469 -0.2343
29286SOL    HW288437   0.244   4.962   2.812 -0.1837  0.2830  0.7636
29287SOL     OW88438   2.221   1.413   5.128  0.6361  0.0303 -0.3863
29287SOL    HW188439   2.193   1.442   5.215 -0.8416 -2.5944  0.1100
29287SOL    HW288440   2.208   1.490   5.072  0.6204  1.4598  1.4894
29288SOL     OW88441   2.104   0.711   9.828 -0.1101 -0.3730  0.0505
29288SOL    HW188442   2.071   0.656   9.900  1.0043 -0.5715  0.4330
29288SOL    HW288443   2.062   0.795   9.841 -1.7165 -1.0647 -0.4392
29289SOL     OW88444   5.557   6.927   9.974 -0.6251 -0.1205  0.6556
29289SOL    HW188445   5.565   6.957   9.883  1.6588 -1.8302  0.1844
29289SOL    HW288446   5.632   6.964  10.019 -0.6004 -0.9375  1.3199
29290SOL     OW88447   5.831   9.709   0.586  0.5667 -0.4568  0.0528
29290SOL    HW188448   5.801   9.677   0.501 -0.5251 -1.4966  0.7961
29290SOL    HW288449   5.920   9.740   0.569 -0.0122  0.4268 -1.6942
29291SOL     OW88450   2.485   7.884   5.117 -0.1852  0.1232 -0.4650
29291SOL    HW188451   2.537   7.833   5.055  0.0525 -0.2117  0.0070
29291SOL    HW288452   2.465   7.823   5.188  0.8154  0.9020  0.5283
29292SOL     OW88453   3.988   7.064   3.741  0.3606 -0.2818 -0.3690
29292SOL    HW188454   3.902   7.035   3.709  0.2072 -0.4019  0.1460
29292SOL    HW288455   3.968   7.121   3.815  0.7187 -0.1066 -0.4086
29293SOL     OW88456   0.015   1.138   2.918  0.1259 -0.0839 -0.3227
29293SOL    HW188457   0.080   1.191   2.873 -0.4794 -0.6199 -1.8850
29293SOL    HW288458  -0.040   1.201   2.965  0.5377  0.5232 -0.6498
29294SOL     OW88459   5.072   3.863   3.887  0.2529 -0.6494  0.2689
29294SOL    HW188460   5.068   3.933   3.822 -0.2103 -0.0374  0.9481
29294SOL    HW288461   5.137   3.892   3.950  0.5040 -1.1193  0.2305
29295SOL     OW88462   2.572   6.020   0.879  0.2979 -0.0500 -0.4061
29295SOL    HW188463   2.590   5.985   0.791 -2.3460 -0.2075 -0.9651
29295SOL    HW288464   2.641   6.086   0.893  1.5285 -0.9158 -2.0406
29296SOL     OW88465   0.956   4.570   6.740 -0.8845  0.6326  0.2944
29296SOL    HW188466   1.000   4.629   6.801 -2.3237  0.4564  1.5806
29296SOL    HW288467   0.966   4.611   6.655  1.1644  0.9062  0.6098
29297SOL     OW88468   2.752   5.552   1.520 -0.4778  0.6354  0.0723
29297SOL    HW188469   2.766   5.515   1.607  0.5824 -0.2534 -0.4335
29297SOL    HW288470   2.657   5.553   1.509 -0.6393  1.0543  1.3452
29298SOL     OW88471   3.530   1.023   3.074  0.0946 -0.0743  0.3142
29298SOL    HW188472   3.576   1.097   3.113 -2.4968  1.5074  0.6543
29298SOL    HW288473   3.578   1.003   2.994  1.1312  1.6995  0.4487
29299SOL     OW88474   6.284   9.028   0.390  1.1321 -0.2646 -0.1751
29299SOL    HW188475   6.322   9.041   0.477  0.5309  0.1353  0.0400
29299SOL    HW288476   6.242   8.942   0.396 -0.2249  0.3995  0.4539
29300SOL     OW88477   6.962   0.894   5.730  0.0030  0.4594  0.2275
29300SOL    HW188478   7.043   0.849   5.710  0.2019  1.5160 -1.5937
29300SOL    HW288479   6.988   0.968   5.785 -0.3369 -1.5112  3.3092
29301SOL     OW88480   1.548   8.272   8.892 -0.2936 -0.2882  0.1509
29301SOL    HW188481   1.628   8.300   8.848 -1.2261  1.9320 -0.2322
29301SOL    HW288482   1.510   8.206   8.834  0.7010 -0.5871 -0.1709
29302SOL     OW88483   3.134   1.247   5.404  0.6394  0.0151  0.3582
29302SOL    HW188484   3.189   1.169   5.406  1.3202  0.3479 -2.1286
29302SOL    HW288485   3.054   1.220   5.358 -1.1832 -0.3056  3.4081
29303SOL     OW88486   8.198   6.816   3.046 -0.0125 -0.8161  0.4832
29303SOL    HW188487   8.124   6.812   2.986  0.3750 -0.5871 -0.0191
29303SOL    HW288488   8.161   6.844   3.129 -0.3741  0.0426  0.0408
29304SOL     OW88489   0.012   5.751   8.737  0.1433  0.5249  0.1948
29304SOL    HW188490   0.035   5.833   8.693 -0.3620  0.2669 -0.5642
29304SOL    HW288491   0.074   5.745   8.810  0.6932  1.1901 -0.2044
29305SOL     OW88492   2.061   4.572   5.968  0.2292  0.1449 -0.1900
29305SOL    HW188493   2.052   4.662   5.999  0.4240  0.1849 -0.2429
29305SOL    HW288494   2.019   4.571   5.882  2.5330  0.8723 -1.4219
29306SOL     OW88495   2.307   2.198   8.312  0.3750  0.6621  0.7694
29306SOL    HW188496   2.215   2.225   8.319 -0.3206 -0.9617 -1.2775
29306SOL    HW288497   2.333   2.178   8.402 -1.2473  1.2233  1.3993
29307SOL     OW88498   7.980   9.039   2.306  0.1296  0.3628 -0.2411
29307SOL    HW188499   8.074   9.045   2.293  0.4359  0.6311  1.7780
29307SOL    HW288500   7.946   9.126   2.284  0.4184  0.4110 -0.4916
29308SOL     OW88501   4.206   7.643   5.062  0.2251  0.0066  0.2587
29308SOL    HW188502   4.277   7.681   5.010  0.5567  0.4829  1.0556
29308SOL    HW288503   4.191   7.706   5.132 -0.5675 -0.3916  0.4571
29309SOL     OW88504   0.341   3.825   9.661 -0.3492  0.6714 -0.1778
29309SOL    HW188505   0.321   3.886   9.591  0.4399  1.8497  0.5795
29309SOL    HW288506   0.344   3.879   9.740 -1.4162 -0.6407  0.8140
29310SOL     OW88507   9.214   6.750   1.757  0.3632  0.0710  0.6639
29310SOL    HW188508   9.123   6.720   1.756 -0.4927  2.4672  0.4559
29310SOL    HW288509   9.208   6.843   1.778  2.7484  0.3882  0.1748
29311SOL     OW88510   9.456   4.131   1.028 -0.6184  0.9016 -0.0558
29311SOL    HW188511   9.467   4.128   1.123  0.9526 -0.7264 -0.2369
29311SOL    HW288512   9.459   4.224   1.007  1.0595  1.2105  1.3150
29312SOL     OW88513   3.292   0.900   8.284  0.0381 -0.3232 -0.5471
29312SOL    HW188514   3.346   0.972   8.251  1.4587 -0.5774  1.0943
29312SOL    HW288515   3.218   0.895   8.222 -0.2762  2.6973 -0.5747
29313SOL     OW88516   3.828   2.230   9.573 -0.2691 -0.3792  0.2149
29313SOL    HW188517   3.878   2.246   9.493  0.6095  0.8354  0.9646
29313SOL    HW288518   3.752   2.288   9.566 -0.2776 -0.3941  0.1856
29314SOL     OW88519   5.203   2.165   4.078  0.1317  0.5300  0.0451
29314SOL    HW188520   5.249   2.238   4.120 -0.1451  0.4955  0.4231
29314SOL    HW288521   5.147   2.129   4.148  0.4911 -0.2366 -0.0494
29315SOL     OW88522   2.058   5.455   5.050  0.1457 -0.1198 -0.8431
29315SOL    HW188523   2.047   5.369   5.010  0.6512 -0.3796 -0.4502
29315SOL    HW288524   2.025   5.517   4.986 -1.0035 -0.6633 -0.7918
29316SOL     OW88525   6.835   4.103   3.046  0.0955 -0.5065  0.0899
29316SOL    HW188526   6.900   4.160   3.086  0.8329 -0.7744 -0.7006
29316SOL    HW288527   6.820   4.141   2.959  1.3623 -2.0537 -0.8623
29317SOL     OW88528   2.784   8.087   0.407 -0.0024 -0.7623  0.1500
29317SOL    HW188529   2.702   8.039   0.413 -1.7674  1.7658 -1.4539
29317SOL    HW288530   2.791   8.134   0.491 -1.5348  0.8489 -0.5656
29318SOL     OW88531   2.421   9.796   4.354 -0.4561  0.0473  0.3518
29318SOL    HW188532   2.511   9.819   4.376 -0.0632 -2.0078  1.1232
29318SOL    HW288533   2.374   9.799   4.438 -0.4664 -1.4868  0.4197
29319SOL     OW88534   8.093   5.692   2.460  0.1887 -0.0388  0.0002
29319SOL    HW188535   8.064   5.601   2.449 -0.4677  0.0626  0.8234
29319SOL    HW288536   8.014   5.740   2.484  0.5070  0.7855 -0.5607
29320SOL     OW88537   1.300   8.533   8.747 -0.5489  0.3887  0.1729
29320SOL    HW188538   1.219   8.531   8.797 -1.5609  0.9584 -1.3958
29320SOL    HW288539   1.304   8.447   8.704  0.1686  0.0175  0.9292
29321SOL     OW88540   4.026   1.046   9.882  0.9680  0.7313  0.0857
29321SOL    HW188541   3.964   1.065   9.952  0.2504  0.2314 -0.4055
29321SOL    HW288542   3.980   1.070   9.801  0.6288 -1.4669 -0.4388
29322SOL     OW88543   0.374   3.774   1.653 -0.7429 -0.1839 -0.0023
29322SOL    HW188544   0.446   3.825   1.690  0.0514 -2.6232  2.0802
29322SOL    HW288545   0.401   3.756   1.563  2.1697 -2.3707  1.1515
29323SOL     OW88546   1.061   6.215   3.835  0.2146 -0.1920 -0.7345
29323SOL    HW188547   0.977   6.260   3.843  1.1111  1.2720  0.9840
29323SOL    HW288548   1.118   6.277   3.789  1.0234 -0.2081  0.2276
29324SOL     OW88549   3.695   4.961   5.649  0.3361 -0.1915 -0.2996
29324SOL    HW188550   3.727   4.872   5.637  2.2745  0.4587 -0.3203
29324SOL    HW288551   3.689   4.996   5.560  2.5591  0.6269 -0.1914
29325SOL     OW88552   0.734   6.531   7.433  0.2854 -0.0836 -0.0005
29325SOL    HW188553   0.682   6.574   7.365  2.6125  1.4030 -0.9759
29325SOL    HW288554   0.785   6.465   7.386  1.3341  0.4157  0.3976
29326SOL     OW88555   7.218   8.192   2.763 -0.0740  0.6269 -0.0962
29326SOL    HW188556   7.216   8.258   2.832 -0.1546  0.1103  0.4052
29326SOL    HW288557   7.201   8.241   2.683 -1.5412  1.0365  0.4182
29327SOL     OW88558   7.961   7.351   6.608  0.3902  0.8224 -0.2602
29327SOL    HW188559   7.895   7.324   6.545  0.5638  0.4132 -0.2676
29327SOL    HW288560   7.911   7.382   6.683  0.1792  1.4683 -0.6549
29328SOL     OW88561   3.196   6.679   0.782 -0.3789 -0.5551  0.1078
29328SOL    HW188562   3.282   6.657   0.818  0.9095  2.7988 -0.5175
29328SOL    HW288563   3.196   6.639   0.694  0.6520 -0.4086  0.0271
29329SOL     OW88564   0.834   1.662   1.338 -0.0998 -0.4007 -0.1241
29329SOL    HW188565   0.746   1.662   1.301  0.1668  0.7397 -0.7877
29329SOL    HW288566   0.844   1.574   1.377 -1.8898 -0.1919  0.8888
29330SOL     OW88567   5.881   0.056   8.473  0.3338  0.0652 -0.0687
29330SOL    HW188568   5.819   0.013   8.531  1.3914  1.5067  2.2648
29330SOL    HW288569   5.839   0.139   8.449 -0.2801 -0.6988 -1.8192
29331SOL     OW88570   0.813   9.413   3.074  0.0783 -0.6580  0.4135
29331SOL    HW188571   0.776   9.414   3.162  3.1387 -0.9058  1.8313
29331SOL    HW288572   0.902   9.449   3.084  0.7905 -1.3196 -2.4419
29332SOL     OW88573   7.950   7.904   4.001  0.4133 -0.2331 -0.5835
29332SOL    HW188574   8.046   7.903   4.008  0.4110 -0.9516 -0.6315
29332SOL    HW288575   7.920   7.845   4.070  0.0010 -0.0750 -0.6242
29333SOL     OW88576   8.742   5.692   0.878 -0.2774  0.0776 -0.1166
29333SOL    HW188577   8.733   5.786   0.895 -0.4491 -0.2035  1.5799
29333SOL    HW288578   8.657   5.656   0.902  0.2935 -0.6911  0.8297
29334SOL     OW88579   0.151   3.066   1.025 -0.0061 -0.2176 -0.3062
29334SOL    HW188580   0.111   3.152   1.017  1.5374  0.5449 -0.1320
29334SOL    HW288581   0.179   3.044   0.937  0.4453 -0.1073 -0.1936
29335SOL     OW88582   7.292   5.644   8.363 -0.4480  0.1866 -0.5560
29335SOL    HW188583   7.210   5.636   8.315 -0.5805  0.2020 -0.3328
29335SOL    HW288584   7.328   5.555   8.365 -1.4807 -0.2346  1.1477
29336SOL     OW88585   0.825   9.824   2.120 -0.2846 -0.2576 -0.6654
29336SOL    HW188586   0.768   9.764   2.167  0.7839 -0.7181  0.0747
29336SOL    HW288587   0.765   9.876   2.066 -1.5895  0.4161  1.3141
29337SOL     OW88588   9.107   7.338   7.700  0.2406  0.8541  0.2137
29337SOL    HW188589   9.095   7.359   7.792 -2.5759  0.5664 -0.0132
29337SOL    HW288590   9.159   7.411   7.666  0.3088  1.5740  1.7587
29338SOL     OW88591   9.791   0.243   1.407  0.0902 -0.0009  0.0287
29338SOL    HW188592   9.789   0.195   1.490 -3.9552 -0.6258 -0.2426
29338SOL    HW288593   9.767   0.332   1.431  2.7732  0.8435 -0.1049
29339SOL     OW88594   4.933   5.655   0.310  0.3206 -0.2719 -0.4226
29339SOL    HW188595   4.928   5.703   0.393  0.4595 -0.2404 -0.4336
29339SOL    HW288596   5.006   5.595   0.321  0.3433 -0.2634 -0.5246
29340SOL     OW88597   1.623   3.074   5.271 -0.2912  0.6297 -0.0420
29340SOL    HW188598   1.613   3.145   5.207 -0.9350  0.2086 -0.4185
29340SOL    HW288599   1.534   3.047   5.291 -0.0568 -0.0549  0.1200
29341SOL     OW88600   8.849   5.165   1.903 -0.3808  0.0051  0.0730
29341SOL    HW188601   8.820   5.208   1.984 -2.3204 -2.1579  0.6539
29341SOL    HW288602   8.772   5.116   1.874  1.2484 -1.8528 -1.3220
29342SOL     OW88603   1.042   2.046   9.459 -0.1004 -0.2126 -0.3598
29342SOL    HW188604   1.118   2.099   9.433  0.3950 -0.7601 -0.0274
29342SOL    HW288605   1.014   2.004   9.377 -0.0275 -0.0368 -0.4769
29343SOL     OW88606   1.392   2.291   5.404 -0.0780 -0.7411 -0.0559
29343SOL    HW188607   1.324   2.223   5.401  1.2330 -2.1377  0.7363
29343SOL    HW288608   1.366   2.346   5.477 -0.2045 -1.4468  0.4431
29344SOL     OW88609   0.763   1.212   9.327 -0.0964  0.3636 -0.2689
29344SOL    HW188610   0.789   1.120   9.328  0.6444  0.5281  2.1155
29344SOL    HW288611   0.699   1.218   9.256  1.3182 -1.5277 -1.8258
29345SOL     OW88612   1.899   8.668   9.654 -0.8180  0.3558 -0.9106
29345SOL    HW188613   1.816   8.703   9.621 -0.9372  0.3923 -0.5758
29345SOL    HW288614   1.898   8.576   9.628  0.0331  0.8451 -2.8505
29346SOL     OW88615   8.544   7.006   5.433  0.2121  0.0126  0.6317
29346SOL    HW188616   8.518   7.058   5.357 -0.1289  2.0394  2.0256
29346SOL    HW288617   8.536   7.067   5.507  4.9802 -0.3470  1.7787
29347SOL     OW88618   1.100   4.741   7.348  0.5259  0.0455  0.0377
29347SOL    HW188619   1.180   4.775   7.388  1.2112 -0.5292 -0.8100
29347SOL    HW288620   1.103   4.771   7.258 -0.4101  0.3283  0.0893
29348SOL     OW88621   7.741   7.026   8.077 -0.2199  0.7601 -0.8514
29348SOL    HW188622   7.678   7.028   8.005 -1.7708  1.5470  0.4388
29348SOL    HW288623   7.717   7.102   8.131  0.6392 -0.0077  0.6724
29349SOL     OW88624   9.882   5.029   2.443 -0.1324  0.9402  0.0223
29349SOL    HW188625   9.923   5.042   2.528  0.1451  1.4093 -0.1814
29349SOL    HW288626   9.935   5.081   2.382 -0.0760  0.2822 -0.5053
29350SOL     OW88627   7.970   7.805   9.898  0.3608  0.3727  0.1678
29350SOL    HW188628   8.005   7.808   9.808 -1.0394  0.5790 -0.4002
29350SOL    HW288629   7.876   7.820   9.887 -0.1468 -1.5137  1.4945
29351SOL     OW88630   9.335   4.313   4.338 -0.0252  0.5077 -0.2094
29351SOL    HW188631   9.421   4.284   4.310  0.0745 -0.0595  0.6558
29351SOL    HW288632   9.344   4.408   4.350 -0.1357  0.8176 -2.2406
29352SOL     OW88633   1.847   3.578   4.339 -0.3554  0.2184 -0.3131
29352SOL    HW188634   1.837   3.546   4.249 -1.0423  1.6815 -0.7817
29352SOL    HW288635   1.789   3.522   4.391 -0.0671 -0.5406 -0.7873
29353SOL     OW88636   7.797   1.343   8.672 -0.3556 -0.2041 -0.3213
29353SOL    HW188637   7.828   1.427   8.640  0.2833  0.2450  1.4206
29353SOL    HW288638   7.739   1.364   8.745  0.3055 -1.2656  0.5493
29354SOL     OW88639   7.959   0.614   2.735 -0.1098 -0.2396 -0.6439
29354SOL    HW188640   7.921   0.586   2.652 -3.1583 -0.0944  0.5853
29354SOL    HW288641   7.910   0.567   2.802  0.4392  1.5951  1.1804
29355SOL     OW88642   5.325   1.206   6.431  0.1211 -0.1906  0.7397
29355SOL    HW188643   5.419   1.208   6.415  0.1081 -0.9268  0.5250
29355SOL    HW288644   5.297   1.122   6.394 -0.3960 -0.6073  2.0530
29356SOL     OW88645   6.404   1.592   2.269 -0.1217 -0.6501 -0.2082
29356SOL    HW188646   6.350   1.537   2.326 -0.7726  0.2479  0.0612
29356SOL    HW288647   6.493   1.558   2.280 -0.1155 -0.0723  1.8617
29357SOL     OW88648   3.747   6.759   8.094 -0.3481  0.2038 -0.4612
29357SOL    HW188649   3.653   6.768   8.107 -0.3955  1.2855 -1.3818
29357SOL    HW288650   3.764   6.665   8.105 -1.3377  0.1523  0.8029
29358SOL     OW88651   3.369   3.015   0.074  0.2654 -0.0108  0.1010
29358SOL    HW188652   3.354   2.959   0.151  2.1787 -0.2032  0.3739
29358SOL    HW288653   3.452   2.983   0.037 -0.8057 -0.1988 -2.3235
29359SOL     OW88654   3.977   2.971   7.059  0.1540 -0.4804  0.0041
29359SOL    HW188655   4.049   3.029   7.037 -1.8004  2.5635  1.0702
29359SOL    HW288656   3.964   2.984   7.153 -1.5655 -1.2493 -0.0980
29360SOL     OW88657   7.523   4.424   3.674  0.0165  0.7656  0.3012
29360SOL    HW188658   7.610   4.384   3.677  0.1479  1.0789  0.7645
29360SOL    HW288659   7.498   4.434   3.765 -1.5904 -1.5984  0.1915
29361SOL     OW88660   7.382   1.944   3.351  0.6201  0.0308  0.3621
29361SOL    HW188661   7.318   1.902   3.408  1.0625 -0.6147  0.3982
29361SOL    HW288662   7.444   1.985   3.411  0.9117 -0.3817  0.3461
29362SOL     OW88663   2.694   9.691   4.007  0.5380  0.1937 -0.0800
29362SOL    HW188664   2.753   9.761   4.033 -1.4445  2.3548 -0.9596
29362SOL    HW288665   2.676   9.708   3.914 -0.6456 -0.9610 -0.0967
29363SOL     OW88666   9.136   4.844   5.248  0.1342 -0.3110 -0.3414
29363SOL    HW188667   9.101   4.930   5.227  1.7523  0.2794 -0.7475
29363SOL    HW288668   9.104   4.826   5.336 -1.4939 -0.0025 -0.8311
29364SOL     OW88669   8.306   8.479   6.005  0.0162  0.0116 -0.1427
29364SOL    HW188670   8.395   8.455   5.978 -1.0960 -2.1707 -2.1958
29364SOL    HW288671   8.302   8.574   5.993  2.1947  0.2708  0.5758
29365SOL     OW88672   9.146   3.795   8.484  0.2891 -0.0674  0.3644
29365SOL    HW188673   9.194   3.876   8.498 -1.6583  1.0499  0.9393
29365SOL    HW288674   9.074   3.798   8.546 -1.2936 -1.0226 -1.3206
29366SOL     OW88675   2.668   9.269   3.802  0.3262 -0.8156 -0.1529
29366SOL    HW188676   2.730   9.337   3.827 -0.9595  0.0606  0.7524
29366SOL    HW288677   2.657   9.280   3.708  0.2211  0.1560 -0.0379
29367SOL     OW88678   0.538   4.350   3.512  0.2736 -0.2675 -0.3226
29367SOL    HW188679   0.502   4.317   3.430  0.1310  0.3611 -0.5191
29367SOL    HW288680   0.628   4.316   3.514 -0.2994 -1.8452  0.1735
29368SOL     OW88681   1.185   9.924   4.525  0.3692  0.2093  0.0778
29368SOL    HW188682   1.227  10.008   4.547  0.0511  0.7093 -1.1270
29368SOL    HW288683   1.161   9.886   4.609  3.1015 -0.0447  0.8435
29369SOL     OW88684   3.026   0.349   0.294 -0.1807  0.0021  0.7041
29369SOL    HW188685   2.968   0.422   0.272  0.7763  1.5259  2.8970
29369SOL    HW288686   2.970   0.288   0.342 -0.9589 -0.7245 -1.0416
29370SOL     OW88687   4.338   3.947   8.970  0.0634 -0.1506 -0.6696
29370SOL    HW188688   4.398   3.914   8.903  0.3416  1.0748 -1.0378
29370SOL    HW288689   4.251   3.924   8.937  0.2949 -2.6666  0.2561
29371SOL     OW88690   7.259   5.264   4.495  0.5110  0.0252  0.4555
29371SOL    HW188691   7.280   5.334   4.557  1.4843  1.3609 -1.3046
29371SOL    HW288692   7.244   5.308   4.412 -2.1204 -1.6014 -0.0477
29372SOL     OW88693   2.479   7.999   5.476  0.2902  0.2258 -0.3368
29372SOL    HW188694   2.503   8.059   5.405 -2.0855 -1.0733 -2.3813
29372SOL    HW288695   2.481   7.912   5.437  0.0661 -0.6781  1.5345
29373SOL     OW88696   0.114   4.182   0.086  0.1513 -0.1300  0.1584
29373SOL    HW188697   0.029   4.140   0.092  0.9254 -1.8086  0.0028
29373SOL    HW288698   0.106   4.262   0.139 -0.9431 -1.2451  1.7406
29374SOL     OW88699   2.552   5.932   6.943 -0.4010  0.6545 -0.6854
29374SOL    HW188700   2.605   5.853   6.936  0.0991  1.0639 -1.7752
29374SOL    HW288701   2.485   5.911   7.008  1.4378  0.3149  1.1881
29375SOL     OW88702   0.353   4.327   0.800 -0.4483 -0.2234  0.0620
29375SOL    HW188703   0.348   4.242   0.843  0.5613 -1.3432 -1.9095
29375SOL    HW288704   0.385   4.308   0.712 -2.6111  1.8982 -1.3302
29376SOL     OW88705   5.441   5.874   0.067 -0.5520 -0.8031  0.4546
29376SOL    HW188706   5.492   5.949   0.098 -2.0759 -0.1139  1.4140
29376SOL    HW288707   5.507   5.810   0.039  0.8019  0.4574  0.6310
29377SOL     OW88708   5.702   4.256   7.610  0.5330 -0.3649  0.5622
29377SOL    HW188709   5.652   4.333   7.639 -2.7096 -2.4066  0.8304
29377SOL    HW288710   5.745   4.286   7.530  0.8900  2.2350  1.6248
29378SOL     OW88711   7.999   3.948   2.381 -0.5073 -0.0395  0.2800
29378SOL    HW188712   7.946   3.972   2.305 -1.8389 -1.9771  0.5256
29378SOL    HW288713   8.024   4.032   2.421 -0.1149  1.0168 -2.0066
29379SOL     OW88714   5.402   0.939   1.382 -0.5086 -0.1053  0.2205
29379SOL    HW188715   5.336   0.871   1.372 -0.3100 -0.1398 -0.9707
29379SOL    HW288716   5.445   0.919   1.465  1.5659 -3.2341 -1.4303
29380SOL     OW88717   8.415   8.394   3.447  0.2255  0.4241  0.0678
29380SOL    HW188718   8.384   8.389   3.357 -3.9814  0.4863  1.2716
29380SOL    HW288719   8.400   8.306   3.482  0.4509  0.7676  1.0430
29381SOL     OW88720   7.214   7.176   5.834  0.0993  0.1681 -0.2918
29381SOL    HW188721   7.291   7.229   5.856 -0.2152  0.7438 -0.5521
29381SOL    HW288722   7.244   7.118   5.764  0.0353  1.0862 -1.0919
29382SOL     OW88723   3.696   3.990   5.141  0.1382  0.4388 -0.3236
29382SOL    HW188724   3.781   4.032   5.154  0.0728  0.1129  1.2980
29382SOL    HW288725   3.667   4.022   5.055  1.1590  1.8290 -0.1933
29383SOL     OW88726   3.293   6.148   9.318  0.4475 -0.4127  0.3101
29383SOL    HW188727   3.263   6.215   9.256  0.4468 -0.4674  0.2518
29383SOL    HW288728   3.220   6.137   9.378  0.1653 -0.8945 -0.1170
29384SOL     OW88729   9.541   9.790   7.600  0.1062 -0.4686  0.3478
29384SOL    HW188730   9.563   9.742   7.680 -0.9984 -2.0079 -0.2272
29384SOL    HW288731   9.533   9.881   7.629  3.2620 -0.3607  1.2664
29385SOL     OW88732   2.500   3.050   2.674  0.1622 -0.3949 -0.4632
29385SOL    HW188733   2.531   2.960   2.688  2.7783  0.4383 -0.2517
29385SOL    HW288734   2.567   3.104   2.715 -2.0247  1.6676  0.5934
29386SOL     OW88735   9.067   8.823   8.798 -0.4439 -0.1287 -0.2701
29386SOL    HW188736   9.120   8.883   8.850 -1.3805 -0.6839  1.3775
29386SOL    HW288737   9.113   8.740   8.803 -0.3724 -0.1126 -0.6088
29387SOL     OW88738   8.741   3.123   5.821  0.0038  0.5974  0.2972
29387SOL    HW188739   8.796   3.193   5.786 -1.9366  2.0543  0.0100
29387SOL    HW288740   8.687   3.165   5.887 -1.8359 -0.3893 -0.4885
29388SOL     OW88741   6.273   1.435   5.620 -0.7692 -0.0765 -0.3263
29388SOL    HW188742   6.210   1.371   5.588 -1.3447  0.1836  0.2769
29388SOL    HW288743   6.262   1.511   5.562 -0.3966 -0.3417 -0.7592
29389SOL     OW88744   0.521   6.410   3.075  0.0437 -0.1229  0.2077
29389SOL    HW188745   0.563   6.402   3.160  0.0413 -0.7498  0.1544
29389SOL    HW288746   0.564   6.486   3.034  1.6741 -1.1901 -0.1555
29390SOL     OW88747   3.356   2.597   1.301  0.1385 -0.1149 -0.1775
29390SOL    HW188748   3.289   2.532   1.278  0.0133 -0.1412  0.2573
29390SOL    HW288749   3.416   2.549   1.359  0.5099 -0.0780 -0.5265
29391SOL     OW88750   2.591   4.966   2.361 -0.6229 -0.4826  0.6645
29391SOL    HW188751   2.613   5.026   2.433  0.4482 -1.1433  0.9184
29391SOL    HW288752   2.672   4.962   2.308 -1.7469  0.9496 -1.3043
29392SOL     OW88753   5.815   7.606  -0.007  0.4296 -0.4638  0.7101
29392SOL    HW188754   5.780   7.605   0.082  0.0571  1.4165  0.6228
29392SOL    HW288755   5.762   7.542  -0.054 -1.6912  0.9254  1.0486
29393SOL     OW88756   4.296   8.736   5.428 -0.2286 -0.0975 -0.5799
29393SOL    HW188757   4.216   8.683   5.433  1.1578 -2.3922 -0.9349
29393SOL    HW288758   4.348   8.708   5.504  1.1317 -0.3132 -1.5497
29394SOL     OW88759   8.818   6.151   6.203 -0.6096 -0.0413  0.0796
29394SOL    HW188760   8.841   6.085   6.138  2.1547  0.1395  0.7553
29394SOL    HW288761   8.810   6.102   6.285  1.4614  0.3912  0.5854
29395SOL     OW88762   0.399   8.624   5.756  0.2738  0.2437  0.1469
29395SOL    HW188763   0.373   8.551   5.701 -0.1240  0.8618 -0.4895
29395SOL    HW288764   0.466   8.671   5.705 -1.6065  2.0584 -0.8039
29396SOL     OW88765   0.052   1.084   9.263  0.3376  0.2193 -0.4936
29396SOL    HW188766   0.140   1.106   9.230  1.2363 -0.1512  1.5238
29396SOL    HW288767   0.059   1.094   9.358 -1.9554  0.6156 -0.3157
29397SOL     OW88768   6.152   2.822   1.189  0.2628 -0.8546 -0.5307
29397SOL    HW188769   6.156   2.756   1.119 -1.3473 -1.9523  0.3399
29397SOL    HW288770   6.089   2.886   1.157  1.8991  0.3740 -1.4180
29398SOL     OW88771   3.080   4.661   5.572  0.0063  0.0233 -0.3832
29398SOL    HW188772   3.024   4.680   5.648  0.6445  2.8059 -0.5128
29398SOL    HW288773   3.135   4.589   5.601  0.1267  0.9047  1.7776
29399SOL     OW88774   3.505   1.728   1.056  0.5530  0.0893 -0.2322
29399SOL    HW188775   3.458   1.795   1.008  1.0886  0.9200  0.3702
29399SOL    HW288776   3.553   1.679   0.989 -0.0375  0.1447 -0.6969
29400SOL     OW88777   7.732   9.327   2.456 -0.0584  0.1941  0.4241
29400SOL    HW188778   7.667   9.372   2.510  0.9031  0.5006  1.3613
29400SOL    HW288779   7.713   9.234   2.468  1.5873  0.1224  3.2553
29401SOL     OW88780   4.624   5.577   2.511 -0.1820  0.0582  0.0040
29401SOL    HW188781   4.688   5.646   2.494 -0.9336  0.9922  0.8403
29401SOL    HW288782   4.605   5.540   2.424  1.0373  0.1553 -0.3215
29402SOL     OW88783   5.074   5.715   3.490  0.8252  0.1372  0.1026
29402SOL    HW188784   5.060   5.738   3.582  0.1256  0.1267  0.0060
29402SOL    HW288785   5.015   5.773   3.442  0.9142 -0.1146 -0.3106
29403SOL     OW88786   8.064   1.343   3.933  0.8612  0.3105 -0.3092
29403SOL    HW188787   8.079   1.252   3.909  0.3474  0.2401 -0.3558
29403SOL    HW288788   8.140   1.389   3.897  0.4459  0.1077 -1.4830
29404SOL     OW88789   4.431   9.419   9.279  0.1510 -0.2315  0.7546
29404SOL    HW188790   4.517   9.389   9.249 -0.3465 -1.1814  0.2306
29404SOL    HW288791   4.413   9.368   9.358  0.6099  0.8790  1.5956
29405SOL     OW88792   2.378   2.577   5.342 -0.3261  0.2198  0.0609
29405SOL    HW188793   2.323   2.542   5.412 -0.1731  2.4170  1.3491
29405SOL    HW288794   2.454   2.614   5.386 -1.1585  3.4895 -0.9406
29406SOL     OW88795   5.889   2.265   4.887  0.4445  0.0481  0.0545
29406SOL    HW188796   5.864   2.179   4.852  1.9907 -0.3542 -0.1542
29406SOL    HW288797   5.968   2.247   4.939  0.1296  1.1809  0.9499
29407SOL     OW88798   7.829   4.162   7.712 -0.9741  0.1300  0.3173
29407SOL    HW188799   7.831   4.225   7.640  0.0414 -0.0452  0.1695
29407SOL    HW288800   7.776   4.089   7.679  1.6471 -1.1690 -1.3579
29408SOL     OW88801   4.971   4.891   5.694 -0.1904 -0.9381  0.0716
29408SOL    HW188802   4.906   4.910   5.626 -1.7089  0.2411  1.7480
29408SOL    HW288803   5.053   4.925   5.659 -1.0860  0.3718 -0.8665
29409SOL     OW88804   6.491   8.017   5.630  0.3278 -0.4468  0.3687
29409SOL    HW188805   6.531   8.052   5.551 -0.5005 -3.1356 -1.4006
29409SOL    HW288806   6.397   8.029   5.617  0.1499 -1.4175  0.6631
29410SOL     OW88807   0.963   7.024   6.816  0.1723  0.3248  0.2832
29410SOL    HW188808   0.966   7.056   6.907  0.6564 -1.7460  1.0539
29410SOL    HW288809   1.054   7.005   6.795 -0.1498 -1.0582  0.0831
29411SOL     OW88810   5.609   3.295   2.090 -0.0121  0.6013 -0.3370
29411SOL    HW188811   5.643   3.277   2.178  0.3152  0.3126 -0.5234
29411SOL    HW288812   5.610   3.391   2.083 -0.4927  0.6453  0.1529
29412SOL     OW88813   9.587   2.074   7.116 -0.5240  0.2023  0.3952
29412SOL    HW188814   9.612   2.040   7.201  3.3944  0.0583 -0.6531
29412SOL    HW288815   9.590   2.169   7.126 -0.5981  0.1882  0.5456
29413SOL     OW88816   6.447   4.806   8.291 -0.3240  0.6364 -0.1011
29413SOL    HW188817   6.528   4.812   8.342 -1.1746 -1.9079  1.7367
29413SOL    HW288818   6.402   4.888   8.308  0.3527  0.6911  1.6980
29414SOL     OW88819   2.686   4.562   7.531 -0.4612  0.0133  0.0484
29414SOL    HW188820   2.722   4.474   7.543 -1.1529 -0.4582 -1.1331
29414SOL    HW288821   2.674   4.570   7.436 -2.7765  0.3975  0.3071
29415SOL     OW88822   7.627   9.889   0.757  0.9244  0.2498  0.5239
29415SOL    HW188823   7.557   9.876   0.821  0.3462  1.8005  0.2444
29415SOL    HW288824   7.589   9.948   0.692  1.3812 -1.5266 -1.4676
29416SOL     OW88825   2.971   9.243   2.285 -0.0588  0.1570 -0.0695
29416SOL    HW188826   3.001   9.238   2.376 -0.1355 -0.8079 -0.0852
29416SOL    HW288827   2.888   9.196   2.285  0.5636 -0.9758 -0.8858
29417SOL     OW88828   8.137   2.977   9.227 -0.1234  0.1391  0.3268
29417SOL    HW188829   8.045   2.963   9.250 -0.2266 -0.3918 -0.3756
29417SOL    HW288830   8.147   2.935   9.141  1.1653 -1.2419  1.1004
29418SOL     OW88831   9.856   1.817   4.253  0.2188 -0.3452  0.1866
29418SOL    HW188832   9.893   1.730   4.270 -0.3197 -0.7185 -0.5001
29418SOL    HW288833   9.811   1.807   4.169 -1.0283  0.2210  0.7763
29419SOL     OW88834   9.578   9.806   3.553  0.0582 -0.1051 -0.1715
29419SOL    HW188835   9.537   9.772   3.474  0.5575  0.1127 -0.5302
29419SOL    HW288836   9.573   9.902   3.543  0.0699 -0.0772  0.0902
29420SOL     OW88837   2.078   0.146   7.540  0.6494 -0.2895  0.0219
29420SOL    HW188838   2.163   0.186   7.558  1.1094  1.2870 -4.5784
29420SOL    HW288839   2.020   0.183   7.607  3.2541 -0.9502  2.9167
29421SOL     OW88840   9.737   7.061   8.743  0.1072 -0.0589  0.3076
29421SOL    HW188841   9.720   7.154   8.754  0.8586  0.0800  0.3451
29421SOL    HW288842   9.704   7.020   8.822  1.3732  0.3954  1.1095
29422SOL     OW88843   0.496   3.282   1.402  0.3261 -0.5586  0.5002
29422SOL    HW188844   0.528   3.226   1.332  1.6587 -0.9499  1.3860
29422SOL    HW288845   0.414   3.241   1.430 -0.0377 -0.5871 -0.5839
29423SOL     OW88846   1.274   8.611   9.449  0.4796  0.1164 -0.2591
29423SOL    HW188847   1.197   8.574   9.405  0.6931  0.2818 -0.7856
29423SOL    HW288848   1.257   8.598   9.542  0.3169 -0.8463 -0.4129
29424SOL     OW88849   4.737   2.734   7.823  0.1639  0.1134 -0.0687
29424SOL    HW188850   4.670   2.690   7.771  0.1264  0.3366 -0.2113
29424SOL    HW288851   4.704   2.823   7.835 -0.3735 -0.2531  1.3233
29425SOL     OW88852   9.147   4.460   3.390  0.1436  0.3005  0.0316
29425SOL    HW188853   9.136   4.376   3.435 -0.7880  0.3101 -0.1555
29425SOL    HW288854   9.217   4.504   3.438 -1.0064  0.4339  1.6598
29426SOL     OW88855   6.814   9.608   7.310  0.7188  0.3586 -0.4779
29426SOL    HW188856   6.876   9.675   7.336  0.8948  0.4398 -1.0979
29426SOL    HW288857   6.756   9.598   7.386  1.4011  0.3758  0.0557
29427SOL     OW88858   2.860   0.269   5.344 -0.7526 -0.8484 -0.5045
29427SOL    HW188859   2.942   0.312   5.318 -2.3580  2.3701 -0.6973
29427SOL    HW288860   2.818   0.245   5.262 -1.5332  0.7311 -0.6078
29428SOL     OW88861   2.347   6.007   4.775 -0.3260  0.5203  0.1415
29428SOL    HW188862   2.392   6.077   4.727  1.5227 -0.5688  0.1823
29428SOL    HW288863   2.326   5.942   4.708 -0.6052  0.4063  0.3400
29429SOL     OW88864   9.375   9.962   2.993 -0.1744  1.2104  0.4963
29429SOL    HW188865   9.352   9.952   3.085  1.5582  0.3301  0.8837
29429SOL    HW288866   9.465   9.930   2.988 -1.3808 -2.3801 -2.2001
29430SOL     OW88867   7.644   8.345   4.558 -0.0795  0.4409  0.1177
29430SOL    HW188868   7.701   8.385   4.623  0.8881 -0.2507 -0.2690
29430SOL    HW288869   7.566   8.400   4.556 -0.5037 -0.0088  2.4500
29431SOL     OW88870   6.863   5.845   0.929 -0.4493  0.2549  0.0758
29431SOL    HW188871   6.930   5.864   0.995 -0.4802  0.0315  0.1725
29431SOL    HW288872   6.808   5.777   0.970  0.0551 -0.5293 -0.5176
29432SOL     OW88873   9.229   6.240   9.549 -0.1254 -0.4264  0.0443
29432SOL    HW188874   9.164   6.199   9.493 -0.5110 -0.4815  0.5213
29432SOL    HW288875   9.247   6.325   9.508 -1.2686  0.0340  0.4618
29433SOL     OW88876   4.337   6.455   0.307  0.3945  0.6437 -0.5373
29433SOL    HW188877   4.346   6.538   0.355 -0.9946  0.0579  0.8438
29433SOL    HW288878   4.376   6.390   0.365 -2.6869 -0.3189  0.6996
29434SOL     OW88879   6.084   0.465   0.422  0.1989 -0.8465 -0.0073
29434SOL    HW188880   6.074   0.414   0.502  2.4069 -0.9861  0.2509
29434SOL    HW288881   6.148   0.533   0.444 -1.8785  1.4756 -0.6382
29435SOL     OW88882   6.997   7.105   3.720 -0.7760 -0.1414  0.7090
29435SOL    HW188883   7.051   7.089   3.797 -0.6567  0.3787  0.7376
29435SOL    HW288884   6.916   7.143   3.754 -0.2399  1.2392  0.4982
29436SOL     OW88885   2.679   2.249   4.567 -0.1357  0.3180 -0.5924
29436SOL    HW188886   2.620   2.280   4.636  2.0966  0.7333  1.2733
29436SOL    HW288887   2.677   2.153   4.576 -1.4079  0.2354 -1.4055
29437SOL     OW88888   4.445   8.574   9.601  0.2378  0.0710 -0.4027
29437SOL    HW188889   4.527   8.591   9.554 -0.4720 -0.3316 -1.8510
29437SOL    HW288890   4.395   8.655   9.591  0.1739  0.0650 -0.1306
29438SOL     OW88891   8.616   2.919   5.435 -0.6197  0.6165  0.3416
29438SOL    HW188892   8.671   2.901   5.359 -0.5097 -0.0956  0.5837
29438SOL    HW288893   8.558   2.990   5.406 -0.0482  0.8990 -0.1410
29439SOL     OW88894   8.946   1.546   8.449  0.2734  0.0980  0.7891
29439SOL    HW188895   8.943   1.640   8.469  3.0414  0.1830  1.1573
29439SOL    HW288896   8.854   1.519   8.450 -0.5670  2.6697  1.2637
29440SOL     OW88897   4.138   1.627   0.778  0.0031  0.0195 -0.1049
29440SOL    HW188898   4.120   1.540   0.740  0.7424 -0.8157  1.3638
29440SOL    HW288899   4.218   1.655   0.734 -0.0608 -0.1803 -0.3585
29441SOL     OW88900   2.832   1.599   3.468 -0.4577 -0.3273  0.1810
29441SOL    HW188901   2.755   1.651   3.449  0.7517  1.1516 -0.9384
29441SOL    HW288902   2.888   1.658   3.520  0.2023 -1.1354  0.4075
29442SOL     OW88903   9.184   5.601   0.384 -0.0326  0.6388  0.3699
29442SOL    HW188904   9.246   5.622   0.455 -1.1400  2.0964  0.9611
29442SOL    HW288905   9.100   5.633   0.416 -0.7938  0.1793 -1.1044
29443SOL     OW88906   3.810   6.653   7.231 -0.0975 -0.2884  0.1281
29443SOL    HW188907   3.895   6.651   7.276 -0.2585  1.0635  0.5369
29443SOL    HW288908   3.748   6.617   7.294  0.2251 -1.7671 -0.3579
29444SOL     OW88909   5.596   9.144   2.483  0.7488  0.4140 -0.6206
29444SOL    HW188910   5.521   9.089   2.504  0.6216  0.2584 -1.4476
29444SOL    HW288911   5.663   9.118   2.546  0.7920 -0.9070 -1.1763
29445SOL     OW88912   0.191   8.261   6.798  0.0672 -0.0273  0.0255
29445SOL    HW188913   0.221   8.346   6.831 -0.9796  0.0901  0.6992
29445SOL    HW288914   0.194   8.203   6.874  0.7178 -0.5875 -0.4176
29446SOL     OW88915   2.559   7.708   9.133 -0.0663 -0.2161 -0.7714
29446SOL    HW188916   2.523   7.797   9.136  1.2094  0.3003  1.3179
29446SOL    HW288917   2.651   7.721   9.109  0.4358 -0.8179  0.7387
29447SOL     OW88918   8.706   6.518   9.539 -0.2459 -0.0603  0.0809
29447SOL    HW188919   8.671   6.526   9.628  2.7771 -0.0580  1.3857
29447SOL    HW288920   8.669   6.436   9.506 -1.2714 -0.1687  1.3985
29448SOL     OW88921   1.289   6.445   6.382  0.3960  0.2799 -0.1375
29448SOL    HW188922   1.300   6.351   6.393  1.3019  0.2055 -1.4032
29448SOL    HW288923   1.364   6.472   6.329 -0.7131  1.4230 -1.2201
29449SOL     OW88924   2.388   3.716   8.917  0.5584 -0.5156 -0.0170
29449SOL    HW188925   2.391   3.737   8.824  1.7349 -4.5788 -1.1051
29449SOL    HW288926   2.477   3.730   8.948  0.4101 -0.1557  0.2581
29450SOL     OW88927   4.147   7.887   6.999  0.0627  0.6803 -0.0091
29450SOL    HW188928   4.100   7.907   6.918  1.3842  1.7399 -0.5338
29450SOL    HW288929   4.171   7.795   6.990 -0.1348  0.6845 -0.6463
29451SOL     OW88930   9.852   0.095   2.884  0.5693 -0.5964  0.3319
29451SOL    HW188931   9.866   0.173   2.831 -1.4701  0.5613  1.3818
29451SOL    HW288932   9.903   0.027   2.840 -0.7057  0.3586 -2.9045
29452SOL     OW88933   7.231   1.814   1.346  0.2123  0.0276 -0.2518
29452SOL    HW188934   7.182   1.733   1.331  0.0874  0.0532  0.0110
29452SOL    HW288935   7.235   1.822   1.442 -1.2035  1.1852 -0.2566
29453SOL     OW88936   4.134   7.786   3.382  0.1385 -0.1173  0.0339
29453SOL    HW188937   4.151   7.693   3.368 -1.1153 -0.3878  0.1924
29453SOL    HW288938   4.197   7.830   3.326  1.1002 -1.0475  0.3459
29454SOL     OW88939   1.295   4.880   0.970 -0.1688  0.6169  0.4707
29454SOL    HW188940   1.230   4.812   0.953 -1.0867  1.8534 -1.2570
29454SOL    HW288941   1.374   4.832   0.994 -0.4440 -1.1441 -1.8022
29455SOL     OW88942   2.764   0.151   5.117 -0.0122 -0.3323 -0.2612
29455SOL    HW188943   2.779   0.068   5.072  1.0681 -0.1872 -0.1954
29455SOL    HW288944   2.823   0.212   5.074  0.1960  0.0820  0.5968
29456SOL     OW88945   9.234   5.098   7.183 -0.3914  0.4004 -0.1060
29456SOL    HW188946   9.166   5.032   7.170 -1.3547  1.3272  0.1242
29456SOL    HW288947   9.296   5.083   7.112 -1.1079 -0.1166 -0.6305
29457SOL     OW88948   6.523   1.492   2.528  0.1094 -0.3934 -0.3011
29457SOL    HW188949   6.544   1.424   2.592  0.5425  1.1517  1.2805
29457SOL    HW288950   6.428   1.485   2.518 -0.1027 -0.1106  1.2205
29458SOL     OW88951   3.647   1.733   8.375  0.1371  0.0509 -0.7653
29458SOL    HW188952   3.565   1.763   8.336 -0.1340  0.3975  0.0711
29458SOL    HW288953   3.652   1.640   8.350  0.2551  0.3878 -2.0983
29459SOL     OW88954   5.433   6.185   9.792  0.1133 -0.1027 -0.3581
29459SOL    HW188955   5.431   6.238   9.872 -0.7837 -0.5671 -0.0591
29459SOL    HW288956   5.495   6.114   9.812 -2.2264 -1.8979  1.0711
29460SOL     OW88957   0.071   2.095   1.261  1.1324 -0.4424 -0.3387
29460SOL    HW188958   0.118   2.040   1.324  0.7656  1.1769  1.4395
29460SOL    HW288959   0.118   2.178   1.261 -0.1091  0.2890 -0.5907
29461SOL     OW88960   1.394   4.648   0.597  0.5257 -0.1928  0.0791
29461SOL    HW188961   1.486   4.638   0.625  0.6409 -0.0008 -0.2253
29461SOL    HW288962   1.346   4.661   0.678  0.7580 -0.3719  0.2498
29462SOL     OW88963   1.903   5.563   1.010 -0.0602  0.6035  0.5240
29462SOL    HW188964   1.941   5.651   1.018 -0.6830  0.8579  0.7066
29462SOL    HW288965   1.870   5.543   1.097  1.1517 -0.3243  0.8067
29463SOL     OW88966   9.065   8.764   3.801  0.2819  0.3269  0.5507
29463SOL    HW188967   9.045   8.672   3.783 -0.4082  0.9020 -2.2047
29463SOL    HW288968   9.152   8.777   3.763 -0.4443  1.2070 -0.9107
29464SOL     OW88969   9.838   5.363   1.911 -0.3977  0.1956 -0.0912
29464SOL    HW188970   9.751   5.328   1.889 -1.1781  1.6629  0.5563
29464SOL    HW288971   9.851   5.434   1.848  0.6990 -0.4987 -0.6857
29465SOL     OW88972   8.317   1.815   1.070 -0.4564  0.2813  0.5269
29465SOL    HW188973   8.284   1.895   1.029 -0.2094 -0.0413 -0.3146
29465SOL    HW288974   8.256   1.799   1.142 -2.9556 -0.9673 -1.7149
29466SOL     OW88975   2.816   5.667   5.062  0.4570  0.1092  0.0693
29466SOL    HW188976   2.793   5.701   5.149  1.5312  0.8550  0.0830
29466SOL    HW288977   2.752   5.707   5.003  0.7108  0.8900  0.3106
29467SOL     OW88978   4.070   9.056   5.228  0.2996 -0.3396  0.2787
29467SOL    HW188979   4.137   9.016   5.283 -0.0063  1.3583  1.9785
29467SOL    HW288980   4.116   9.124   5.179 -0.1243  0.8715  1.4948
29468SOL     OW88981   1.996   0.021   0.461  0.2385  0.2751  0.1078
29468SOL    HW188982   2.018  -0.071   0.475 -1.4245 -0.6072 -2.3293
29468SOL    HW288983   2.080   0.067   0.469  1.5525 -1.7755 -0.8279
29469SOL     OW88984   6.760   6.558   7.767  0.4597  0.3608 -0.2997
29469SOL    HW188985   6.759   6.618   7.841  0.5426 -0.4514  0.3750
29469SOL    HW288986   6.853   6.544   7.749  0.4734 -0.6275  0.4451
29470SOL     OW88987   6.293   1.101   4.643 -0.6012  0.7759  0.3139
29470SOL    HW188988   6.345   1.102   4.562 -0.1629  0.4899  0.5838
29470SOL    HW288989   6.227   1.034   4.628  0.7080 -0.7013  0.9303
29471SOL     OW88990   1.494   7.561   8.541  0.0602  0.5408 -0.7227
29471SOL    HW188991   1.544   7.598   8.467  2.2754 -1.5168 -0.3856
29471SOL    HW288992   1.545   7.586   8.618  0.1354 -0.8965 -0.2883
29472SOL     OW88993   3.453   1.015   8.718  0.7981 -0.6709  0.4451
29472SOL    HW188994   3.412   1.071   8.784  1.0497  1.1250 -0.8584
29472SOL    HW288995   3.382   0.991   8.659  1.1014  0.2445 -0.3142
29473SOL     OW88996   4.658   5.608   5.195  0.4741 -0.4641 -0.8714
29473SOL    HW188997   4.634   5.611   5.103 -1.0851  3.6388 -0.5574
29473SOL    HW288998   4.576   5.622   5.242  1.6714  1.0732  0.9195
29474SOL     OW88999   8.623   2.732   5.151  0.4919 -0.1281  0.0413
29474SOL    HW189000   8.579   2.728   5.066 -0.4787  0.8226  0.4690
29474SOL    HW289001   8.699   2.788   5.135 -0.0989  0.6632 -0.0389
29475SOL     OW89002   9.923   9.355   3.599 -0.0581  0.1591  0.3592
29475SOL    HW189003   9.980   9.357   3.522 -0.4842  2.6382  0.0330
29475SOL    HW289004   9.839   9.390   3.568 -1.2879 -1.8239  1.2302
29476SOL     OW89005   5.939   1.770   4.804 -0.5436 -0.1519 -0.1614
29476SOL    HW189006   5.986   1.691   4.775 -0.8059 -0.5112  0.3736
29476SOL    HW289007   6.000   1.814   4.862 -0.7595 -0.4853  0.3293
29477SOL     OW89008   9.668   6.484   6.791  0.3243 -0.1687 -0.6467
29477SOL    HW189009   9.613   6.420   6.746  0.9071 -1.1978  0.0646
29477SOL    HW289010   9.748   6.488   6.738  0.0831  0.3985 -0.9871
29478SOL     OW89011   0.060   2.026   7.187  0.3257  0.1995 -0.6380
29478SOL    HW189012  -0.005   2.090   7.216  1.1372  0.1593  1.4026
29478SOL    HW289013   0.143   2.074   7.189  0.6608 -0.3559 -1.0991
29479SOL     OW89014   1.493   9.923   9.015 -0.0624 -0.4886  0.4087
29479SOL    HW189015   1.461   9.839   9.048 -1.8668  0.2067  0.5495
29479SOL    HW289016   1.426   9.986   9.042  1.0688  0.9419 -0.0158
29480SOL     OW89017   9.740   6.673   6.242  0.4521 -0.4065  0.6080
29480SOL    HW189018   9.722   6.599   6.183  0.0679 -0.4860  0.8186
29480SOL    HW289019   9.653   6.706   6.265  0.6324  0.4931  0.0366
29481SOL     OW89020   4.603   5.472   0.967  0.0236 -0.0136 -0.0925
29481SOL    HW189021   4.617   5.552   0.917 -0.9603 -0.3404 -0.9181
29481SOL    HW289022   4.691   5.435   0.977  0.4445  0.9796  0.0036
29482SOL     OW89023   8.396   1.172   7.090  0.1675  0.2752  0.0139
29482SOL    HW189024   8.393   1.187   6.995 -0.1375  1.1050  0.1466
29482SOL    HW289025   8.361   1.084   7.101  1.1249 -0.2288 -0.7229
29483SOL     OW89026   2.928   8.539   1.556 -0.0273  0.4930 -0.2825
29483SOL    HW189027   2.921   8.513   1.648  1.3498 -0.6550 -0.4573
29483SOL    HW289028   2.872   8.476   1.509 -2.8257  2.6486 -0.0701
29484SOL     OW89029   5.823   7.064   0.416 -0.5345  0.8334  0.3340
29484SOL    HW189030   5.880   6.996   0.453  2.1040  1.5917 -1.9783
29484SOL    HW289031   5.778   7.021   0.343 -0.7788  0.9344  0.4249
29485SOL     OW89032   5.180   7.058   8.348  0.0069  0.3254 -0.2110
29485SOL    HW189033   5.137   7.143   8.342 -0.4942  0.0040 -1.2445
29485SOL    HW289034   5.251   7.062   8.284  0.3405  0.1581  0.1406
29486SOL     OW89035   2.883   5.602   3.542 -0.2241 -0.0086 -0.1058
29486SOL    HW189036   2.874   5.574   3.633 -3.5208  0.4283 -0.1792
29486SOL    HW289037   2.900   5.696   3.548  1.6721 -0.3148  0.0099
29487SOL     OW89038   7.833   5.581   2.749 -0.4698  0.0252  0.1083
29487SOL    HW189039   7.843   5.676   2.752 -1.1365  0.0856  0.5495
29487SOL    HW289040   7.799   5.558   2.835 -0.1503 -0.6366  0.0618
29488SOL     OW89041   2.429   8.490   7.243  0.0236  0.3076 -0.4040
29488SOL    HW189042   2.432   8.544   7.165 -0.9405 -0.2336 -0.8406
29488SOL    HW289043   2.358   8.527   7.295 -0.5956 -0.4643 -0.6729
29489SOL     OW89044   2.953   7.703   2.755 -0.3616  0.0212 -0.6457
29489SOL    HW189045   2.961   7.611   2.781  0.6563  0.2287 -0.1880
29489SOL    HW289046   2.877   7.704   2.696 -3.1687 -0.3773  2.6328
29490SOL     OW89047   6.882   2.288   3.535 -0.3284  0.1031 -0.1068
29490SOL    HW189048   6.834   2.371   3.536  1.0096  0.9674 -1.7945
29490SOL    HW289049   6.905   2.272   3.626  0.2680  2.1372  0.1493
29491SOL     OW89050   0.312   7.643   4.540 -0.0423 -0.0490  0.1071
29491SOL    HW189051   0.265   7.563   4.517  1.3744 -0.9571  0.2673
29491SOL    HW289052   0.345   7.677   4.457  0.6567 -0.4853  0.1978
29492SOL     OW89053   6.028   6.619   7.981 -0.0552  0.4995  0.4290
29492SOL    HW189054   5.939   6.652   7.967 -1.0556 -2.2447 -0.3890
29492SOL    HW289055   6.029   6.595   8.074 -0.5115 -0.2697  0.2474
29493SOL     OW89056   0.055   5.881   6.029  0.1898 -0.2445  0.3331
29493SOL    HW189057   0.015   5.830   6.099 -2.0288 -1.2073 -1.4894
29493SOL    HW289058  -0.000   5.959   6.022  0.2244 -0.2797 -0.4697
29494SOL     OW89059   3.419   8.180   9.319 -0.4122  0.3017 -0.1178
29494SOL    HW189060   3.515   8.182   9.323 -0.3680 -0.0096 -0.9303
29494SOL    HW289061   3.396   8.252   9.260 -0.7115  0.7066  0.4796
29495SOL     OW89062   8.928   0.357   1.064  0.4412  0.5530 -0.0116
29495SOL    HW189063   8.943   0.447   1.034 -0.6925  0.1103 -2.0583
29495SOL    HW289064   8.857   0.324   1.008  1.5232 -1.9628 -0.0439
29496SOL     OW89065   8.354   4.346   5.427  0.1682  0.0318 -0.2618
29496SOL    HW189066   8.422   4.410   5.406 -0.2273  1.2983  2.0186
29496SOL    HW289067   8.272   4.391   5.408 -0.1154  0.2192  1.2987
29497SOL     OW89068   8.422   8.056   8.526 -0.2464  0.1236  0.5709
29497SOL    HW189069   8.343   8.029   8.479 -0.0159  0.7819 -0.2064
29497SOL    HW289070   8.436   7.987   8.591 -0.9874 -0.4220  0.1595
29498SOL     OW89071   2.574   4.308   8.274 -0.5871  0.0355  0.2086
29498SOL    HW189072   2.519   4.380   8.305 -0.5203 -0.0481  0.5257
29498SOL    HW289073   2.587   4.253   8.351 -1.5208 -0.8854 -0.2629
29499SOL     OW89074   7.769   9.483   3.869  0.1790 -0.1269 -0.6683
29499SOL    HW189075   7.852   9.437   3.878  0.5675  0.4853 -1.0088
29499SOL    HW289076   7.776   9.556   3.931  0.6404  0.9593 -1.9610
29500SOL     OW89077   1.130   8.969   4.126 -0.5675 -0.1484  0.2146
29500SOL    HW189078   1.202   9.031   4.142 -2.0922  1.2581  2.1868
29500SOL    HW289079   1.154   8.891   4.176  0.8391 -0.7708 -1.3664
29501SOL     OW89080   6.643   4.434   8.379 -0.3889 -0.6449 -0.5718
29501SOL    HW189081   6.580   4.363   8.362 -1.2696 -0.1657  0.5279
29501SOL    HW289082   6.600   4.512   8.346 -1.5988  0.1071  2.3852
29502SOL     OW89083   3.573   8.802   3.126  0.1318  0.2133  0.4815
29502SOL    HW189084   3.521   8.833   3.052  1.4730  0.3038 -0.4669
29502SOL    HW289085   3.527   8.724   3.157  0.4247 -0.8585 -1.5765
29503SOL     OW89086   5.495   6.220   0.945  0.3202 -0.2510  0.0158
29503SOL    HW189087   5.408   6.199   0.981 -1.3514  0.7830 -3.0638
29503SOL    HW289088   5.527   6.137   0.909 -0.2881 -0.2422 -0.5561
29504SOL     OW89089   3.467   2.823   6.698  0.4603  0.1154 -0.5181
29504SOL    HW189090   3.452   2.840   6.791 -0.9557  1.6592 -0.9932
29504SOL    HW289091   3.456   2.728   6.689 -0.9728  0.1342  0.6372
29505SOL     OW89092   7.733   2.096   8.730  0.1876 -0.1280  0.2172
29505SOL    HW189093   7.748   2.004   8.709 -0.6711 -0.2118 -0.0578
29505SOL    HW289094   7.672   2.126   8.663  1.5128  1.0165 -0.5440
29506SOL     OW89095   8.310   0.205   9.027  0.6032 -0.9800  0.4013
29506SOL    HW189096   8.364   0.134   9.061  1.8927  0.4349  1.4866
29506SOL    HW289097   8.221   0.172   9.030  1.1184 -2.3601  1.3746
29507SOL     OW89098   4.498   7.479   8.756 -0.2557 -0.1192  0.3883
29507SOL    HW189099   4.593   7.486   8.746 -0.3162 -0.6011 -0.7521
29507SOL    HW289100   4.465   7.480   8.666 -1.2174 -1.3870  0.7044
29508SOL     OW89101   2.396   9.792   7.140 -0.3732 -0.1483  0.2943
29508SOL    HW189102   2.380   9.764   7.230 -1.1588 -0.2176  0.1397
29508SOL    HW289103   2.490   9.812   7.137  0.0203 -1.8122  0.6755
29509SOL     OW89104   0.021   8.527   7.217 -0.0269 -0.5346  0.1678
29509SOL    HW189105  -0.010   8.595   7.276 -1.2066  0.4929 -1.5364
29509SOL    HW289106   0.116   8.530   7.225 -0.1000  0.7088  0.8103
29510SOL     OW89107   1.343   8.901   0.329  0.5449 -0.7473 -0.2346
29510SOL    HW189108   1.380   8.989   0.327  0.3935 -0.6859 -0.3381
29510SOL    HW289109   1.377   8.862   0.409 -0.3371 -0.1849  0.4314
29511SOL     OW89110   1.372   9.065   5.184 -0.0154 -0.3601  0.2483
29511SOL    HW189111   1.447   9.124   5.178 -0.8143  0.6961  0.3694
29511SOL    HW289112   1.331   9.068   5.098 -0.3473 -0.3429  0.4033
29512SOL     OW89113   0.403   7.379   8.521 -0.3347  0.1047  0.0904
29512SOL    HW189114   0.320   7.359   8.478  0.5101  0.5783 -1.9024
29512SOL    HW289115   0.469   7.330   8.471  0.5565 -0.8296  2.0568
29513SOL     OW89116   0.659   0.232   0.347 -0.2499  0.3792 -0.7254
29513SOL    HW189117   0.635   0.141   0.368 -1.4599  0.0899 -3.1266
29513SOL    HW289118   0.576   0.275   0.326  0.5545  1.3711 -2.0012
29514SOL     OW89119   3.470   2.878   2.460 -0.4452 -0.0634 -0.2054
29514SOL    HW189120   3.415   2.817   2.509  0.3804  0.9600  2.1352
29514SOL    HW289121   3.547   2.827   2.435 -0.9624 -0.6471 -0.6337
29515SOL     OW89122   0.391   4.985   1.144  1.3027  0.0587 -0.0265
29515SOL    HW189123   0.425   5.074   1.137  0.9789  0.3616  1.8473
29515SOL    HW289124   0.438   4.946   1.217  0.1480 -0.7060  0.3434
29516SOL     OW89125   6.181   2.195   9.412  0.0458 -0.5288 -0.3739
29516SOL    HW189126   6.239   2.251   9.463 -2.2942  0.0694  1.7968
29516SOL    HW289127   6.193   2.223   9.322  1.3431  1.1940  0.2927
29517SOL     OW89128   4.867   0.926   1.694 -0.2550 -0.6133 -0.8110
29517SOL    HW189129   4.822   0.914   1.778 -0.5726  0.2121 -0.8476
29517SOL    HW289130   4.932   0.855   1.691 -0.1486 -0.5836  0.1909
29518SOL     OW89131   6.979   0.411   8.638  0.2783  0.8612  0.2235
29518SOL    HW189132   7.013   0.341   8.582  2.2407  2.4295 -0.6671
29518SOL    HW289133   6.918   0.367   8.697  0.0288 -1.2722 -1.4976
29519SOL     OW89134   1.450   7.423   2.942 -0.2326  0.0634  0.2723
29519SOL    HW189135   1.488   7.356   2.885 -2.7579 -1.0843 -0.2279
29519SOL    HW289136   1.442   7.501   2.887 -0.2915 -0.2438 -0.1546
29520SOL     OW89137   8.355   0.779   7.393  0.4730  0.2328  0.1321
29520SOL    HW189138   8.300   0.844   7.437  1.1175 -0.1233  1.5213
29520SOL    HW289139   8.361   0.810   7.302 -0.7037  1.1221  0.3303
29521SOL     OW89140   7.376   9.799   7.198 -0.2946  0.0331  0.3839
29521SOL    HW189141   7.325   9.795   7.118 -0.9547  0.0799  0.7954
29521SOL    HW289142   7.445   9.863   7.180  2.5479 -3.3232 -1.8257
29522SOL     OW89143   6.200   8.083   8.394  0.0768 -0.5124 -0.3522
29522SOL    HW189144   6.143   8.149   8.356  1.6739  0.9484 -0.3151
29522SOL    HW289145   6.215   8.113   8.484  1.9706 -0.1025 -0.7695
29523SOL     OW89146   7.331   7.785   2.901 -0.1786 -0.2353  0.3235
29523SOL    HW189147   7.374   7.728   2.838  0.3669 -0.0022  0.4764
29523SOL    HW289148   7.283   7.848   2.848  0.8258  0.3818  0.1148
29524SOL     OW89149   1.760   0.039   5.946 -0.0313 -0.2917  0.3501
29524SOL    HW189150   1.782   0.116   5.999  1.8069 -0.4754 -0.0781
29524SOL    HW289151   1.841   0.020   5.898 -0.2934 -2.7813  0.7943
29525SOL     OW89152   8.263   0.777   8.275  0.1276  0.6135 -1.0660
29525SOL    HW189153   8.223   0.847   8.223  0.8316  0.1658 -2.2368
29525SOL    HW289154   8.332   0.742   8.219  1.5805  0.7585  0.5360
29526SOL     OW89155   3.335   7.416   7.928 -0.4446  0.0795 -0.1924
29526SOL    HW189156   3.292   7.404   7.843 -0.7282 -1.2981  0.1283
29526SOL    HW289157   3.287   7.488   7.969 -0.2503  0.8258 -1.2122
29527SOL     OW89158   3.450   6.893   1.594 -0.2727 -0.2049 -0.5252
29527SOL    HW189159   3.496   6.841   1.660  1.7251 -1.3418 -2.6809
29527SOL    HW289160   3.372   6.841   1.573  0.0394 -0.7338 -0.3856
29528SOL     OW89161   6.490   9.618   1.274 -0.5652 -0.1341  0.7659
29528SOL    HW189162   6.547   9.601   1.349  0.8922  2.0770  0.2666
29528SOL    HW289163   6.431   9.688   1.304 -0.6532  0.0562  0.1684
29529SOL     OW89164   5.769   7.404   6.947 -0.3185  0.0760  0.2857
29529SOL    HW189165   5.698   7.466   6.961 -0.6623 -0.1867 -0.2586
29529SOL    HW289166   5.849   7.454   6.964 -0.6221  0.4028  0.7857
29530SOL     OW89167   6.498   9.895   8.715  0.1822 -0.3498 -0.3124
29530SOL    HW189168   6.578   9.884   8.767  0.4048 -0.6830 -0.7181
29530SOL    HW289169   6.429   9.857   8.770  0.3560 -0.3689 -0.1048
29531SOL     OW89170   6.650   0.210   1.669 -0.0779  0.0899  0.4925
29531SOL    HW189171   6.668   0.288   1.722 -0.3612 -0.3417  1.2459
29531SOL    HW289172   6.698   0.224   1.588  0.5546  0.6696  0.9586
29532SOL     OW89173   4.355   8.887   8.414 -0.1020  0.0959  0.3086
29532SOL    HW189174   4.284   8.877   8.478  0.2126  3.2333  1.3002
29532SOL    HW289175   4.366   8.981   8.404  1.4342 -0.2721 -2.7164
29533SOL     OW89176   0.027   2.665   7.867 -0.2999 -0.1769 -0.0020
29533SOL    HW189177   0.011   2.697   7.956 -1.5100 -0.4920 -0.0927
29533SOL    HW289178   0.011   2.571   7.872 -1.9813  0.0149 -0.8714
29534SOL     OW89179   0.958   8.493   0.972  0.4293  0.5304 -0.4135
29534SOL    HW189180   0.931   8.408   1.007 -0.1560  0.3757 -1.2296
29534SOL    HW289181   1.020   8.527   1.037  0.8426 -0.6158 -0.1877
29535SOL     OW89182   8.231   4.652   8.750 -0.3346 -0.1396 -0.5132
29535SOL    HW189183   8.239   4.743   8.779 -1.4585 -0.3962  0.7077
29535SOL    HW289184   8.145   4.625   8.781  0.1773 -1.7738 -0.4267
29536SOL     OW89185   7.551   8.652   2.229  0.0701  0.6815 -0.0278
29536SOL    HW189186   7.577   8.737   2.265 -0.0821  0.1658  1.3395
29536SOL    HW289187   7.619   8.591   2.258 -0.0098  0.2525 -0.6983
29537SOL     OW89188   7.494   6.026   1.908 -0.1267  0.0448  0.3526
29537SOL    HW189189   7.406   6.000   1.935  0.1973 -0.1723  1.2352
29537SOL    HW289190   7.517   6.097   1.969  1.4495 -1.8655  2.1311
29538SOL     OW89191   4.410   3.828   2.116 -0.0068 -0.0551  0.0459
29538SOL    HW189192   4.461   3.784   2.048  1.5220  1.1289  0.3591
29538SOL    HW289193   4.436   3.920   2.110 -0.1534  0.1483  1.9444
29539SOL     OW89194   0.917   5.643   4.732  0.0362  0.1473 -0.4166
29539SOL    HW189195   0.873   5.604   4.807  1.4038 -2.2079 -0.7580
29539SOL    HW289196   1.005   5.664   4.763  0.3616 -0.1007 -1.1476
29540SOL     OW89197   9.121   2.462   6.633  0.5500  0.3307  0.0975
29540SOL    HW189198   9.054   2.519   6.595 -0.6055 -2.3270 -2.2015
29540SOL    HW289199   9.101   2.462   6.727 -2.0538  0.4659 -0.3689
29541SOL     OW89200   3.294   1.829   9.382 -0.2227 -0.2285 -0.3870
29541SOL    HW189201   3.369   1.804   9.436 -2.7011 -2.0902  2.5336
29541SOL    HW289202   3.283   1.757   9.320 -1.8375 -2.1097  1.8931
29542SOL     OW89203   2.117   0.392   5.533  0.1157  0.4271  0.4326
29542SOL    HW189204   2.039   0.354   5.492 -0.4373  1.4029  0.5470
29542SOL    HW289205   2.184   0.325   5.524 -0.6226 -0.2635 -0.0504
29543SOL     OW89206   3.446   8.908   6.232  0.4980  0.3701 -0.2372
29543SOL    HW189207   3.379   8.854   6.273  1.2771 -0.4113  0.0353
29543SOL    HW289208   3.514   8.846   6.205 -0.2059  0.7780 -3.2218
29544SOL     OW89209   7.878   4.442   6.873  0.2443 -0.1332  0.3805
29544SOL    HW189210   7.910   4.532   6.865  1.3211 -0.5361 -0.1422
29544SOL    HW289211   7.825   4.442   6.952 -0.3212  1.1130  0.0327
29545SOL     OW89212   6.773   5.716   2.044 -0.2614  0.3089 -0.6453
29545SOL    HW189213   6.681   5.734   2.064  0.1750  2.4897 -0.3184
29545SOL    HW289214   6.770   5.655   1.971 -1.9419 -1.1450  0.5348
29546SOL     OW89215   7.275   0.470   1.562  0.1919  0.1034  0.1490
29546SOL    HW189216   7.248   0.391   1.610  0.6064  0.4873  1.0334
29546SOL    HW289217   7.225   0.541   1.603  0.4805  0.4218 -0.0528
29547SOL     OW89218   0.486   3.141   9.860  0.0791  0.5138 -0.0063
29547SOL    HW189219   0.525   3.144   9.772 -1.8415  2.5412 -0.8602
29547SOL    HW289220   0.478   3.047   9.878  0.3350  0.0227 -2.0868
29548SOL     OW89221   7.645   0.565   3.591 -0.5889 -0.4306  0.2473
29548SOL    HW189222   7.661   0.653   3.557 -1.8781  0.4653  1.8355
29548SOL    HW289223   7.723   0.546   3.644  0.2612 -0.8038 -1.0741
29549SOL     OW89224   9.082   0.967   6.041 -0.3100  0.6172 -0.4473
29549SOL    HW189225   9.159   1.013   6.074 -0.7440  1.0303 -0.0030
29549SOL    HW289226   9.042   0.929   6.119 -0.0486 -0.3826 -0.7860
29550SOL     OW89227   0.664   7.921   9.520 -0.0010  0.9381 -0.0695
29550SOL    HW189228   0.720   7.915   9.443 -0.5719 -0.9700 -0.4041
29550SOL    HW289229   0.581   7.955   9.487 -0.2919 -0.0110 -0.3745
29551SOL     OW89230   5.384   9.795   2.241  0.2006 -0.2786 -0.3799
29551SOL    HW189231   5.405   9.702   2.230  1.5174  0.0618 -0.8849
29551SOL    HW289232   5.296   9.804   2.205 -0.3636 -1.5145  0.6070
29552SOL     OW89233   5.361   7.124   0.709 -0.1505 -0.3188 -0.2744
29552SOL    HW189234   5.440   7.117   0.656 -1.9281  1.4563 -3.4797
29552SOL    HW289235   5.365   7.212   0.747 -0.3920 -0.3871 -0.0858
29553SOL     OW89236   8.836   3.557   9.113 -0.4998  0.1987  0.2582
29553SOL    HW189237   8.835   3.565   9.208 -0.3201 -0.1313  0.2894
29553SOL    HW289238   8.928   3.567   9.089 -0.6205  0.8863  0.0606
29554SOL     OW89239   7.432   6.727   3.967 -0.2260 -0.2278  0.0460
29554SOL    HW189240   7.451   6.702   3.876 -1.8721 -0.6836 -0.2100
29554SOL    HW289241   7.343   6.694   3.982  0.3410 -0.9434  2.1129
29555SOL     OW89242   6.860   9.474   4.236  0.1445 -0.1577  0.0476
29555SOL    HW189243   6.783   9.502   4.187  0.1229  0.8463  0.6348
29555SOL    HW289244   6.920   9.548   4.232  1.5934 -1.3363 -1.3807
29556SOL     OW89245   2.734   1.122   5.499 -0.3704 -0.5363 -0.3867
29556SOL    HW189246   2.660   1.093   5.553 -0.6824 -1.4536 -1.2682
29556SOL    HW289247   2.710   1.210   5.471  0.1152  0.2471  1.5090
29557SOL     OW89248   8.492   3.777   9.019 -0.1729 -0.5594 -0.4681
29557SOL    HW189249   8.491   3.683   9.035 -0.7861 -0.2267  1.8645
29557SOL    HW289250   8.410   3.809   9.057  0.4723  1.0293 -0.3318
29558SOL     OW89251   4.709   0.285   4.349  0.0357 -0.1281 -0.1213
29558SOL    HW189252   4.715   0.360   4.409 -0.7500  0.0259 -0.2169
29558SOL    HW289253   4.615   0.277   4.331  0.3810  1.0971 -2.9318
29559SOL     OW89254   5.898   5.942   6.261  0.1689  0.1224 -0.2873
29559SOL    HW189255   5.877   5.851   6.281 -4.5648  1.1933  0.9668
29559SOL    HW289256   5.938   5.939   6.174 -0.4537 -3.1045 -0.5923
29560SOL     OW89257   7.620   1.993   1.995  0.0564 -0.5214  0.3326
29560SOL    HW189258   7.581   1.960   2.076  1.6955 -1.2590  0.8538
29560SOL    HW289259   7.700   2.036   2.022 -0.0888  0.4917 -0.7712
29561SOL     OW89260   7.846   4.901   9.907 -0.5611  0.3446 -0.6541
29561SOL    HW189261   7.764   4.863   9.940 -0.8262 -1.6349 -3.2485
29561SOL    HW289262   7.887   4.940   9.984 -2.6819 -0.9445  1.2643
29562SOL     OW89263   2.222   8.827   0.035 -0.1926 -0.3117  0.0849
29562SOL    HW189264   2.238   8.741   0.074 -1.0956  0.3056  2.0048
29562SOL    HW289265   2.184   8.808  -0.051 -1.2434 -1.8848  0.8319
29563SOL     OW89266   9.751   3.811   7.724 -0.5164 -0.1449  0.6449
29563SOL    HW189267   9.722   3.767   7.803 -0.7288 -0.6273  0.3051
29563SOL    HW289268   9.772   3.900   7.752  0.6097 -0.6427  1.4943
29564SOL     OW89269   0.534   9.494   4.691  0.1022 -0.3412 -0.0103
29564SOL    HW189270   0.453   9.443   4.687  1.2626 -2.2973  0.1283
29564SOL    HW289271   0.552   9.505   4.784  0.1939 -0.2171 -0.0415
29565SOL     OW89272   6.546   6.683   7.377 -0.4238  0.7663  0.0985
29565SOL    HW189273   6.553   6.744   7.451  1.6216  1.7501 -0.8518
29565SOL    HW289274   6.575   6.599   7.413 -2.6821  0.3687  1.2458
29566SOL     OW89275   5.468   8.640   0.506  0.1062 -0.4751  0.3067
29566SOL    HW189276   5.551   8.647   0.459  0.0561 -1.1230  0.1013
29566SOL    HW289277   5.442   8.548   0.495 -1.9970  0.2610 -1.9274
29567SOL     OW89278   3.026   9.766   3.964  0.1348  0.7160 -0.4456
29567SOL    HW189279   3.078   9.831   3.915 -0.0163  1.0688 -0.1450
29567SOL    HW289280   2.960   9.819   4.009  0.1240  0.3643 -0.0539
29568SOL     OW89281   8.316   7.722   1.235 -0.3653  0.3312 -0.4002
29568SOL    HW189282   8.322   7.652   1.170  0.2193  1.0092 -1.0779
29568SOL    HW289283   8.291   7.676   1.316 -0.9396 -0.5358 -1.0482
29569SOL     OW89284   6.965   9.231   3.903  0.3292  0.0705 -0.4866
29569SOL    HW189285   7.021   9.154   3.901  0.7340  0.3317  0.2692
29569SOL    HW289286   7.000   9.288   3.834  0.6894  0.0178 -0.3512
29570SOL     OW89287   6.489   5.469   1.604 -0.0582 -0.3664  0.0640
29570SOL    HW189288   6.537   5.436   1.680 -0.0136 -0.3382  0.0473
29570SOL    HW289289   6.486   5.564   1.617  1.4187 -0.1700 -0.8334
29571SOL     OW89290   1.131   4.954   7.086 -0.2794  0.2755  0.1535
29571SOL    HW189291   1.074   5.029   7.069 -0.1979 -0.1155 -2.2862
29571SOL    HW289292   1.216   4.992   7.107 -0.0664  0.9333 -1.7057
29572SOL     OW89293   7.041   5.916   6.689  0.1743 -0.0977  0.5860
29572SOL    HW189294   7.046   5.949   6.599  1.5813  1.4691  1.1846
29572SOL    HW289295   7.132   5.918   6.720 -0.0431 -2.2126  1.5331
29573SOL     OW89296   7.027   5.237   5.500  0.0963 -0.2859 -0.1745
29573SOL    HW189297   7.002   5.264   5.588  0.1940 -0.9806  0.0726
29573SOL    HW289298   7.049   5.319   5.455  0.4269  0.0409  0.5643
29574SOL     OW89299   6.960   5.856   5.595  0.5141  0.1571  0.4740
29574SOL    HW189300   7.048   5.892   5.605  0.2819  1.0773 -0.6505
29574SOL    HW289301   6.922   5.864   5.682  1.5094 -0.1943  0.9620
29575SOL     OW89302   0.099   8.939   2.822  0.7777  0.0235 -0.1547
29575SOL    HW189303   0.071   8.877   2.890  0.2535  0.5239  0.0902
29575SOL    HW289304   0.138   9.011   2.871  2.3187 -0.5475 -0.4765
29576SOL     OW89305   2.975   9.963   7.388 -0.1712 -0.0518  0.1813
29576SOL    HW189306   3.042   9.942   7.323 -0.3804  0.6177 -0.2621
29576SOL    HW289307   2.906  10.007   7.338  0.5239  2.2969  1.1252
29577SOL     OW89308   8.211   7.176   2.757  0.3135  0.6433  0.0708
29577SOL    HW189309   8.170   7.158   2.672 -1.1681  0.4211  0.8136
29577SOL    HW289310   8.299   7.208   2.734  0.4575 -0.7264 -1.4919
29578SOL     OW89311   4.802   7.769   6.246 -0.6587 -0.3166  0.1615
29578SOL    HW189312   4.893   7.744   6.231 -0.7954 -0.1112 -1.1478
29578SOL    HW289313   4.768   7.789   6.158 -1.6440  0.7011  0.7502
29579SOL     OW89314   3.162   0.226   2.802  0.1316 -0.0407 -0.0594
29579SOL    HW189315   3.156   0.207   2.709  0.0988  0.6167 -0.1978
29579SOL    HW289316   3.256   0.238   2.818  0.1229  0.0118 -0.0457
29580SOL     OW89317   8.136   4.243   3.738  0.0954 -0.1044 -0.0547
29580SOL    HW189318   8.123   4.271   3.828 -1.3414  0.0563 -0.2946
29580SOL    HW289319   8.098   4.156   3.733 -2.7482  1.0698 -1.1958
29581SOL     OW89320   7.146   7.211   6.291  0.1807  0.0172  0.5007
29581SOL    HW189321   7.145   7.307   6.284 -1.9177  0.2002  2.3636
29581SOL    HW289322   7.118   7.181   6.204  2.8064  0.9374 -0.7686
29582SOL     OW89323   3.181   1.398   7.820 -0.4510  0.0575  0.2036
29582SOL    HW189324   3.163   1.474   7.765 -0.8047 -0.5944 -0.5900
29582SOL    HW289325   3.187   1.324   7.760 -1.1493 -0.7260  1.0517
29583SOL     OW89326   4.321   4.143   2.666  0.3969 -0.0024 -0.2132
29583SOL    HW189327   4.331   4.126   2.572 -0.1127  0.1150 -0.2949
29583SOL    HW289328   4.276   4.227   2.670 -0.8651 -0.6698  0.0970
29584SOL     OW89329   5.990   9.134   5.962 -0.0614 -0.3773  0.0567
29584SOL    HW189330   5.980   9.160   6.054 -0.3306 -0.2643 -0.0020
29584SOL    HW289331   6.073   9.173   5.935 -0.6053  0.7065 -0.1186
29585SOL     OW89332   0.006   3.159   3.174 -0.1590  0.8952 -0.4988
29585SOL    HW189333   0.042   3.246   3.185  0.0170  0.7304  0.2372
29585SOL    HW289334   0.054   3.104   3.235 -1.0454  0.5017 -0.1320
29586SOL     OW89335   5.763   9.806   2.185  0.0251 -0.1391 -0.3389
29586SOL    HW189336   5.690   9.856   2.148 -1.2764 -2.4285 -1.0729
29586SOL    HW289337   5.744   9.715   2.162  1.2678 -1.2572  2.5325
29587SOL     OW89338   0.155   4.940   0.033  0.3126 -0.1442  0.2943
29587SOL    HW189339   0.149   5.022   0.081 -0.2493 -0.5608  0.9623
29587SOL    HW289340   0.065   4.923   0.003  0.0380 -1.3848  1.6927
29588SOL     OW89341   9.853   4.957   0.504 -0.4152  0.0371  0.0489
29588SOL    HW189342   9.931   5.011   0.493 -0.2639  0.0769  1.2247
29588SOL    HW289343   9.868   4.881   0.447 -1.5408  2.0911 -3.2588
29589SOL     OW89344   0.422   3.745   6.738 -0.6556  0.1792 -0.5433
29589SOL    HW189345   0.420   3.670   6.678  3.6172 -1.1164  0.5809
29589SOL    HW289346   0.406   3.707   6.824 -1.8078  1.1805 -0.3035
29590SOL     OW89347   3.464   1.809   0.233 -0.1806 -0.3895 -0.1464
29590SOL    HW189348   3.470   1.897   0.196  1.3784 -0.1970  0.5030
29590SOL    HW289349   3.450   1.752   0.157  1.5454  0.1453 -0.9287
29591SOL     OW89350   7.294   3.519   5.644 -0.0344  0.4259 -0.0058
29591SOL    HW189351   7.299   3.589   5.580  0.4683  0.4829  0.0886
29591SOL    HW289352   7.225   3.546   5.705  0.7166  1.2432  0.5024
29592SOL     OW89353   7.912   1.512   2.132  0.1478  0.1813 -0.0826
29592SOL    HW189354   7.904   1.592   2.183  1.8755  0.7160 -0.5874
29592SOL    HW289355   7.924   1.543   2.042  2.0498 -0.5765 -0.1226
29593SOL     OW89356   0.611   2.001   0.247  1.1303 -0.0584 -0.0818
29593SOL    HW189357   0.526   1.972   0.214  1.4640  1.1247 -2.1470
29593SOL    HW289358   0.656   2.035   0.170  3.3181 -0.2418  1.0497
29594SOL     OW89359   8.270   9.572   2.440 -0.2528  0.6995 -0.3129
29594SOL    HW189360   8.345   9.514   2.428 -0.0698  0.6962  0.7482
29594SOL    HW289361   8.250   9.567   2.533 -1.8410  0.3832 -0.6330
29595SOL     OW89362   7.762   3.975   9.239 -0.5121  0.2329 -0.0670
29595SOL    HW189363   7.755   3.896   9.184 -1.4848  0.3882 -0.1832
29595SOL    HW289364   7.850   3.970   9.276  0.0723 -0.0330 -1.3982
29596SOL     OW89365   9.593   2.039   3.141  0.0125  0.3911  0.2330
29596SOL    HW189366   9.504   2.049   3.107 -0.2360 -0.3090  0.6626
29596SOL    HW289367   9.604   2.113   3.201 -0.7182 -0.1553  1.0769
29597SOL     OW89368   4.037   8.943   9.615 -1.0814  0.1682 -0.2596
29597SOL    HW189369   3.965   8.930   9.676 -2.9342 -1.0941 -2.5412
29597SOL    HW289370   4.088   8.862   9.619 -0.3671  0.6399  0.5758
29598SOL     OW89371   5.173   3.889   5.529  0.6331 -0.2935 -0.1147
29598SOL    HW189372   5.113   3.885   5.603  1.1879  0.0637  0.3601
29598SOL    HW289373   5.259   3.868   5.565  1.3762  2.4088 -0.0915
29599SOL     OW89374   3.059   6.315   2.707 -0.1067 -0.1130 -0.5224
29599SOL    HW189375   3.111   6.385   2.668 -0.2453  0.2593 -0.0526
29599SOL    HW289376   3.015   6.357   2.781  0.5950 -0.9382  0.3728
29600SOL     OW89377   4.563   3.338   5.454  0.1482 -0.3985 -0.0977
29600SOL    HW189378   4.633   3.402   5.435 -0.5841  0.9362  1.4913
29600SOL    HW289379   4.601   3.280   5.520  0.7952 -1.6537 -1.5046
29601SOL     OW89380   9.126   0.436   1.435  0.1976  0.2610  0.3046
29601SOL    HW189381   9.088   0.355   1.401 -1.1965  0.4420  1.3463
29601SOL    HW289382   9.064   0.504   1.409  0.7261  0.8347  0.5022
29602SOL     OW89383   1.215   9.317   8.752 -0.1711 -0.3850 -0.2872
29602SOL    HW189384   1.126   9.283   8.759 -0.0796 -0.4840  0.5822
29602SOL    HW289385   1.207   9.397   8.701 -1.0713  0.6774  1.4125
29603SOL     OW89386   3.661   4.271   1.066 -1.1255 -0.0603  0.4929
29603SOL    HW189387   3.658   4.349   1.011 -0.2994 -0.9851 -0.9439
29603SOL    HW289388   3.619   4.203   1.013  0.0830 -1.0875  0.8072
29604SOL     OW89389   5.107   6.973   4.194 -0.2701 -0.5074 -0.3770
29604SOL    HW189390   5.049   6.907   4.231  1.2464 -1.2153  0.8771
29604SOL    HW289391   5.073   7.057   4.225  0.4155 -1.0320  1.9398
29605SOL     OW89392   4.620   7.613   5.279 -0.3906  0.0699 -0.0722
29605SOL    HW189393   4.572   7.695   5.273  1.2067  1.1772  1.4915
29605SOL    HW289394   4.646   7.606   5.371  0.2140 -1.7947 -0.3285
29606SOL     OW89395   9.624   2.841   4.845 -0.1518  0.3384 -0.4760
29606SOL    HW189396   9.653   2.842   4.936  1.2680 -0.4935 -0.8890
29606SOL    HW289397   9.559   2.771   4.841  1.3523 -1.0981 -0.5282
29607SOL     OW89398   3.036   7.948   6.835 -0.0332 -0.3169  0.5623
29607SOL    HW189399   3.098   8.011   6.872  0.1317 -0.8639  1.2397
29607SOL    HW289400   3.085   7.866   6.829 -0.1128 -0.2977 -0.7129
29608SOL     OW89401   5.470   5.810   6.652  0.2048 -0.1140  0.3895
29608SOL    HW189402   5.433   5.731   6.613 -0.1631 -0.0241  0.5548
29608SOL    HW289403   5.492   5.785   6.742  0.2720 -0.0826  0.3823
29609SOL     OW89404   7.011   0.688   5.971 -0.4985  0.5521 -0.0710
29609SOL    HW189405   7.011   0.646   6.057 -1.1298 -0.9117 -0.7559
29609SOL    HW289406   7.098   0.727   5.963  0.0639 -0.5047  0.6704
29610SOL     OW89407   7.643   3.060   8.222 -0.2622  0.6859  0.5727
29610SOL    HW189408   7.700   3.134   8.198 -0.2848 -0.3194 -3.2002
29610SOL    HW289409   7.581   3.053   8.150 -0.8932 -2.3970  1.2685
29611SOL     OW89410   9.587   1.731   1.230 -0.1506 -0.8956 -0.2404
29611SOL    HW189411   9.521   1.681   1.277 -2.5439  0.6158 -1.7383
29611SOL    HW289412   9.567   1.716   1.137 -0.5744  2.1652 -0.7562
29612SOL     OW89413   7.175   8.200   6.765  0.1606  0.6802  0.0563
29612SOL    HW189414   7.157   8.245   6.847 -0.5453  0.7689 -0.1372
29612SOL    HW289415   7.091   8.162   6.740  0.2706  0.9775 -0.8146
29613SOL     OW89416   0.592   0.512   7.139  1.1860  0.0107 -0.6715
29613SOL    HW189417   0.547   0.433   7.169 -0.7380  1.7638  1.4589
29613SOL    HW289418   0.668   0.520   7.197 -0.2949  1.2368  1.2157
29614SOL     OW89419   2.557   5.344   3.226  0.7724 -0.3421 -0.3927
29614SOL    HW189420   2.524   5.282   3.161  2.3001 -2.4026  0.6971
29614SOL    HW289421   2.614   5.292   3.283  1.7081  1.9680  0.9232
29615SOL     OW89422   1.912   5.877   8.498 -0.2580 -0.0419 -0.2526
29615SOL    HW189423   1.909   5.967   8.531  2.6565  0.7794 -1.8310
29615SOL    HW289424   1.894   5.822   8.574 -1.8561  1.8454  0.8076
29616SOL     OW89425   1.379   4.199   0.197  0.7424 -0.5019 -0.5787
29616SOL    HW189426   1.315   4.225   0.131 -0.4581 -1.9668 -0.0563
29616SOL    HW289427   1.421   4.121   0.161  0.1198 -1.2815  0.3370
29617SOL     OW89428   1.454   7.575   9.198  0.3288 -0.1543 -0.6462
29617SOL    HW189429   1.411   7.625   9.267 -0.8481  0.1076 -1.5385
29617SOL    HW289430   1.512   7.638   9.156 -1.0681  0.4914 -1.6980
29618SOL     OW89431   2.057   5.540   9.407 -0.3155 -0.1023  0.1588
29618SOL    HW189432   2.099   5.587   9.334  1.0239 -2.2702 -0.5434
29618SOL    HW289433   1.965   5.531   9.380 -0.7015  2.2780  0.4533
29619SOL     OW89434   5.220   0.916   1.657  0.8806  0.3380  0.4288
29619SOL    HW189435   5.255   1.004   1.649 -0.0964  0.7124  0.1483
29619SOL    HW289436   5.290   0.865   1.697  1.4592  1.2329  0.5559
29620SOL     OW89437   7.962   0.454   4.116 -0.3606  0.6024 -0.0185
29620SOL    HW189438   7.871   0.427   4.120 -0.2351  0.2495  0.6873
29620SOL    HW289439   7.959   0.550   4.118 -0.6861  0.5791  0.8855
29621SOL     OW89440   6.564   8.543   7.113 -0.2609 -0.5055 -0.0033
29621SOL    HW189441   6.544   8.539   7.019  1.8956 -0.6799 -0.5222
29621SOL    HW289442   6.626   8.472   7.127  0.0402  0.0001  1.3906
29622SOL     OW89443   3.123   8.230   9.854  0.0454  0.0891  0.5669
29622SOL    HW189444   3.150   8.243   9.945 -0.1803 -1.9349  0.9681
29622SOL    HW289445   3.192   8.175   9.816 -0.8909 -0.8322  0.1380
29623SOL     OW89446   6.323   1.744   3.211 -0.4064 -0.1187 -0.1595
29623SOL    HW189447   6.268   1.806   3.162 -1.4651 -2.6412 -2.4288
29623SOL    HW289448   6.263   1.707   3.276 -0.4826 -0.5257 -0.4597
29624SOL     OW89449   1.410   8.441   4.407 -0.4074 -0.1678 -0.0140
29624SOL    HW189450   1.345   8.508   4.427 -0.4440 -0.3103  0.3536
29624SOL    HW289451   1.420   8.393   4.489 -1.1397 -1.2725 -0.5614
29625SOL     OW89452   5.049   9.714   4.340  0.3172  0.3872  0.7605
29625SOL    HW189453   5.077   9.758   4.420 -0.7335  0.2543  1.2208
29625SOL    HW289454   5.123   9.659   4.316  1.1503  1.4106  0.8992
29626SOL     OW89455   6.498   6.088   8.612 -0.5241 -0.1222 -0.0251
29626SOL    HW189456   6.468   6.045   8.692  0.9442 -0.2621  0.4722
29626SOL    HW289457   6.551   6.162   8.642 -0.5340  0.2460 -0.8717
29627SOL     OW89458   4.854   6.907   8.583  0.0669  0.4415  0.0356
29627SOL    HW189459   4.947   6.888   8.583 -0.0429 -0.1942 -1.2449
29627SOL    HW289460   4.812   6.821   8.576 -0.6254  0.6961  0.8944
29628SOL     OW89461   3.712   7.942   1.944 -0.0084  0.3317 -0.0712
29628SOL    HW189462   3.753   8.016   1.898  2.0937 -0.4773  0.4008
29628SOL    HW289463   3.685   7.883   1.873  0.6271  0.4004 -0.3839
29629SOL     OW89464   1.950   5.240   0.573  0.5777  0.0365 -0.2473
29629SOL    HW189465   1.938   5.334   0.581  1.3185  0.0516  0.9365
29629SOL    HW289466   1.894   5.203   0.641  1.6700 -0.2624  0.5161
29630SOL     OW89467   2.037   0.400   0.525 -0.2939 -0.0833 -0.7997
29630SOL    HW189468   2.001   0.343   0.593  2.1858  1.1172  1.7105
29630SOL    HW289469   2.076   0.339   0.462  4.9819 -1.6207  3.2674
29631SOL     OW89470   6.079   6.434   7.684 -0.0266 -0.2779  0.0502
29631SOL    HW189471   6.053   6.524   7.702  0.1869 -0.3536  0.7427
29631SOL    HW289472   5.998   6.389   7.661 -0.1499  0.0605 -0.1741
29632SOL     OW89473   0.609   6.919   5.368  0.1606 -0.5283  0.1359
29632SOL    HW189474   0.597   6.967   5.286 -0.1942 -0.9212 -0.0494
29632SOL    HW289475   0.567   6.975   5.434 -2.8165 -1.8304 -0.4902
29633SOL     OW89476   8.185   6.738   6.421  0.1590  0.3009  0.2661
29633SOL    HW189477   8.120   6.725   6.352 -0.0547 -0.9204  0.6719
29633SOL    HW289478   8.223   6.651   6.435  3.0910  1.2518 -1.0987
29634SOL     OW89479   1.636   5.548   1.503 -0.3186  0.4395 -0.3322
29634SOL    HW189480   1.711   5.539   1.561 -0.6699 -0.7264 -0.0337
29634SOL    HW289481   1.560   5.551   1.561 -0.4940  2.0967 -0.6071
29635SOL     OW89482   3.296   9.158   6.351 -0.0110  0.3733 -0.3976
29635SOL    HW189483   3.325   9.202   6.431  1.5802 -0.1015 -0.6787
29635SOL    HW289484   3.376   9.149   6.299 -1.1796  1.6347 -2.5301
29636SOL     OW89485   6.552   6.875   3.474  0.1475  0.3175 -0.3807
29636SOL    HW189486   6.563   6.917   3.389  1.6748  0.2601 -0.2445
29636SOL    HW289487   6.577   6.942   3.537 -0.9499  0.3521  0.0350
29637SOL     OW89488   7.558   5.842   3.259 -0.1328  0.0604  0.0722
29637SOL    HW189489   7.620   5.905   3.295  0.3413 -0.9540  1.0841
29637SOL    HW289490   7.521   5.886   3.182  2.0776  0.5604 -0.7667
29638SOL     OW89491   4.680   9.455   0.081  0.0486 -0.4881 -0.1583
29638SOL    HW189492   4.750   9.390   0.093 -0.5900 -1.2728 -0.6053
29638SOL    HW289493   4.713   9.512   0.012  0.9624  0.1670  0.7926
29639SOL     OW89494   8.143   1.824   1.989  0.2532  0.0039 -0.1036
29639SOL    HW189495   8.076   1.810   1.923 -0.2436 -0.4765  0.4897
29639SOL    HW289496   8.224   1.835   1.939  0.2598 -2.4057 -0.7453
29640SOL     OW89497   1.363   2.596   3.240  0.2267  0.0692 -0.4232
29640SOL    HW189498   1.364   2.665   3.173 -1.7488 -0.8396 -1.4621
29640SOL    HW289499   1.419   2.527   3.205 -1.3091 -0.6756 -1.5107
29641SOL     OW89500   2.637   3.989   5.215 -0.0812  0.1266 -0.0106
29641SOL    HW189501   2.606   3.902   5.241  0.9306 -0.0370  0.7367
29641SOL    HW289502   2.731   3.977   5.201 -0.2685  0.6530 -1.9570
29642SOL     OW89503   9.425   9.180   3.983  0.1619  0.1881  0.2704
29642SOL    HW189504   9.455   9.171   3.892  0.8235 -1.9866  0.6289
29642SOL    HW289505   9.332   9.202   3.976  0.0161 -0.7059 -0.9690
29643SOL     OW89506   1.863   6.246   3.519  0.3154 -0.0040 -0.2694
29643SOL    HW189507   1.863   6.341   3.527  0.2113  0.0974 -1.3539
29643SOL    HW289508   1.945   6.226   3.473  0.7793 -0.5206  0.7550
29644SOL     OW89509   2.425   4.374   1.869  0.4806 -0.2849  0.0224
29644SOL    HW189510   2.400   4.313   1.799 -2.1928 -0.5394  1.1095
29644SOL    HW289511   2.513   4.404   1.844  0.3148 -1.6667 -2.5237
29645SOL     OW89512   4.901   3.206   3.036 -0.1091 -0.1055  0.3183
29645SOL    HW189513   4.948   3.287   3.015  1.0139 -1.2291 -1.8094
29645SOL    HW289514   4.814   3.220   2.999 -0.0137  0.2278  0.2087
29646SOL     OW89515   5.382   4.277   8.329  0.7168 -0.4603  0.4535
29646SOL    HW189516   5.398   4.186   8.306  0.7024 -0.4141  0.2586
29646SOL    HW289517   5.398   4.326   8.248 -0.8081 -0.4579  0.1139
29647SOL     OW89518   4.524   8.713   2.959  0.4766  0.7171  0.2419
29647SOL    HW189519   4.575   8.704   3.040 -1.2499 -0.5620  1.2436
29647SOL    HW289520   4.438   8.742   2.988 -0.2209  0.0714 -1.1214
29648SOL     OW89521   6.915   4.308   3.870  0.3235  0.9279  0.3112
29648SOL    HW189522   6.887   4.353   3.950 -0.1222  0.5019  0.4046
29648SOL    HW289523   6.835   4.266   3.838  0.9271 -0.6822  0.8171
29649SOL     OW89524   7.958   7.720   1.590  0.1563 -0.0772 -0.3646
29649SOL    HW189525   7.981   7.784   1.522 -0.7131 -1.7476 -2.3471
29649SOL    HW289526   8.041   7.676   1.610  0.0417 -1.2851 -2.2847
29650SOL     OW89527   3.567   3.726   1.562 -0.0400 -0.5304 -0.0952
29650SOL    HW189528   3.636   3.680   1.610  1.0966  0.6062 -0.5876
29650SOL    HW289529   3.587   3.707   1.470 -0.2540 -0.0079 -0.2470
29651SOL     OW89530   7.764   0.785   3.849  0.4453 -0.0297 -0.3792
29651SOL    HW189531   7.788   0.814   3.937  0.7414 -0.6843 -0.2422
29651SOL    HW289532   7.726   0.698   3.861  1.4106 -0.5605 -1.0012
29652SOL     OW89533   4.900   6.720   8.221  0.1285 -0.3515 -0.2601
29652SOL    HW189534   4.915   6.812   8.244  2.1311 -0.1876 -1.9120
29652SOL    HW289535   4.946   6.671   8.290 -1.1014 -0.1811  0.7312
29653SOL     OW89536   5.724   8.752   0.046 -0.0444 -0.3766 -0.8874
29653SOL    HW189537   5.756   8.784   0.131 -3.3092 -1.2952  0.8549
29653SOL    HW289538   5.688   8.830   0.004 -0.3687 -0.2797 -0.4421
29654SOL     OW89539   4.226   4.624   6.420 -0.5396 -0.6914  0.2758
29654SOL    HW189540   4.179   4.581   6.492 -2.7577 -0.3120 -0.8745
29654SOL    HW289541   4.170   4.698   6.396  0.1930 -0.7657 -1.7995
29655SOL     OW89542   3.606   4.862   7.226  0.2415 -0.5431 -0.0803
29655SOL    HW189543   3.640   4.916   7.297 -1.0406  1.9608 -1.2278
29655SOL    HW289544   3.675   4.866   7.159 -0.4139  0.8865 -0.7007
29656SOL     OW89545   3.520   2.604   7.138 -0.0704  0.3425  0.0735
29656SOL    HW189546   3.584   2.670   7.112  1.5474 -1.0403  0.3708
29656SOL    HW289547   3.572   2.529   7.165 -1.8366 -0.8690  0.3094
29657SOL     OW89548   7.706   4.642   0.932 -0.2991  0.1482 -0.4433
29657SOL    HW189549   7.697   4.547   0.928 -0.3403  0.1928 -2.1185
29657SOL    HW289550   7.616   4.675   0.939 -0.4954  0.1190 -2.4054
29658SOL     OW89551   2.787   1.717   6.081 -0.1150  0.0360  0.4641
29658SOL    HW189552   2.704   1.756   6.109 -0.1020 -0.1353  0.7360
29658SOL    HW289553   2.854   1.767   6.128 -0.1074 -0.4444  0.9610
29659SOL     OW89554   6.979   4.586   7.559  0.0649 -0.5930 -0.0856
29659SOL    HW189555   6.890   4.552   7.558 -0.0314 -0.3505 -1.2605
29659SOL    HW289556   6.994   4.617   7.470  1.8783 -2.0639 -0.3478
29660SOL     OW89557   0.234   1.845   7.878  0.2271  0.2547 -0.0367
29660SOL    HW189558   0.193   1.930   7.861  0.3304  0.0750 -1.2996
29660SOL    HW289559   0.178   1.782   7.832  0.4032 -0.3021  0.5078
29661SOL     OW89560   1.621   8.880   9.890 -0.1483 -0.1717 -0.4853
29661SOL    HW189561   1.626   8.919   9.802 -1.4429 -0.6543 -0.8080
29661SOL    HW289562   1.648   8.789   9.877 -1.1316 -0.4696 -0.5747
29662SOL     OW89563   8.668   7.880   6.720 -0.2943  0.2596  0.5219
29662SOL    HW189564   8.673   7.785   6.711  0.0349  0.3086  0.1423
29662SOL    HW289565   8.711   7.899   6.803  0.2668  0.1340  0.2635
29663SOL     OW89566   3.592   2.544   7.859  1.0765  0.1315 -1.0502
29663SOL    HW189567   3.674   2.588   7.835  0.1958  1.6100 -1.4328
29663SOL    HW289568   3.525   2.589   7.808 -0.3397  0.7159  1.2110
29664SOL     OW89569   1.521   7.962   5.447  0.0804  0.1521 -0.4864
29664SOL    HW189570   1.491   7.982   5.535 -0.6460 -0.7418 -0.5125
29664SOL    HW289571   1.616   7.968   5.451  0.1760 -1.7234  0.8429
29665SOL     OW89572   5.279   5.084   9.957  0.1849 -0.3582 -0.2983
29665SOL    HW189573   5.334   5.050   9.887 -0.7511 -0.4938 -0.9774
29665SOL    HW289574   5.229   5.009   9.988 -2.2681  0.3922 -2.1495
29666SOL     OW89575   2.547   9.263   0.478 -0.3767 -0.6766 -0.3124
29666SOL    HW189576   2.489   9.292   0.407  0.5287 -1.1352 -1.2711
29666SOL    HW289577   2.511   9.304   0.556 -0.0463  1.7997 -1.3677
29667SOL     OW89578   7.319   6.366   1.274  0.2965  0.3429  0.0223
29667SOL    HW189579   7.333   6.425   1.200  1.3462 -0.0904 -0.1455
29667SOL    HW289580   7.297   6.282   1.234  0.0726  0.3036  0.2261
29668SOL     OW89581   5.796   9.195   2.176 -0.4095 -0.1305 -0.1359
29668SOL    HW189582   5.794   9.112   2.128 -0.8033 -0.3755  0.2958
29668SOL    HW289583   5.707   9.228   2.170  0.1569  1.2453 -1.9756
29669SOL     OW89584   8.886   2.146   8.056  0.1722 -0.2272  0.3103
29669SOL    HW189585   8.844   2.199   8.124 -0.2377 -0.6345  0.3761
29669SOL    HW289586   8.978   2.143   8.082  0.4659  1.5224 -0.3758
29670SOL     OW89587   9.153   7.197   9.740  0.3993  0.1741  0.5625
29670SOL    HW189588   9.154   7.199   9.644 -0.6660 -2.7774  0.3738
29670SOL    HW289589   9.082   7.136   9.761  4.1369 -3.8802  2.9865
29671SOL     OW89590   7.018   2.526   7.254  0.0192 -0.0678  0.1014
29671SOL    HW189591   7.108   2.545   7.227 -0.0103  1.1912  0.7927
29671SOL    HW289592   7.009   2.570   7.338 -1.6287  0.9139 -0.5439
29672SOL     OW89593   9.921   3.312   9.172  0.0813  0.0100  0.0157
29672SOL    HW189594   9.901   3.219   9.185 -0.0310  0.1254  0.7140
29672SOL    HW289595  10.011   3.312   9.139  0.3592 -0.3139  0.7512
29673SOL     OW89596   8.147   0.695   4.617 -0.2337 -0.5030  0.4499
29673SOL    HW189597   8.191   0.625   4.569 -0.1989 -0.4441  0.3964
29673SOL    HW289598   8.168   0.775   4.569 -2.4538 -0.7410 -1.0672
29674SOL     OW89599   3.689   2.090   6.690 -0.1495 -0.2971  0.1445
29674SOL    HW189600   3.610   2.141   6.670  0.1556 -0.2051 -0.8864
29674SOL    HW289601   3.747   2.106   6.616  0.6997 -0.6577  0.7182
29675SOL     OW89602   9.160   1.778   1.767 -0.3676 -0.5908  0.5862
29675SOL    HW189603   9.235   1.818   1.812 -0.5824 -0.9392  1.2678
29675SOL    HW289604   9.101   1.752   1.838 -2.6951  2.5919  0.0552
29676SOL     OW89605   7.982   2.769   6.468  0.0788  0.6046  0.2344
29676SOL    HW189606   8.002   2.721   6.548  0.5308  2.4927  1.3159
29676SOL    HW289607   7.895   2.806   6.483  0.5063  1.6596  0.2516
29677SOL     OW89608   1.841   5.991   4.231  0.9981  0.3728 -0.1162
29677SOL    HW189609   1.768   6.036   4.188  1.9140 -0.8653 -3.3104
29677SOL    HW289610   1.915   6.052   4.223  2.3984 -1.4554 -4.9900
29678SOL     OW89611   0.064   0.166   9.541  0.0355 -0.5149  0.1361
29678SOL    HW189612   0.144   0.151   9.490 -1.0247 -1.7505 -1.2656
29678SOL    HW289613   0.068   0.099   9.610  0.5324 -0.1126  0.5084
29679SOL     OW89614   8.049   3.581   1.237  0.1193 -0.4987  0.4339
29679SOL    HW189615   8.116   3.529   1.192  0.1801 -1.0831  1.1838
29679SOL    HW289616   7.971   3.525   1.235  0.3117 -0.8387  1.6706
29680SOL     OW89617   7.469   1.459   0.081 -0.1080  0.1946  0.3670
29680SOL    HW189618   7.376   1.448   0.063 -0.0341  0.5629 -0.2724
29680SOL    HW289619   7.508   1.478  -0.005  0.4497  0.7342  0.7308
29681SOL     OW89620   1.018   0.060   4.356  0.0476  0.2289  0.4711
29681SOL    HW189621   0.962   0.073   4.432 -0.1352 -0.2881  0.4334
29681SOL    HW289622   1.093   0.010   4.389 -0.6033 -1.0506  0.1066
29682SOL     OW89623   7.914   9.305   0.307 -0.1417  0.6125  0.1499
29682SOL    HW189624   7.841   9.367   0.300 -1.6717 -1.1559 -0.3687
29682SOL    HW289625   7.918   9.285   0.401 -0.8947  0.1215  0.0927
29683SOL     OW89626   1.168   3.720   1.925  0.6170 -0.0855  0.8800
29683SOL    HW189627   1.077   3.735   1.948  0.4915 -0.2950  0.5216
29683SOL    HW289628   1.185   3.777   1.851  0.4403 -0.8898  0.2013
29684SOL     OW89629   2.148   4.990   2.765  0.0983 -0.0113  0.0989
29684SOL    HW189630   2.175   4.994   2.856 -0.5753  0.3296  0.2859
29684SOL    HW289631   2.151   4.897   2.743  2.8171  0.1002 -0.3207
29685SOL     OW89632   6.249   6.522   5.870  0.0639 -0.7614  0.2247
29685SOL    HW189633   6.246   6.537   5.775 -1.2833 -0.9023  0.2320
29685SOL    HW289634   6.174   6.571   5.905  0.3284 -1.0123  1.1788
29686SOL     OW89635   3.090   3.672   0.361  0.2811 -0.7856 -0.3892
29686SOL    HW189636   3.005   3.675   0.317  0.8912  0.4730 -1.5429
29686SOL    HW289637   3.145   3.618   0.304  0.8807  0.2709 -0.8412
29687SOL     OW89638   4.928   1.616   3.509  0.6225 -0.2739 -0.3162
29687SOL    HW189639   4.885   1.557   3.572 -0.8024  0.3725 -0.6403
29687SOL    HW289640   4.987   1.559   3.460 -0.0491 -1.2613 -0.0163
29688SOL     OW89641   5.666   7.301   6.563  0.3778  0.5379  0.0608
29688SOL    HW189642   5.572   7.294   6.545  0.7306  0.2581 -1.9572
29688SOL    HW289643   5.680   7.392   6.587 -0.4187  0.5337  0.5844
29689SOL     OW89644   0.906   4.247   0.515 -0.3450  0.5424  0.3459
29689SOL    HW189645   0.911   4.151   0.508 -2.0603  0.3684  1.0019
29689SOL    HW289646   0.836   4.272   0.455 -0.4007  1.3160  0.7255
29690SOL     OW89647   2.113   5.798   2.690  0.2235 -1.3437  0.0971
29690SOL    HW189648   2.175   5.818   2.620  1.1455  1.1567  1.4989
29690SOL    HW289649   2.032   5.843   2.664  0.3321 -1.0630  0.2312
29691SOL     OW89650   1.069   7.759   7.198  0.1458  0.5327 -0.1561
29691SOL    HW189651   1.075   7.779   7.291  0.5389  3.2166 -0.6544
29691SOL    HW289652   0.976   7.744   7.182  0.0770  0.0560  0.6648
29692SOL     OW89653   0.950   9.961   7.603 -0.2356  0.0849 -0.2506
29692SOL    HW189654   1.010   9.997   7.669 -1.3815  1.5965  0.0284
29692SOL    HW289655   1.006   9.945   7.527  0.9501 -0.8668  0.7757
29693SOL     OW89656   3.913   3.865   4.528  0.4066  0.6327  0.3567
29693SOL    HW189657   3.826   3.875   4.489 -0.3271  0.1989  1.8017
29693SOL    HW289658   3.973   3.871   4.454 -0.9371 -0.8986 -0.9381
29694SOL     OW89659   2.818   0.773   9.707  0.0634 -0.2783  0.2204
29694SOL    HW189660   2.897   0.719   9.699  0.3759  0.3606 -1.3782
29694SOL    HW289661   2.756   0.735   9.645 -0.2441  0.2794  0.1749
29695SOL     OW89662   3.352   7.945   9.654 -0.4698 -0.3305 -0.5929
29695SOL    HW189663   3.279   7.988   9.609  0.3393 -0.6540 -2.3193
29695SOL    HW289664   3.376   7.873   9.595 -0.1890 -1.6196  1.0237
29696SOL     OW89665   1.731   4.343   9.930 -0.2328  0.1852 -0.2094
29696SOL    HW189666   1.710   4.384  10.014  0.8117  0.6105 -0.1446
29696SOL    HW289667   1.681   4.392   9.866  0.4940  1.1444 -0.0563
29697SOL     OW89668   7.876   2.618   0.699  0.5263 -0.1996 -0.7620
29697SOL    HW189669   7.848   2.570   0.621  1.9840 -1.2032 -0.7104
29697SOL    HW289670   7.949   2.672   0.668 -0.1770  0.9395 -0.4999
29698SOL     OW89671   8.921   5.940   2.736  0.6366  0.6464  0.5109
29698SOL    HW189672   8.831   5.970   2.731 -0.3295 -1.8332  1.3479
29698SOL    HW289673   8.916   5.847   2.712  3.0023  0.4940  0.4003
29699SOL     OW89674   7.925   8.823   1.457  0.5450  0.6463  0.1209
29699SOL    HW189675   8.007   8.791   1.420  0.7553  1.6061 -0.2633
29699SOL    HW289676   7.948   8.850   1.546  0.1255 -1.2747  0.8673
29700SOL     OW89677   4.879   9.624   8.179 -0.1930 -0.3270  0.3829
29700SOL    HW189678   4.882   9.572   8.260  0.7455  0.7954  1.0901
29700SOL    HW289679   4.831   9.703   8.203 -2.1773 -1.0773 -0.8529
29701SOL     OW89680   7.526   6.785   3.028 -0.4502  0.1346 -0.4297
29701SOL    HW189681   7.615   6.811   3.053 -0.0153  1.4328 -2.9722
29701SOL    HW289682   7.470   6.821   3.097  0.9836 -1.6611  1.8245
29702SOL     OW89683   2.518   9.726   9.427 -0.5412  0.2044  0.2897
29702SOL    HW189684   2.432   9.750   9.392 -0.4598  0.6109  0.3596
29702SOL    HW289685   2.571   9.804   9.415  0.1155 -0.3770 -0.6698
29703SOL     OW89686   8.021   1.072   3.846 -0.1875  0.1439 -0.1810
29703SOL    HW189687   8.089   1.008   3.827  0.9994  1.4802 -0.6335
29703SOL    HW289688   7.954   1.023   3.894  1.5017 -1.0115  1.1154
29704SOL     OW89689   3.059   5.525   6.514  0.2972  0.3998  0.4790
29704SOL    HW189690   3.054   5.608   6.562 -2.7865  2.1770 -2.4220
29704SOL    HW289691   2.983   5.475   6.543  0.1217  0.1808 -0.3302
29705SOL     OW89692   5.137   3.407   9.144  0.1073 -0.4852  0.2258
29705SOL    HW189693   5.059   3.435   9.096 -0.2789 -0.6737  0.7328
29705SOL    HW289694   5.204   3.396   9.076  0.4034  2.0209  0.0223
29706SOL     OW89695   7.034   4.870   2.724  0.2649  0.0384  0.2003
29706SOL    HW189696   7.061   4.870   2.632  0.6411 -2.3172  0.2386
29706SOL    HW289697   7.064   4.785   2.757 -1.6675 -0.0244  1.9664
29707SOL     OW89698   5.345   8.790   8.089  0.1296 -0.0319 -0.3406
29707SOL    HW189699   5.390   8.760   8.010 -0.6711  0.1944 -0.8866
29707SOL    HW289700   5.351   8.885   8.085 -2.5877  0.1705 -1.7697
29708SOL     OW89701   2.290   5.350   5.177  0.0724 -0.3353  0.1975
29708SOL    HW189702   2.296   5.424   5.238  1.1963  0.1897 -0.5296
29708SOL    HW289703   2.221   5.375   5.116 -0.3782 -0.4287  0.6590
29709SOL     OW89704   3.067   8.203   0.801 -0.4470  0.0826 -0.4000
29709SOL    HW189705   3.081   8.268   0.870  0.3107  0.5140 -0.9494
29709SOL    HW289706   2.984   8.161   0.824 -2.1145  2.6969 -1.1543
29710SOL     OW89707   0.936   6.973   4.295 -0.4323 -0.0915 -0.2447
29710SOL    HW189708   0.890   7.045   4.336  0.6626  2.1477 -2.6854
29710SOL    HW289709   1.008   7.014   4.248  1.3285 -2.9804 -0.3354
29711SOL     OW89710   0.497   4.889   1.378 -0.3115  0.2230  0.0607
29711SOL    HW189711   0.446   4.967   1.399  2.3979  2.0834  0.2179
29711SOL    HW289712   0.543   4.868   1.459  0.0023 -0.7604 -0.3545
29712SOL     OW89713   1.318   0.390   9.811  1.3350  0.0682  0.4071
29712SOL    HW189714   1.227   0.399   9.840  0.5862 -2.5231 -0.8680
29712SOL    HW289715   1.360   0.341   9.881  0.7350 -1.9779 -0.5788
29713SOL     OW89716   9.931   8.825   9.565  0.2056  0.1532 -0.3165
29713SOL    HW189717   9.979   8.879   9.502  1.1966 -0.3737 -0.0252
29713SOL    HW289718   9.880   8.888   9.616  3.0100  1.1345  1.5203
29714SOL     OW89719   1.862   4.389   9.119 -0.0354 -0.0721 -0.0914
29714SOL    HW189720   1.848   4.373   9.026 -0.0365 -0.1472 -0.0781
29714SOL    HW289721   1.947   4.432   9.123  0.5749 -1.2308 -0.0207
29715SOL     OW89722   7.893   8.432   4.285 -0.2358 -0.4318 -0.4930
29715SOL    HW189723   7.920   8.453   4.375 -0.1853  0.1596 -0.6423
29715SOL    HW289724   7.846   8.510   4.255  1.2159  0.0800 -1.5674
29716SOL     OW89725   3.823   0.345   1.811 -0.0090  0.0516 -0.5957
29716SOL    HW189726   3.876   0.417   1.776  0.4374  0.1272  0.2098
29716SOL    HW289727   3.804   0.370   1.901 -0.2576 -0.6171 -0.4538
29717SOL     OW89728   6.337   0.972   2.234 -0.2614  0.4965  0.2854
29717SOL    HW189729   6.265   1.018   2.191 -0.5902  0.7902  1.1407
29717SOL    HW289730   6.400   1.040   2.256  0.6338  0.1590 -1.0925
29718SOL     OW89731   4.086   7.967   1.577  0.0020 -0.3957 -0.6409
29718SOL    HW189732   4.073   7.895   1.638 -0.8537 -0.4711 -0.9073
29718SOL    HW289733   4.041   7.940   1.497  1.0085 -0.2517 -1.2831
29719SOL     OW89734   0.132   2.441   0.215 -0.5043  0.4038 -0.4176
29719SOL    HW189735   0.105   2.532   0.210 -3.0617 -0.2900 -0.5419
29719SOL    HW289736   0.228   2.444   0.211 -0.5157  3.0556 -0.2659
29720SOL     OW89737   1.355   0.993   2.583  0.1158  0.3550  0.2337
29720SOL    HW189738   1.430   0.935   2.595  0.4709  1.1813  2.6403
29720SOL    HW289739   1.302   0.980   2.663 -0.7767  1.9219 -0.0667
29721SOL     OW89740   6.570   5.656   8.666  0.0908 -0.1751 -0.0075
29721SOL    HW189741   6.647   5.712   8.672  0.8088 -1.2320  1.1350
29721SOL    HW289742   6.496   5.715   8.680  0.7947  0.5452  0.7519
29722SOL     OW89743   8.851   6.820   1.964 -0.5257 -0.1221 -0.0712
29722SOL    HW189744   8.929   6.876   1.957 -0.5588 -0.2565 -2.1126
29722SOL    HW289745   8.833   6.793   1.874 -1.8717 -1.5781  0.5931
29723SOL     OW89746   6.632   2.817   3.411  0.2649  0.0812 -0.4751
29723SOL    HW189747   6.640   2.873   3.334 -1.4591  1.5451  0.3218
29723SOL    HW289748   6.676   2.866   3.481 -1.1607  0.4393  0.2109
29724SOL     OW89749   1.629   1.011   2.315 -0.1539 -1.5703  0.2207
29724SOL    HW189750   1.626   0.937   2.375 -0.6019 -1.2755  0.5717
29724SOL    HW289751   1.558   1.069   2.345  1.6030  0.1050  1.4131
29725SOL     OW89752   9.806   7.075   9.296 -0.3957 -0.0098 -0.2687
29725SOL    HW189753   9.760   7.007   9.246 -0.2958 -0.1499 -0.1690
29725SOL    HW289754   9.890   7.085   9.251 -0.2628 -0.2112 -0.0676
29726SOL     OW89755   0.487   8.441   3.682 -0.0216 -0.2671  0.0978
29726SOL    HW189756   0.448   8.493   3.753 -0.8550 -0.6576 -0.0613
29726SOL    HW289757   0.520   8.507   3.621 -0.4809  0.0799  0.2127
29727SOL     OW89758   1.455   8.365   0.138  0.2091 -1.0713  0.0172
29727SOL    HW189759   1.368   8.387   0.105  0.0339 -0.4632  0.8423
29727SOL    HW289760   1.472   8.430   0.206  1.3061 -1.1957 -0.1209
29728SOL     OW89761   4.948   8.290   5.820 -0.7780 -0.2915  0.1404
29728SOL    HW189762   4.876   8.333   5.865 -0.5352  0.7953 -0.4597
29728SOL    HW289763   4.939   8.198   5.841 -1.8515 -0.0563  0.7449
29729SOL     OW89764   6.559   3.963   5.681 -0.4823  0.1111 -0.3716
29729SOL    HW189765   6.527   4.021   5.750  1.0243  1.8786 -1.0600
29729SOL    HW289766   6.494   3.971   5.611 -1.3061 -0.6219  0.2886
29730SOL     OW89767   1.680   1.404   3.102 -0.1866  0.1670  0.0522
29730SOL    HW189768   1.757   1.447   3.065  0.3379 -0.2665  0.6160
29730SOL    HW289769   1.706   1.383   3.192 -0.9448 -0.0388  0.2266
29731SOL     OW89770   0.722   8.135   7.868 -0.2566  0.3355 -0.2782
29731SOL    HW189771   0.722   8.224   7.901 -2.1997  1.5419 -3.1103
29731SOL    HW289772   0.805   8.126   7.821  1.0312 -0.2755  1.9798
29732SOL     OW89773   4.308   6.959   2.419  0.7068  0.2597  0.8821
29732SOL    HW189774   4.302   6.908   2.338  1.8094  0.0203  0.9376
29732SOL    HW289775   4.318   7.050   2.390 -0.9683  0.4329  0.7798
29733SOL     OW89776   8.134   3.872   7.787  0.2485 -0.1091 -0.0984
29733SOL    HW189777   8.125   3.889   7.881  4.3446 -3.4663  1.2356
29733SOL    HW289778   8.152   3.958   7.748 -0.9443  1.2981  2.2706
29734SOL     OW89779   1.841   5.453   0.685 -0.3756 -0.3042  0.4184
29734SOL    HW189780   1.807   5.542   0.693 -2.4997 -1.1338  1.3303
29734SOL    HW289781   1.794   5.403   0.752  2.3651 -1.6964  1.4757
29735SOL     OW89782   1.425   2.497   9.364  0.5823 -0.6119 -0.4717
29735SOL    HW189783   1.484   2.501   9.289  0.1630  0.2175 -0.7664
29735SOL    HW289784   1.355   2.559   9.343  0.6519 -0.0958  0.7658
29736SOL     OW89785   4.009   7.169   2.561 -0.2644  0.0171 -0.0203
29736SOL    HW189786   4.078   7.158   2.627 -1.3199  0.7656  1.2638
29736SOL    HW289787   3.992   7.080   2.529 -0.1084 -0.4425  1.1259
29737SOL     OW89788   9.971   8.191   2.312 -0.2845 -0.2780  0.0260
29737SOL    HW189789  10.021   8.272   2.321  2.0349 -1.5137 -0.6941
29737SOL    HW289790   9.898   8.200   2.373  0.8696  1.6338  1.2182
29738SOL     OW89791   4.828   8.289   1.281 -0.1924 -0.3570 -0.4025
29738SOL    HW189792   4.873   8.345   1.218 -0.7572 -0.0705 -0.5567
29738SOL    HW289793   4.775   8.230   1.228  0.2394 -0.8991 -0.2305
29739SOL     OW89794   1.976   8.830   0.911 -0.2579 -0.0986  0.0836
29739SOL    HW189795   1.996   8.878   0.992  0.3696  0.0753 -0.1647
29739SOL    HW289796   1.889   8.794   0.925 -1.0616  1.7047  0.0119
29740SOL     OW89797   5.858   3.896   6.016 -0.2882  0.2065 -0.3162
29740SOL    HW189798   5.833   3.819   6.068  0.3201 -0.7686 -1.4130
29740SOL    HW289799   5.795   3.963   6.040 -0.2404 -0.3174  1.4159
29741SOL     OW89800   0.473   3.657   2.276 -0.0561 -0.4592  0.7590
29741SOL    HW189801   0.393   3.644   2.327 -1.2078  0.4271 -0.7538
29741SOL    HW289802   0.448   3.639   2.186  1.3804  0.0957  0.2169
29742SOL     OW89803   6.422   8.041   1.967  0.2461 -0.3368 -0.6968
29742SOL    HW189804   6.389   7.957   1.998 -1.5585 -0.0638 -1.7118
29742SOL    HW289805   6.367   8.106   2.011  2.2717  0.4100  0.8536
29743SOL     OW89806   0.686   2.119   5.117  0.0829  0.0633  0.2253
29743SOL    HW189807   0.613   2.160   5.072 -0.7013 -0.6444  0.8057
29743SOL    HW289808   0.701   2.175   5.194  0.2260  0.2680  0.0491
29744SOL     OW89809   2.218   1.539   3.875 -0.2407  0.3306 -0.7354
29744SOL    HW189810   2.245   1.575   3.790  0.9944 -0.4342 -0.6913
29744SOL    HW289811   2.252   1.601   3.939 -0.1924  0.3226 -0.7533
29745SOL     OW89812   5.264   1.061   2.630  0.4565 -0.4711  0.5901
29745SOL    HW189813   5.192   1.104   2.675 -1.7652 -2.4498 -0.8332
29745SOL    HW289814   5.338   1.120   2.640 -2.1347  3.3161 -0.6316
29746SOL     OW89815   8.406   6.696   9.208  0.3996 -0.6165 -0.6530
29746SOL    HW189816   8.501   6.708   9.213  0.4468  0.9258 -3.2774
29746SOL    HW289817   8.370   6.778   9.242  0.0729 -0.6229 -0.9750
29747SOL     OW89818   2.482   6.281   6.672 -0.2513  0.0416  0.0631
29747SOL    HW189819   2.389   6.260   6.676 -0.5483  1.4401  1.4765
29747SOL    HW289820   2.496   6.341   6.745  1.8926 -0.5956  0.2337
29748SOL     OW89821   5.744   3.443   6.587 -0.7352  0.0488 -0.2575
29748SOL    HW189822   5.790   3.359   6.585  0.0757  0.3816  1.6132
29748SOL    HW289823   5.768   3.481   6.672 -1.1676  2.1204 -1.0013
29749SOL     OW89824   0.767   1.935   1.169 -0.1966 -0.4253  0.1201
29749SOL    HW189825   0.675   1.920   1.148 -1.5441  2.6923  2.9334
29749SOL    HW289826   0.786   1.875   1.241 -0.2064 -0.5621  0.0103
29750SOL     OW89827   3.022   1.333   4.345 -0.3376 -0.0680  0.1549
29750SOL    HW189828   3.055   1.243   4.341  0.3939  0.2007 -0.0946
29750SOL    HW289829   2.993   1.352   4.256 -1.7669 -0.5034  0.4989
29751SOL     OW89830   4.099   9.199   0.350 -0.1624 -0.3359  0.5081
29751SOL    HW189831   4.102   9.106   0.330  0.8097 -0.4524  1.1288
29751SOL    HW289832   4.160   9.239   0.288 -3.1374  0.4358 -2.2216
29752SOL     OW89833   1.890   7.927   1.464 -0.0997 -0.1154  0.5093
29752SOL    HW189834   1.892   7.880   1.548  0.1912 -1.0606 -0.0147
29752SOL    HW289835   1.934   7.868   1.403 -1.7202 -0.1585 -0.6752
29753SOL     OW89836   3.538   4.192   6.139  0.2652 -0.0990  0.1081
29753SOL    HW189837   3.517   4.153   6.223  0.1567  0.1983  0.2221
29753SOL    HW289838   3.519   4.124   6.075 -0.1907 -0.1392  0.2792
29754SOL     OW89839   3.259   9.209   0.199  0.3635 -0.5958 -0.4352
29754SOL    HW189840   3.313   9.253   0.265  1.2906 -0.0373 -1.5161
29754SOL    HW289841   3.178   9.260   0.196  1.1999  0.7592 -1.2720
29755SOL     OW89842   3.868   1.313   7.388 -0.2316 -0.7824 -0.2714
29755SOL    HW189843   3.813   1.328   7.465 -1.3193  0.7940 -1.2756
29755SOL    HW289844   3.946   1.271   7.422 -0.0392  1.1673  1.9475
29756SOL     OW89845   8.033   6.102   7.501  0.5879 -0.0307 -0.0267
29756SOL    HW189846   7.939   6.119   7.506  0.2721 -1.9437  3.5741
29756SOL    HW289847   8.043   6.050   7.422 -1.5836 -0.7054  0.0650
29757SOL     OW89848   9.481   1.653   1.490  0.0852 -0.0193 -0.5280
29757SOL    HW189849   9.426   1.731   1.497  1.6178  1.0184  0.9905
29757SOL    HW289850   9.495   1.626   1.581 -0.4587 -2.1385 -1.0303
29758SOL     OW89851   2.077   6.214   5.877  0.5330 -0.1953 -0.1248
29758SOL    HW189852   2.066   6.227   5.783 -1.3840  1.0262  0.2167
29758SOL    HW289853   2.131   6.288   5.906  1.0000 -0.4913 -0.2294
29759SOL     OW89854   8.591   9.528   1.577 -0.6047 -0.5260  0.0487
29759SOL    HW189855   8.543   9.554   1.498 -0.0092  1.2139  0.2038
29759SOL    HW289856   8.543   9.569   1.649 -0.0971 -0.5511  0.4058
29760SOL     OW89857   1.737   1.047   1.784 -0.2533  0.0147  0.3030
29760SOL    HW189858   1.684   1.120   1.815  0.9237  1.3189 -0.6537
29760SOL    HW289859   1.673   0.979   1.763 -1.2839  0.1877  2.5574
29761SOL     OW89860   0.658   3.938   9.673 -0.4819 -0.4092 -0.5267
29761SOL    HW189861   0.700   3.995   9.610 -1.5945  0.4245 -0.5441
29761SOL    HW289862   0.613   3.872   9.620 -1.6610  0.4623 -0.6544
29762SOL     OW89863   3.596   1.277   2.459  0.7521  0.4817 -0.2264
29762SOL    HW189864   3.587   1.309   2.548  4.2622 -1.5457  1.0360
29762SOL    HW289865   3.619   1.355   2.408  2.2438  1.1427  1.3703
29763SOL     OW89866   3.574   5.364   5.710 -0.0816 -0.0876  0.1939
29763SOL    HW189867   3.542   5.453   5.699 -0.1851 -0.0874  0.4917
29763SOL    HW289868   3.669   5.372   5.706 -0.0819  0.0710  0.4611
29764SOL     OW89869   7.298   5.025   6.409 -0.5324  0.1847 -0.4670
29764SOL    HW189870   7.327   5.081   6.481 -0.4451 -0.1420 -0.2443
29764SOL    HW289871   7.260   4.949   6.453  0.4144 -0.4816 -0.7544
29765SOL     OW89872   8.511   0.311   6.204 -0.2458  0.6282  0.5428
29765SOL    HW189873   8.427   0.316   6.249 -0.4835  0.6137  0.1052
29765SOL    HW289874   8.556   0.237   6.245 -0.1826  1.0280  1.2148
29766SOL     OW89875   1.404   7.458   4.373 -0.1448  0.1911  0.0392
29766SOL    HW189876   1.492   7.423   4.362 -0.4101 -0.2770 -0.7181
29766SOL    HW289877   1.346   7.385   4.352 -0.7122  0.6776 -0.1296
29767SOL     OW89878   1.439   7.077   9.194  0.0340 -0.6843  0.1763
29767SOL    HW189879   1.520   7.115   9.162  0.2529 -1.4089 -0.1645
29767SOL    HW289880   1.375   7.148   9.190  0.5461 -0.2282  0.0358
29768SOL     OW89881   2.110   4.490   9.089  0.2861 -0.4176  0.7314
29768SOL    HW189882   2.158   4.538   9.022 -1.4817  0.8025  0.2733
29768SOL    HW289883   2.115   4.546   9.167  1.8727 -1.5755  1.5192
29769SOL     OW89884   6.501   5.652   2.030  0.0840  0.2104 -0.5143
29769SOL    HW189885   6.536   5.635   1.942 -0.0707 -0.7421 -0.4082
29769SOL    HW289886   6.408   5.669   2.016  0.2100  0.8499 -0.6063
29770SOL     OW89887   8.804   6.559   5.604 -0.0824  0.3687  0.2183
29770SOL    HW189888   8.874   6.517   5.554 -0.7512 -1.5418  0.7809
29770SOL    HW289889   8.765   6.622   5.543  0.2476 -0.6281 -1.0661
29771SOL     OW89890   4.451   8.269   3.450  0.2087  0.2816 -0.5997
29771SOL    HW189891   4.401   8.197   3.489 -0.9102  0.8834 -0.8943
29771SOL    HW289892   4.439   8.342   3.511 -0.2792  0.7830 -1.2938
29772SOL     OW89893   2.842   2.189   6.246  0.1155 -0.0858  0.7138
29772SOL    HW189894   2.881   2.248   6.181  0.1751 -0.4825  0.3862
29772SOL    HW289895   2.845   2.239   6.328  0.6590  0.1670  0.5496
29773SOL     OW89896   5.673   8.025   8.484 -0.1754  0.0431 -0.5994
29773SOL    HW189897   5.637   7.939   8.503 -0.5458  0.1083 -0.9884
29773SOL    HW289898   5.688   8.065   8.570  2.2843 -1.3152 -0.3205
29774SOL     OW89899   5.344   6.258   0.273  0.6983 -0.0568  0.8955
29774SOL    HW189900   5.284   6.299   0.334  1.3087  1.0281  0.7920
29774SOL    HW289901   5.291   6.241   0.195  0.1881 -0.4271  1.3178
29775SOL     OW89902   3.289   0.358   5.858  0.2349 -0.3389  0.1900
29775SOL    HW189903   3.361   0.333   5.801  0.3627 -1.0943  0.6727
29775SOL    HW289904   3.288   0.454   5.855  1.5382 -0.2990  0.5213
29776SOL     OW89905   2.079   7.325   7.086 -0.2048 -0.1651  0.1587
29776SOL    HW189906   2.072   7.234   7.055  0.2402 -0.3725  0.6344
29776SOL    HW289907   1.999   7.339   7.137 -0.1872 -0.3545  0.2412
29777SOL     OW89908   2.169   7.887   7.861 -0.1249  0.0639  0.0147
29777SOL    HW189909   2.150   7.957   7.798 -1.3604  0.8612  1.2105
29777SOL    HW289910   2.179   7.933   7.945 -1.8345 -1.2426  1.0007
29778SOL     OW89911   3.276   3.885   5.207 -0.2885 -0.1826 -0.1834
29778SOL    HW189912   3.232   3.934   5.276 -0.2472  0.1431 -0.3875
29778SOL    HW289913   3.359   3.857   5.247 -1.2854 -2.0552  0.6910
29779SOL     OW89914   7.393   5.907   6.079 -0.1284 -0.5480  0.5961
29779SOL    HW189915   7.357   5.975   6.136 -1.3988 -0.3898 -0.3440
29779SOL    HW289916   7.488   5.922   6.081 -0.3383  0.9414  0.7947
29780SOL     OW89917   6.083   3.777   3.011  0.1630  0.2538  0.4244
29780SOL    HW189918   6.070   3.726   2.931 -0.6356 -0.3616  0.9346
29780SOL    HW289919   6.037   3.728   3.079  1.5332  0.3218  1.4446
29781SOL     OW89920   1.668   5.133   9.392 -0.4061 -0.0913  0.1299
29781SOL    HW189921   1.680   5.171   9.305  0.5377 -1.7389 -0.5077
29781SOL    HW289922   1.728   5.183   9.448 -0.0611  0.1313 -0.4276
29782SOL     OW89923   3.363   1.386   2.804  0.0007  0.2438 -0.1095
29782SOL    HW189924   3.364   1.382   2.708  1.3082  0.1388 -0.1109
29782SOL    HW289925   3.308   1.312   2.830  1.4978 -1.1713 -0.7554
29783SOL     OW89926   3.395   9.313   2.022 -0.2606 -0.2572 -0.5804
29783SOL    HW189927   3.390   9.230   1.975  0.5884 -0.6344 -0.0378
29783SOL    HW289928   3.425   9.376   1.957  1.5768 -0.9170 -0.4317
29784SOL     OW89929   3.921   8.834   0.087 -0.2743  0.6713 -0.2000
29784SOL    HW189930   3.927   8.747   0.125 -0.8257  0.5894 -0.2869
29784SOL    HW289931   4.011   8.861   0.072 -0.0919 -0.9669 -2.6280
29785SOL     OW89932   1.549   5.725   3.153 -0.1045 -0.2177 -0.1778
29785SOL    HW189933   1.603   5.749   3.229 -0.8719 -1.4244  0.7959
29785SOL    HW289934   1.603   5.663   3.104  0.4554  0.6832 -0.7275
29786SOL     OW89935   2.539   8.782   3.595  0.1411  0.4785  0.1944
29786SOL    HW189936   2.469   8.846   3.607  1.2760  1.6818  0.5445
29786SOL    HW289937   2.563   8.755   3.684  0.2770  0.2329  0.0846
29787SOL     OW89938   8.890   2.675   5.781 -0.1223 -0.1665 -0.0173
29787SOL    HW189939   8.946   2.723   5.842  0.3266 -1.4610  0.6222
29787SOL    HW289940   8.898   2.724   5.699  1.1531  0.2579  0.3286
29788SOL     OW89941   7.304   9.110   5.237 -0.3595 -0.0575  0.0468
29788SOL    HW189942   7.281   9.088   5.327  1.0608  0.9850  0.7083
29788SOL    HW289943   7.316   9.025   5.194 -0.1064 -0.5743  1.1033
29789SOL     OW89944   6.477   2.841   6.032  0.7058  0.0221  0.3502
29789SOL    HW189945   6.400   2.786   6.046  1.4834 -0.6527  2.3739
29789SOL    HW289946   6.460   2.920   6.083  1.6430 -0.4780  1.5013
29790SOL     OW89947   7.835   6.637   5.358 -0.0526  0.2227  1.2956
29790SOL    HW189948   7.919   6.664   5.321  0.9900 -0.5830  2.9293
29790SOL    HW289949   7.829   6.543   5.340 -1.0013  0.4170  0.5034
29791SOL     OW89950   2.016   0.360   8.738 -0.2811 -0.4323 -0.0069
29791SOL    HW189951   1.926   0.329   8.751 -0.8020  0.1833 -1.8182
29791SOL    HW289952   2.060   0.286   8.696 -0.1387 -0.4672  0.2031
29792SOL     OW89953   7.508   5.389   5.105  0.2089 -0.3573 -0.1624
29792SOL    HW189954   7.427   5.350   5.073  0.0794 -0.5746  0.4285
29792SOL    HW289955   7.552   5.318   5.152 -0.3140  0.3519  1.4425
29793SOL     OW89956   0.911   0.935   1.397  0.3362 -0.5369 -0.8078
29793SOL    HW189957   0.849   0.957   1.467  1.4567 -1.7530  0.6416
29793SOL    HW289958   0.976   1.006   1.400  0.9094 -1.0818  0.0733
29794SOL     OW89959   3.006   8.994   3.143  0.1882  0.4101  0.3134
29794SOL    HW189960   3.024   9.020   3.053  1.3061 -1.7747 -0.1890
29794SOL    HW289961   2.982   8.901   3.137 -0.4632  0.4102  2.1900
29795SOL     OW89962   3.394   5.782   4.316 -0.1121  0.1487  0.3926
29795SOL    HW189963   3.329   5.714   4.334  0.5171 -0.8602 -0.9511
29795SOL    HW289964   3.474   5.750   4.358  0.8859 -1.3344 -2.3517
29796SOL     OW89965   4.780   6.364   9.317  0.2331 -0.3227 -0.0826
29796SOL    HW189966   4.730   6.306   9.259  1.3273 -1.3698 -0.0238
29796SOL    HW289967   4.779   6.320   9.402 -1.0571  1.0305  0.6291
29797SOL     OW89968   9.342   0.314   2.565 -0.3715  0.2402  0.5698
29797SOL    HW189969   9.366   0.295   2.655  1.3231  0.8315  0.2796
29797SOL    HW289970   9.272   0.252   2.544 -0.1084 -0.5461  1.9683
29798SOL     OW89971   2.117   6.623   5.479 -0.3359  0.6681 -0.2720
29798SOL    HW189972   2.206   6.631   5.444 -0.2367  1.6045  0.1706
29798SOL    HW289973   2.068   6.693   5.436 -1.2675 -0.7787 -1.6802
29799SOL     OW89974   9.770   9.312   6.423 -0.2345 -0.4203  0.4776
29799SOL    HW189975   9.827   9.236   6.412  0.2457 -0.0214  0.2243
29799SOL    HW289976   9.820   9.385   6.388  0.4307  0.4959  3.0968
29800SOL     OW89977   7.237   5.143   6.049 -0.1250  0.1397 -0.1304
29800SOL    HW189978   7.152   5.128   6.009  0.6148 -2.3517 -0.9543
29800SOL    HW289979   7.217   5.166   6.140 -1.7065  1.9181 -0.8654
29801SOL     OW89980   9.321   1.112   3.338 -0.1416  0.0016 -0.1570
29801SOL    HW189981   9.414   1.125   3.354 -0.6858  0.6471  3.2164
29801SOL    HW289982   9.282   1.198   3.353 -1.2434 -0.0497 -2.3922
29802SOL     OW89983   9.598   6.090   4.406  0.7495  0.4068 -0.1021
29802SOL    HW189984   9.621   6.164   4.350 -0.8757  0.4191 -0.8343
29802SOL    HW289985   9.549   6.031   4.348 -1.5728  0.7250  1.4134
29803SOL     OW89986   0.839   0.885   7.851 -0.0665 -0.2690  0.2165
29803SOL    HW189987   0.805   0.836   7.776  0.3211 -0.0173 -0.1281
29803SOL    HW289988   0.770   0.947   7.872  0.7349  1.2522 -1.4169
29804SOL     OW89989   5.841   4.146   6.293  0.1064  0.1132  0.2812
29804SOL    HW189990   5.799   4.150   6.207  0.8348 -1.5719 -0.1901
29804SOL    HW289991   5.803   4.068   6.334  1.3203 -0.3409  0.5965
29805SOL     OW89992   4.144   8.775   8.578 -0.1370 -0.0358 -0.6754
29805SOL    HW189993   4.148   8.717   8.654 -0.9450  0.3341 -0.3415
29805SOL    HW289994   4.073   8.836   8.597  1.6045  2.0275 -0.3490
29806SOL     OW89995   7.020   7.159   6.015 -0.3556 -0.6199 -0.4038
29806SOL    HW189996   6.948   7.151   5.952 -0.6952 -0.8148  0.0015
29806SOL    HW289997   7.098   7.169   5.961 -0.9030  1.7285 -0.8488
29807SOL     OW89998   8.708   3.001   7.649 -0.0976 -0.1309  0.9195
29807SOL    HW189999   8.760   2.926   7.622 -0.3372  0.6725 -2.2029
29807SOL    HW290000   8.721   3.065   7.578 -0.4166  2.5289  3.1020
29808SOL     OW90001   9.578  -0.006   9.573 -0.2184 -0.1342  0.2494
29808SOL    HW190002   9.611   0.068   9.522 -2.2038  0.4131 -0.3237
29808SOL    HW290003   9.645  -0.020   9.640  0.9395  1.1687 -0.5586
29809SOL     OW90004   0.137   4.017   3.614 -0.3558 -0.3219  0.2950
29809SOL    HW190005   0.057   4.013   3.665 -0.5823  0.6472  0.0416
29809SOL    HW290006   0.141   4.107   3.582  1.2064 -0.1430  0.8881
29810SOL     OW90007   5.345   7.698   7.024  0.4771 -0.4065  0.4501
29810SOL    HW190008   5.423   7.751   7.011 -0.0651  0.1215 -0.9072
29810SOL    HW290009   5.299   7.739   7.097  0.5744  0.3960  0.0725
29811SOL     OW90010   8.468   2.660   5.448  0.4057 -0.2349 -0.3645
29811SOL    HW190011   8.545   2.606   5.430  0.4393 -0.1646 -0.4298
29811SOL    HW290012   8.503   2.745   5.474  0.3480 -0.1572 -0.5391
29812SOL     OW90013   9.826   1.352   0.899  0.3919 -0.1837 -0.2359
29812SOL    HW190014   9.746   1.377   0.947 -1.2505 -1.3581 -2.2089
29812SOL    HW290015   9.865   1.436   0.873 -0.8284  0.4293 -0.1928
29813SOL     OW90016   6.245   0.081   5.411 -0.0091  0.0311  0.2221
29813SOL    HW190017   6.152   0.096   5.398 -1.4068 -3.7438  3.8550
29813SOL    HW290018   6.272   0.031   5.333 -0.7353  1.5987 -1.1107
29814SOL     OW90019   6.570   7.396   9.694 -0.5794 -0.4888  0.4877
29814SOL    HW190020   6.663   7.411   9.712 -0.5989 -0.3896  0.5096
29814SOL    HW290021   6.562   7.301   9.684 -0.6694 -0.6180  1.6003
29815SOL     OW90022   1.971   0.795   0.451  0.8027 -0.0678  0.5507
29815SOL    HW190023   1.925   0.712   0.438 -0.8232  0.9058 -0.3057
29815SOL    HW290024   1.990   0.825   0.362 -1.0724  1.7383  0.6953
29816SOL     OW90025   4.096   3.294   2.903 -0.6562 -0.2622  0.1638
29816SOL    HW190026   4.050   3.218   2.867  0.0492 -0.9517  0.6889
29816SOL    HW290027   4.184   3.262   2.922 -0.2531  0.7751  0.1026
29817SOL     OW90028   9.508   1.895   8.217 -0.0509  0.4787 -0.0929
29817SOL    HW190029   9.473   1.975   8.256  0.5484  0.3728  0.7163
29817SOL    HW290030   9.445   1.827   8.240 -0.9678  0.8282 -1.4544
29818SOL     OW90031   0.931   5.712   1.686 -0.8164 -0.2942 -0.2167
29818SOL    HW190032   0.997   5.777   1.664  0.5311 -1.7117 -0.5531
29818SOL    HW290033   0.853   5.739   1.637 -0.6460  1.6183  0.4692
29819SOL     OW90034   4.464   1.433   9.564 -0.0596  0.6273  0.0882
29819SOL    HW190035   4.383   1.472   9.530  0.5055  1.7094 -0.0733
29819SOL    HW290036   4.533   1.472   9.510  0.5353 -0.7102 -0.1536
29820SOL     OW90037   3.440   6.056   2.011  0.4646 -0.9031 -0.1449
29820SOL    HW190038   3.523   6.030   2.052  0.1001 -0.8942  0.6086
29820SOL    HW290039   3.456   6.044   1.917  1.3229 -0.8914 -0.0132
29821SOL     OW90040   1.311   1.050   4.719  0.8610  0.3744  0.0654
29821SOL    HW190041   1.280   1.006   4.641 -0.9165 -0.6653  1.2875
29821SOL    HW290042   1.249   1.122   4.733  1.6372  1.0542  0.0865
29822SOL     OW90043   7.446   6.891   4.306 -0.5962  0.5378 -0.1034
29822SOL    HW190044   7.432   6.805   4.344 -0.8460  0.9365  0.7377
29822SOL    HW290045   7.540   6.908   4.318 -0.3836  0.0507 -1.0101
29823SOL     OW90046   7.560   4.076   5.503  0.5347  1.0060 -0.0652
29823SOL    HW190047   7.533   3.986   5.524  2.0700  0.3707 -0.6530
29823SOL    HW290048   7.611   4.103   5.579  3.1414 -0.0139 -1.3222
29824SOL     OW90049   0.663   9.528   2.894 -0.5617 -0.3366  0.0252
29824SOL    HW190050   0.611   9.595   2.938  1.7751  1.0149  0.9316
29824SOL    HW290051   0.715   9.489   2.965  0.0036 -1.3089 -0.8959
29825SOL     OW90052   9.419   2.015   5.497  0.5771  0.0477 -0.5051
29825SOL    HW190053   9.417   1.941   5.558  1.7646 -0.6017 -1.2156
29825SOL    HW290054   9.410   2.092   5.552 -1.7937 -0.6073  0.1725
29826SOL     OW90055   6.458   8.654   6.857  0.0621  0.0799  0.1320
29826SOL    HW190056   6.446   8.591   6.786 -0.7466  0.5417 -0.1509
29826SOL    HW290057   6.370   8.687   6.875  0.6904  2.6357 -1.1289
29827SOL     OW90058   2.109   8.936   6.430 -0.3356 -0.0168  0.1248
29827SOL    HW190059   2.047   8.938   6.503 -0.4630  0.7913  0.0074
29827SOL    HW290060   2.081   8.862   6.376 -0.2473 -0.6168  0.8841
29828SOL     OW90061   0.748   2.943   5.148  0.1332  0.0444 -0.0926
29828SOL    HW190062   0.702   2.948   5.064  1.3765  1.0038 -0.7610
29828SOL    HW290063   0.732   3.028   5.190 -0.4171 -0.3997  0.6123
29829SOL     OW90064   3.686   7.501   4.523 -1.1161 -0.3787 -0.5248
29829SOL    HW190065   3.678   7.529   4.614  1.1668  0.9479 -0.6391
29829SOL    HW290066   3.750   7.430   4.525 -2.5482 -1.7373 -0.9197
29830SOL     OW90067   6.156   3.897   9.839 -0.0847 -0.1080 -0.2365
29830SOL    HW190068   6.120   3.839   9.773 -0.1704 -0.2712 -0.0473
29830SOL    HW290069   6.234   3.852   9.872  0.4281  0.3410 -0.7976
29831SOL     OW90070   5.715   8.238   9.894  0.3482  0.6715 -0.3590
29831SOL    HW190071   5.720   8.329   9.923 -1.3918  0.8288 -0.4242
29831SOL    HW290072   5.804   8.204   9.904  0.4137  1.4594  2.6535
29832SOL     OW90073   0.970   8.936   8.072 -0.3604  0.4226  0.1384
29832SOL    HW190074   0.916   9.012   8.095  0.4992  1.6611 -1.6992
29832SOL    HW290075   1.058   8.958   8.103 -0.0886  0.1964 -0.4614
29833SOL     OW90076   0.694   4.655   9.029 -0.2987  0.7463 -0.1792
29833SOL    HW190077   0.752   4.604   8.972 -0.8988 -0.5619  0.3334
29833SOL    HW290078   0.709   4.619   9.117 -1.9442  0.2798 -0.0501
29834SOL     OW90079   5.541   7.196   9.585  0.0698  0.0693  0.1407
29834SOL    HW190080   5.546   7.124   9.648  2.2697 -0.4328 -0.5108
29834SOL    HW290081   5.501   7.158   9.507  0.8706 -0.3607 -0.0682
29835SOL     OW90082   1.676   3.855   3.394  0.1993  0.5708  0.1290
29835SOL    HW190083   1.771   3.859   3.403  0.2042  0.2432  0.2330
29835SOL    HW290084   1.661   3.791   3.324  0.0165 -0.4797  1.1020
29836SOL     OW90085   2.181   2.649   9.275  0.8600  0.0575  0.4385
29836SOL    HW190086   2.229   2.571   9.248  1.4451  1.0093 -1.4261
29836SOL    HW290087   2.123   2.669   9.202  1.7541  2.1557  0.2396
29837SOL     OW90088   0.547   4.032   0.711  0.3452 -0.6064  0.2452
29837SOL    HW190089   0.488   4.077   0.650  0.8656 -0.3526 -0.0728
29837SOL    HW290090   0.596   4.102   0.753 -0.0764 -0.7735  1.0329
29838SOL     OW90091   1.967   1.025   7.027 -0.7084 -0.6521  0.0516
29838SOL    HW190092   1.982   0.964   7.099 -1.1900 -1.6034 -0.6245
29838SOL    HW290093   1.874   1.017   7.007 -0.8108  0.4233  0.0371
29839SOL     OW90094   6.031   4.297   2.991  0.2842 -0.0420  0.1028
29839SOL    HW190095   6.020   4.227   3.055 -0.3220  0.0360  0.0941
29839SOL    HW290096   6.023   4.377   3.042 -0.8591  0.0256 -0.1564
29840SOL     OW90097   1.882   8.234   5.010  0.2982 -0.1299 -0.0044
29840SOL    HW190098   1.924   8.318   4.991  0.3014 -0.2928 -0.7350
29840SOL    HW290099   1.825   8.217   4.935 -1.2679  0.1920  1.0832
29841SOL     OW90100   8.344   9.253   3.729  0.2544  0.1682  0.0753
29841SOL    HW190101   8.250   9.260   3.746  0.0100  1.3858 -1.5098
29841SOL    HW290102   8.373   9.343   3.713  1.4397 -0.3078 -0.6527
29842SOL     OW90103   9.768   2.441   4.072 -0.3407 -0.6757  0.1778
29842SOL    HW190104   9.701   2.501   4.041  0.3572  0.2145  0.3514
29842SOL    HW290105   9.791   2.388   3.996  1.1128  1.2504 -0.8222
29843SOL     OW90106   1.790   6.960   3.899  0.3196 -0.2028  0.0101
29843SOL    HW190107   1.804   6.893   3.967 -0.6780 -2.3043 -1.7404
29843SOL    HW290108   1.794   7.043   3.947 -0.5703 -1.5781  2.6990
29844SOL     OW90109   5.407   7.577   4.762  0.2743  0.0451 -0.1213
29844SOL    HW190110   5.445   7.603   4.846  0.1992 -2.4608  0.7525
29844SOL    HW290111   5.365   7.493   4.779 -1.8492  0.5923 -2.1231
29845SOL     OW90112   1.785   2.915   0.519  0.0833 -0.0622  0.1845
29845SOL    HW190113   1.712   2.976   0.507 -0.2007 -0.2946  0.7110
29845SOL    HW290114   1.852   2.944   0.456 -1.5918 -1.6500 -2.5607
29846SOL     OW90115   8.126   0.946   1.916  0.1462  0.5185 -0.1742
29846SOL    HW190116   8.052   1.008   1.917 -0.0735  0.2839 -0.8445
29846SOL    HW290117   8.179   0.970   1.991 -1.1280  0.0672  0.9078
29847SOL     OW90118   6.735   8.971   6.904 -0.6994 -0.3207  0.5895
29847SOL    HW190119   6.717   9.030   6.831  2.4778  0.2340  0.1044
29847SOL    HW290120   6.710   9.020   6.982 -1.0565  0.4117  0.0189
29848SOL     OW90121   5.748   1.008   7.836  0.0485  0.6643 -0.0608
29848SOL    HW190122   5.798   0.940   7.881 -0.6840  0.0677 -0.1151
29848SOL    HW290123   5.784   1.091   7.868  0.2810  0.2470  0.7657
29849SOL     OW90124   4.170   8.291   6.449 -0.7725  0.1705 -0.0663
29849SOL    HW190125   4.123   8.207   6.443  0.1210 -0.4049  0.6556
29849SOL    HW290126   4.173   8.323   6.359 -0.6270 -0.8637 -0.4498
29850SOL     OW90127   0.809   4.217   4.801  0.4018  0.5499  0.6416
29850SOL    HW190128   0.782   4.281   4.867  0.9033  1.6794 -0.2031
29850SOL    HW290129   0.850   4.270   4.732 -0.4358 -0.5303 -0.7531
29851SOL     OW90130   5.452   8.838   2.756  0.2645 -0.3763  0.0634
29851SOL    HW190131   5.449   8.822   2.662 -0.3237  0.8993 -0.1603
29851SOL    HW290132   5.431   8.931   2.766 -1.4469 -0.8522  1.5538
29852SOL     OW90133   1.651   0.516   8.924 -0.3036  0.0065 -0.0572
29852SOL    HW190134   1.698   0.589   8.883  1.5465 -1.0595  0.0401
29852SOL    HW290135   1.618   0.552   9.006  1.2970  0.5493  0.3880
29853SOL     OW90136   2.136   7.604   7.900  0.0752  0.0582 -0.7372
29853SOL    HW190137   2.045   7.577   7.915 -0.0893  0.7759 -0.3715
29853SOL    HW290138   2.129   7.696   7.873  0.7629  0.5035  0.5310
29854SOL     OW90139   1.320   2.278   4.545  0.3804  0.4773 -0.2127
29854SOL    HW190140   1.246   2.330   4.513 -1.0614 -2.4033 -2.0339
29854SOL    HW290141   1.349   2.323   4.624 -1.8900  2.9588 -0.6498
29855SOL     OW90142   0.591   6.630   2.879  0.6398 -0.0884  0.3336
29855SOL    HW190143   0.543   6.703   2.915  1.4098 -0.0252  1.2714
29855SOL    HW290144   0.583   6.640   2.784  0.7212  1.1969  0.4496
29856SOL     OW90145   2.894   8.353   0.317 -0.6527 -0.3506  0.1485
29856SOL    HW190146   2.812   8.307   0.331 -1.5000  1.6066  2.2441
29856SOL    HW290147   2.932   8.363   0.404  2.2431 -1.8195 -0.8203
29857SOL     OW90148   2.675   3.071   6.305 -0.4273  0.0785  0.3509
29857SOL    HW190149   2.605   3.015   6.272 -0.4187 -0.0148  0.4881
29857SOL    HW290150   2.685   3.139   6.239 -2.7070  1.8843  1.7196
29858SOL     OW90151   5.220   3.857   1.622  0.2883 -0.5273  0.1868
29858SOL    HW190152   5.294   3.917   1.631  0.5128 -0.9739  1.6005
29858SOL    HW290153   5.256   3.771   1.644 -0.8014 -0.6365  1.7280
29859SOL     OW90154   9.400   3.622   4.778 -0.4935 -0.0538 -0.3253
29859SOL    HW190155   9.471   3.653   4.834 -2.8371 -1.0456  3.5521
29859SOL    HW290156   9.414   3.527   4.773 -1.7456 -0.3336  0.9345
29860SOL     OW90157   7.507   6.141   7.274  0.5510 -0.0318  0.4750
29860SOL    HW190158   7.578   6.081   7.300 -1.4070 -2.9327 -0.3694
29860SOL    HW290159   7.441   6.130   7.342 -0.4308  0.0450 -0.4454
29861SOL     OW90160   4.113   5.369   5.699  0.4036  0.5157  0.1583
29861SOL    HW190161   4.063   5.302   5.652 -0.0994  0.6734  0.4667
29861SOL    HW290162   4.098   5.350   5.791  1.4718  0.1447  0.2687
29862SOL     OW90163   1.444   4.426   2.296  0.0155 -0.5418  0.0351
29862SOL    HW190164   1.454   4.521   2.295  0.2981 -0.5631 -1.3273
29862SOL    HW290165   1.359   4.410   2.256 -1.0404 -0.7972  2.2694
29863SOL     OW90166   2.082   6.724   7.650 -0.1934 -0.3631 -0.0148
29863SOL    HW190167   1.999   6.763   7.621 -0.4308 -0.3604  0.6478
29863SOL    HW290168   2.150   6.780   7.611 -0.4934 -0.4915 -0.7402
29864SOL     OW90169   1.408   6.745   7.575  0.4062  0.0342  0.2088
29864SOL    HW190170   1.414   6.826   7.625  1.3693  1.6673 -2.3131
29864SOL    HW290171   1.498   6.715   7.565  0.0291 -1.7099  1.5442
29865SOL     OW90172   0.197   8.954   4.352  0.7803 -0.0029  0.0916
29865SOL    HW190173   0.249   9.011   4.295  0.3874  0.5161  0.2426
29865SOL    HW290174   0.256   8.883   4.375  2.3436  1.8934  2.4065
29866SOL     OW90175   7.139   7.512   2.144  0.0328 -0.2645  0.2483
29866SOL    HW190176   7.193   7.588   2.122  0.1222  0.2751  2.1503
29866SOL    HW290177   7.150   7.452   2.070  1.2847  0.8678 -0.5249
29867SOL     OW90178   7.744   7.354   8.234  0.6057  0.0416  0.1117
29867SOL    HW190179   7.719   7.296   8.306 -1.7962 -1.1863 -1.5817
29867SOL    HW290180   7.702   7.438   8.255 -2.6814 -1.1276 -1.1502
29868SOL     OW90181   0.082   6.824   7.529  0.1175 -0.5315 -0.1583
29868SOL    HW190182   0.088   6.801   7.622 -1.3349  0.7051  0.2743
29868SOL    HW290183   0.172   6.847   7.505  0.0096  2.7625  1.9806
29869SOL     OW90184   9.369   2.150   7.972 -0.1081  0.3888  0.1113
29869SOL    HW190185   9.301   2.085   7.952  1.1950 -1.1537  0.4976
29869SOL    HW290186   9.323   2.217   8.022 -1.1199 -1.2840  1.5677
29870SOL     OW90187   8.017   9.032   6.583  0.3886 -0.0028 -0.0636
29870SOL    HW190188   7.993   8.967   6.649  2.4657  0.0843  0.8560
29870SOL    HW290189   7.985   8.995   6.500 -0.1740 -1.2418  0.6801
29871SOL     OW90190   1.064   1.670   8.233  0.0748  0.2759  0.0159
29871SOL    HW190191   1.113   1.666   8.316 -0.7185  0.1117  0.4813
29871SOL    HW290192   1.106   1.742   8.185  0.0742  0.8557  0.8660
29872SOL     OW90193   7.824   2.953   6.906 -0.6118  0.0608 -0.4467
29872SOL    HW190194   7.913   2.937   6.873 -0.7432 -1.5061 -0.1272
29872SOL    HW290195   7.767   2.923   6.836 -0.9221  1.1852 -0.7026
29873SOL     OW90196   3.025   9.351   9.561  0.1330  0.4045  0.2337
29873SOL    HW190197   3.119   9.368   9.567  0.0527  1.0687 -0.2375
29873SOL    HW290198   2.983   9.427   9.601 -0.2043  0.1986  0.2811
29874SOL     OW90199   2.891   8.395   6.994 -0.0050 -0.0734  0.2677
29874SOL    HW190200   2.914   8.484   7.020 -0.3868 -0.1951  1.0622
29874SOL    HW290201   2.798   8.399   6.972  0.4739  0.1953 -1.9103
29875SOL     OW90202   4.413   1.747   0.099  0.6982  0.2333 -0.2576
29875SOL    HW190203   4.403   1.738   0.194 -0.5254 -1.1636 -0.4757
29875SOL    HW290204   4.463   1.670   0.073  1.8739  1.1099 -0.6474
29876SOL     OW90205   8.402   1.938   4.763  0.3785  0.2834  0.1371
29876SOL    HW190206   8.441   2.024   4.774  3.1700 -0.9268  0.6129
29876SOL    HW290207   8.334   1.933   4.830  0.0039  2.1577 -0.0656
29877SOL     OW90208   5.285   1.793   6.036 -0.2019  0.0366  0.1200
29877SOL    HW190209   5.284   1.846   6.115 -2.6454 -0.0251  0.1952
29877SOL    HW290210   5.281   1.703   6.067  2.6550 -0.2682 -0.0505
29878SOL     OW90211   1.309   3.174   0.145  0.2614  0.0215 -0.1250
29878SOL    HW190212   1.296   3.235   0.218  1.0680 -1.8527  1.6812
29878SOL    HW290213   1.403   3.176   0.128  0.3499 -0.9436  0.1876
29879SOL     OW90214   1.842   7.052   6.173  0.0634  0.1482 -0.2497
29879SOL    HW190215   1.903   7.090   6.110  0.5870 -0.4643 -0.1208
29879SOL    HW290216   1.831   6.961   6.144  0.7799 -0.3179  0.8596
29880SOL     OW90217   7.575   2.315   9.710  0.3337 -0.2349  0.3868
29880SOL    HW190218   7.643   2.348   9.768 -0.5095  0.9564  0.7472
29880SOL    HW290219   7.618   2.249   9.656  2.1993  1.6088 -0.5187
29881SOL     OW90220   0.396   3.529   0.920 -0.9824  0.0638  0.4048
29881SOL    HW190221   0.479   3.481   0.922 -2.0024 -1.8225 -0.2784
29881SOL    HW290222   0.421   3.617   0.893  0.5794 -1.0624 -2.2127
29882SOL     OW90223   4.544   5.323   9.472  0.0039 -0.7667  0.3331
29882SOL    HW190224   4.504   5.247   9.515 -0.9489 -0.6076 -0.2468
29882SOL    HW290225   4.476   5.390   9.474  1.0506  0.3109  1.4127
29883SOL     OW90226   8.862   4.823   6.418  0.1680  0.4348  0.5532
29883SOL    HW190227   8.797   4.802   6.485 -0.2602  1.4696  0.4732
29883SOL    HW290228   8.822   4.796   6.336  0.0404  0.6089  0.5570
29884SOL     OW90229   9.896   3.401   7.794  0.2228 -0.0781  0.1231
29884SOL    HW190230   9.824   3.381   7.855 -0.5553  2.2454  0.0863
29884SOL    HW290231   9.971   3.352   7.828 -0.6202 -0.1924  1.9666
29885SOL     OW90232   3.761   2.873   3.546  0.1334 -0.3954 -0.0017
29885SOL    HW190233   3.811   2.933   3.602 -0.5445  1.7975 -1.6118
29885SOL    HW290234   3.821   2.853   3.474 -0.1797 -0.4517 -0.2450
29886SOL     OW90235   1.297   2.984   6.255  0.0506 -0.0912  0.1989
29886SOL    HW190236   1.210   3.024   6.254  1.0266  2.2277  0.8090
29886SOL    HW290237   1.318   2.975   6.348  0.8761  0.4447  0.0820
29887SOL     OW90238   3.771   5.474   7.816  0.3422  0.2076 -0.0688
29887SOL    HW190239   3.753   5.494   7.725  1.6150  0.4534 -0.2883
29887SOL    HW290240   3.770   5.378   7.821 -0.9798  0.2045 -0.0518
29888SOL     OW90241   6.965   9.937   2.829 -0.0020  0.0518  0.2999
29888SOL    HW190242   6.919   9.899   2.754  0.9678 -1.5222  0.4617
29888SOL    HW290243   6.994   9.861   2.880  3.4041  0.8941 -0.1704
29889SOL     OW90244   8.002   2.360   1.017  0.2354  0.6437  0.8186
29889SOL    HW190245   7.979   2.453   1.020 -0.3619  0.5562 -0.4059
29889SOL    HW290246   8.085   2.358   0.970 -0.5338  0.4579 -0.5853
29890SOL     OW90247   3.943   3.686   1.155  0.0302 -0.2292  0.0139
29890SOL    HW190248   4.005   3.752   1.185  0.7927 -0.8731 -0.1327
29890SOL    HW290249   3.858   3.729   1.163  0.3726  0.2749  1.3025
29891SOL     OW90250   6.428   8.948   3.462 -0.3746  0.0624  0.0187
29891SOL    HW190251   6.349   8.935   3.513 -2.0724  0.3390 -2.3981
29891SOL    HW290252   6.422   9.039   3.431  2.9846  1.6008  3.0024
29892SOL     OW90253   7.167   8.882   9.065 -0.0445  0.2627  0.0746
29892SOL    HW190254   7.109   8.952   9.093 -0.8430 -0.2845 -0.1904
29892SOL    HW290255   7.122   8.801   9.091  1.2356 -0.1466  1.1158
29893SOL     OW90256   2.110   0.713   6.668  0.3989 -0.1876 -0.1857
29893SOL    HW190257   2.150   0.735   6.752 -0.8116  0.6852  0.1876
29893SOL    HW290258   2.060   0.633   6.685  0.1132  0.0168 -0.0461
29894SOL     OW90259   8.636   3.496   9.882 -0.3631  0.1156  0.0726
29894SOL    HW190260   8.718   3.543   9.868 -0.5122  0.2218 -0.4771
29894SOL    HW290261   8.654   3.407   9.854 -0.0930 -0.1572  1.0762
29895SOL     OW90262   0.737   6.812   7.592 -0.6773 -0.6246  0.1856
29895SOL    HW190263   0.764   6.837   7.504 -0.0029 -1.4734  0.1279
29895SOL    HW290264   0.747   6.716   7.593 -0.2542 -0.5820  1.3102
29896SOL     OW90265   9.692   5.009   7.455 -0.3467 -0.2147  0.2173
29896SOL    HW190266   9.652   4.922   7.465  0.2192 -0.3397  1.7399
29896SOL    HW290267   9.674   5.053   7.538 -1.7584  1.6578 -1.0010
29897SOL     OW90268   2.845   0.729   0.749 -0.0712  0.5341 -0.4267
29897SOL    HW190269   2.929   0.774   0.750 -0.5485  1.4665 -1.0318
29897SOL    HW290270   2.784   0.790   0.789 -1.0018  1.0319 -2.5016
29898SOL     OW90271   4.724   5.564   2.008 -0.0679  0.0257 -0.0896
29898SOL    HW190272   4.777   5.536   1.933 -1.6563  0.3277 -1.3849
29898SOL    HW290273   4.766   5.645   2.037 -0.1934  0.6615 -1.5618
29899SOL     OW90274   6.270   1.944   2.452  0.1310 -0.7267  0.6076
29899SOL    HW190275   6.329   2.019   2.447 -0.0320 -0.6442 -0.1872
29899SOL    HW290276   6.314   1.883   2.512  0.1904  0.0519  1.3766
29900SOL     OW90277   3.636   4.885   7.496  0.0409 -0.2288 -0.1621
29900SOL    HW190278   3.615   4.818   7.561 -0.9167 -0.3277 -0.5599
29900SOL    HW290279   3.727   4.908   7.514 -0.1533 -0.3707  1.1178
29901SOL     OW90280   3.764   4.347   6.231 -0.3257 -0.2354 -0.0677
29901SOL    HW190281   3.743   4.341   6.324 -2.6585  1.4810 -0.4168
29901SOL    HW290282   3.702   4.287   6.188 -1.1810  1.0683 -0.7114
29902SOL     OW90283   6.442   5.276   4.100  0.2480  0.4747 -0.0977
29902SOL    HW190284   6.530   5.240   4.110  0.0326 -1.1113 -2.8319
29902SOL    HW290285   6.449   5.337   4.026 -0.8976  0.3952 -0.2965
29903SOL     OW90286   0.978   8.569   9.534  0.0584 -0.4355  0.5591
29903SOL    HW190287   1.033   8.537   9.605 -0.3445  0.0912  1.1091
29903SOL    HW290288   0.983   8.499   9.468 -0.3425 -1.3730  1.4936
29904SOL     OW90289   2.235   0.183   1.420 -0.2309 -0.1900 -0.0236
29904SOL    HW190290   2.279   0.163   1.502 -0.4327  0.5371  0.2615
29904SOL    HW290291   2.305   0.211   1.361 -0.2962  0.9275  0.4167
29905SOL     OW90292   2.997   7.094   2.461 -0.3496  0.0298 -0.3313
29905SOL    HW190293   2.969   7.030   2.395  0.1919  0.4589 -0.9926
29905SOL    HW290294   3.082   7.125   2.429 -0.2797  0.5533  0.3531
29906SOL     OW90295   7.974   8.459   0.789 -0.0484 -0.1344 -0.0404
29906SOL    HW190296   8.030   8.384   0.809  1.3993  1.4040  2.0631
29906SOL    HW290297   7.922   8.472   0.869  0.5115  1.7410  0.0603
29907SOL     OW90298   1.929   2.386   4.534 -0.4779 -0.6347  0.1608
29907SOL    HW190299   1.911   2.401   4.627 -0.0733  0.2442  0.1033
29907SOL    HW290300   2.021   2.412   4.523 -0.9834  0.8041 -0.8134
29908SOL     OW90301   6.602   4.716   4.021  0.5735 -0.0737  0.2213
29908SOL    HW190302   6.614   4.680   3.933 -0.5415 -1.9662  0.7921
29908SOL    HW290303   6.668   4.671   4.074 -1.3142 -1.9772  1.0936
29909SOL     OW90304   8.036   7.510   1.794  0.1143  0.1899  0.2684
29909SOL    HW190305   8.010   7.435   1.739  0.5439 -1.9375  2.7816
29909SOL    HW290306   7.957   7.531   1.844 -0.7732  3.1881 -2.0888
29910SOL     OW90307   0.165   6.131   9.581  0.1295  0.1497 -0.1095
29910SOL    HW190308   0.116   6.114   9.501 -0.4828  0.7739  0.1199
29910SOL    HW290309   0.149   6.224   9.599 -0.1093 -0.0919  0.9817
29911SOL     OW90310   7.381   1.213   4.718 -0.0055  0.1320  0.0503
29911SOL    HW190311   7.439   1.138   4.705 -2.0218 -1.3189 -1.2067
29911SOL    HW290312   7.367   1.215   4.813  2.0431  0.5617  0.3963
29912SOL     OW90313   1.315   5.192   6.602 -0.0611  0.4946  0.1575
29912SOL    HW190314   1.325   5.149   6.517  1.1092  3.4066 -1.3442
29912SOL    HW290315   1.220   5.201   6.613 -0.4449 -3.1723  1.0957
29913SOL     OW90316   0.447   6.191   7.193  0.0154 -0.2445 -0.0355
29913SOL    HW190317   0.363   6.149   7.172  0.6928 -1.6635 -0.0433
29913SOL    HW290318   0.492   6.200   7.109 -0.1100  0.5138 -0.0316
29914SOL     OW90319   9.758   6.771   7.929 -0.2030 -0.4159  0.1591
29914SOL    HW190320   9.735   6.798   8.017 -1.5945 -0.3242 -0.2220
29914SOL    HW290321   9.773   6.853   7.881 -0.3767 -0.4409  0.0629
29915SOL     OW90322   6.675   3.004   7.774 -0.4042 -0.2388  0.3021
29915SOL    HW190323   6.734   2.974   7.705 -2.2557 -2.2073 -0.5521
29915SOL    HW290324   6.634   3.083   7.739 -1.3607 -1.2422 -0.9305
29916SOL     OW90325   2.976   4.993   6.421 -0.0567 -0.1744 -0.0927
29916SOL    HW190326   3.000   4.913   6.372 -0.3485 -0.9102  0.9378
29916SOL    HW290327   3.024   4.986   6.503 -0.1307  0.6981  0.0313
29917SOL     OW90328   8.853   6.001   6.950  0.2415 -0.7783  0.6703
29917SOL    HW190329   8.764   5.970   6.966 -0.5021  1.9447  2.5767
29917SOL    HW290330   8.885   6.028   7.037  3.0139 -1.8045  0.0733
29918SOL     OW90331   5.757   0.045   2.380 -0.2002 -0.6255 -0.0815
29918SOL    HW190332   5.784  -0.032   2.330  0.2816 -0.3627 -0.2394
29918SOL    HW290333   5.818   0.114   2.352 -0.5338 -0.2272  0.1634
29919SOL     OW90334   0.418   2.926   7.320  0.5663  0.1173  0.0247
29919SOL    HW190335   0.512   2.905   7.323  0.3122 -1.3715 -1.0169
29919SOL    HW290336   0.400   2.939   7.227 -0.3283  0.0135  0.1755
29920SOL     OW90337   5.119   8.993   2.200 -0.4161 -0.1469 -1.1101
29920SOL    HW190338   5.084   9.060   2.141 -0.7448  3.8956  3.0760
29920SOL    HW290339   5.197   9.034   2.238  0.0500 -2.6937  0.9235
29921SOL     OW90340   5.039   6.791   2.529 -0.1221 -0.1929 -0.4371
29921SOL    HW190341   4.978   6.819   2.598 -0.9361 -0.0317 -1.2155
29921SOL    HW290342   5.051   6.869   2.475 -1.9301 -1.1015 -2.2780
29922SOL     OW90343   7.248   7.920   4.380  0.0865 -0.3388  0.3055
29922SOL    HW190344   7.319   7.893   4.438  0.9052 -0.4103 -0.7007
29922SOL    HW290345   7.278   8.003   4.342 -1.3895  0.8624  1.6117
29923SOL     OW90346   3.284   0.177   7.612 -0.5160 -0.5474 -0.1291
29923SOL    HW190347   3.339   0.186   7.690 -1.2692  1.9224  0.2238
29923SOL    HW290348   3.200   0.145   7.646 -0.1916 -1.5481 -0.2541
29924SOL     OW90349   9.377   8.235   9.887  0.3679 -0.5765 -0.0180
29924SOL    HW190350   9.448   8.181   9.854  1.1857 -0.3946  1.3769
29924SOL    HW290351   9.383   8.227   9.983  0.0070  1.3379  0.1920
29925SOL     OW90352   2.612   9.072   2.798  0.1792  0.0137  0.0795
29925SOL    HW190353   2.621   8.999   2.859  0.5244 -1.1080 -1.2675
29925SOL    HW290354   2.541   9.045   2.739 -0.8896  1.5485  0.6198
29926SOL     OW90355   1.097   1.298   3.362 -0.3207 -0.4397 -0.0525
29926SOL    HW190356   1.050   1.367   3.408 -2.1490 -0.2022 -2.0847
29926SOL    HW290357   1.045   1.219   3.379 -0.3423 -0.5703 -0.6797
29927SOL     OW90358   7.001   0.200   3.018  0.5942 -0.6049 -0.6501
29927SOL    HW190359   7.019   0.120   2.969 -1.5475 -1.1449 -0.6951
29927SOL    HW290360   6.945   0.252   2.960  1.1540  0.4833 -0.2360
29928SOL     OW90361   2.075   2.822   1.883 -0.4677  0.5394 -0.1624
29928SOL    HW190362   2.136   2.749   1.896  0.2623  0.7866 -1.9158
29928SOL    HW290363   1.994   2.794   1.926  0.4143 -0.4278  0.9439
29929SOL     OW90364   6.322   1.166   3.698  0.6210 -0.3688 -0.3660
29929SOL    HW190365   6.329   1.130   3.786  0.4493  0.1695 -0.1309
29929SOL    HW290366   6.382   1.113   3.645  1.3636 -0.1470  0.2476
29930SOL     OW90367   8.693   6.130   8.096 -0.2885 -0.8881 -0.5613
29930SOL    HW190368   8.702   6.222   8.071  0.6672 -0.5632  0.7962
29930SOL    HW290369   8.741   6.082   8.029  1.4609 -0.1387  0.0742
29931SOL     OW90370   5.530   0.794   4.172 -0.4420 -0.4512  0.1736
29931SOL    HW190371   5.448   0.754   4.203 -0.0798 -1.2683  0.0904
29931SOL    HW290372   5.597   0.729   4.192 -0.0636 -0.5939 -1.4590
29932SOL     OW90373   7.351   0.624   5.824  0.2341  0.4533  0.2829
29932SOL    HW190374   7.285   0.565   5.787 -0.5046  0.8897  0.8736
29932SOL    HW290375   7.424   0.567   5.845  0.7180  0.1805 -1.8470
29933SOL     OW90376   8.722   4.724   3.021  0.1435 -0.6073  0.2951
29933SOL    HW190377   8.670   4.666   2.965 -0.1447  1.4381 -1.7128
29933SOL    HW290378   8.788   4.667   3.060 -1.9206 -2.7926  0.8134
29934SOL     OW90379   6.002   8.266   3.293 -0.3855 -0.7819  0.4158
29934SOL    HW190380   5.961   8.193   3.246  3.5555 -1.6275 -2.2791
29934SOL    HW290381   6.048   8.224   3.366  0.2239 -0.7275  0.0701
29935SOL     OW90382   9.032   1.510   3.383 -0.5266  0.4881  0.5968
29935SOL    HW190383   8.988   1.515   3.467 -1.3107  0.9052  0.1657
29935SOL    HW290384   8.981   1.565   3.325 -1.1478 -1.3186 -0.6701
29936SOL     OW90385   4.553   3.468   6.532  0.3608 -0.1521  0.4265
29936SOL    HW190386   4.518   3.383   6.560 -2.2071  0.9073  0.6920
29936SOL    HW290387   4.476   3.520   6.510  1.7071  2.7186  1.9320
29937SOL     OW90388   1.145   1.323   6.672 -0.0837  0.0225  0.0217
29937SOL    HW190389   1.220   1.266   6.684 -0.1891 -0.0172  0.5192
29937SOL    HW290390   1.175   1.389   6.610 -0.0630 -0.7474 -0.8021
29938SOL     OW90391   2.723   0.730   5.936 -0.4066 -0.2987 -0.5436
29938SOL    HW190392   2.796   0.791   5.932 -1.0958  0.4987 -1.2420
29938SOL    HW290393   2.738   0.680   6.016 -0.0022  0.9924  0.2101
29939SOL     OW90394   5.030   4.504   2.162 -0.0475  0.1969  0.5018
29939SOL    HW190395   4.936   4.524   2.157  0.1396  1.2344  0.8877
29939SOL    HW290396   5.039   4.420   2.116 -0.8664  1.0225 -1.2797
29940SOL     OW90397   7.228   2.688   3.192  0.3302  0.4649 -0.0400
29940SOL    HW190398   7.314   2.679   3.233  0.0096 -1.3093  0.3180
29940SOL    HW290399   7.231   2.629   3.118 -0.4984  0.5950 -0.1820
29941SOL     OW90400   0.465   0.338   2.389  0.2698  0.1977  0.8507
29941SOL    HW190401   0.540   0.279   2.387 -0.6269 -0.9627  0.3942
29941SOL    HW290402   0.481   0.396   2.464  0.7628 -1.1911  1.8445
29942SOL     OW90403   9.838   4.596   7.844 -0.2962 -0.6543  0.0454
29942SOL    HW190404   9.806   4.621   7.931  1.0950 -2.1244  1.0238
29942SOL    HW290405   9.915   4.652   7.829 -0.6703 -0.2368 -0.3674
29943SOL     OW90406   8.493   1.071   4.951  0.3170  0.0342 -0.0175
29943SOL    HW190407   8.449   1.075   4.866  0.5429 -0.4506 -0.1619
29943SOL    HW290408   8.561   1.138   4.945  1.0233 -0.7122 -0.6321
29944SOL     OW90409   4.482   8.878   6.515  0.2249  0.0363  0.4538
29944SOL    HW190410   4.428   8.869   6.436  0.5302 -1.7843  0.4047
29944SOL    HW290411   4.447   8.812   6.575 -1.0328  2.4370  2.5193
29945SOL     OW90412   3.621   7.258   5.697  0.4114 -0.4700  0.2313
29945SOL    HW190413   3.695   7.218   5.650  0.2756 -0.1591 -0.2515
29945SOL    HW290414   3.662   7.312   5.764  0.6268 -0.1871 -0.1275
29946SOL     OW90415   0.054   4.975   1.595  0.5248 -0.2004  0.3419
29946SOL    HW190416   0.145   4.960   1.570  0.2807  0.3180 -0.9394
29946SOL    HW290417   0.006   4.902   1.555  0.3493 -0.4271  0.9439
29947SOL     OW90418   4.176   5.966   0.344  0.1851  0.2948 -0.2658
29947SOL    HW190419   4.255   5.959   0.398 -0.5301 -0.2822  0.7596
29947SOL    HW290420   4.116   5.902   0.383 -0.1542 -0.5825 -2.1545
29948SOL     OW90421   6.320   1.885   1.032  0.0503 -0.0624 -0.1163
29948SOL    HW190422   6.384   1.939   0.986 -0.7373  0.0237 -1.1527
29948SOL    HW290423   6.256   1.947   1.065 -0.6053 -0.3041 -0.9027
29949SOL     OW90424   3.330   4.204   5.274  0.0408  0.3347 -0.3226
29949SOL    HW190425   3.345   4.298   5.265  0.1840  0.1560 -2.5085
29949SOL    HW290426   3.359   4.167   5.191 -1.1660 -1.5139  0.0117
29950SOL     OW90427   9.253   1.318   0.783 -0.3853 -0.0957 -0.6617
29950SOL    HW190428   9.244   1.340   0.691  2.4110 -1.1534 -1.2970
29950SOL    HW290429   9.240   1.223   0.786 -3.2250  0.2371  0.5573
29951SOL     OW90430   3.927   0.209   8.061 -0.7645  0.2788 -0.3264
29951SOL    HW190431   3.958   0.160   7.985  0.9275 -0.1126  0.5882
29951SOL    HW290432   4.005   0.250   8.097 -1.7390  1.5125  0.4847
29952SOL     OW90433   5.942   5.943   5.988 -0.4703  0.1029 -0.0265
29952SOL    HW190434   5.897   5.859   5.995 -1.2685  0.6103  1.3228
29952SOL    HW290435   5.904   5.984   5.910 -0.3209 -0.6291 -0.4916
29953SOL     OW90436   3.430   3.522   8.832  0.3687 -0.1085 -0.2341
29953SOL    HW190437   3.504   3.558   8.881 -1.3147  0.8427  1.8097
29953SOL    HW290438   3.396   3.452   8.888 -1.2255  0.5531 -0.3264
29954SOL     OW90439   6.598   1.146   2.965  0.9815 -0.3422  0.3973
29954SOL    HW190440   6.626   1.132   2.875  1.8932  0.1399  0.5954
29954SOL    HW290441   6.556   1.232   2.964 -0.5630 -1.0642  0.1001
29955SOL     OW90442   5.424   6.334   8.662 -0.1498 -0.2656  0.3561
29955SOL    HW190443   5.414   6.239   8.655  1.3549 -0.4519  0.3962
29955SOL    HW290444   5.397   6.368   8.576  2.6324 -1.0701 -0.9371
29956SOL     OW90445   3.742   2.836   3.939  0.0982 -0.1136 -0.6842
29956SOL    HW190446   3.801   2.760   3.937 -0.7783 -0.7981 -1.0740
29956SOL    HW290447   3.762   2.880   4.022  0.7922 -0.6177 -0.5715
29957SOL     OW90448   3.065   9.717   3.291  0.1752 -0.0220 -0.4171
29957SOL    HW190449   2.999   9.648   3.284 -0.5818  0.5848  0.5005
29957SOL    HW290450   3.141   9.673   3.330  1.1730 -1.2489 -3.4520
29958SOL     OW90451   6.946   5.997   8.762 -0.1031 -0.3582 -0.3460
29958SOL    HW190452   6.900   6.080   8.769 -0.0256 -0.4236  1.4801
29958SOL    HW290453   7.037   6.018   8.783  0.3829 -0.5336 -2.1543
29959SOL     OW90454   1.265   2.310   0.764 -0.1077  0.2873 -0.5205
29959SOL    HW190455   1.347   2.347   0.730  0.1002 -0.5649 -0.9862
29959SOL    HW290456   1.239   2.369   0.835  1.0033  0.4773 -0.2515
29960SOL     OW90457   5.534   3.005   7.258 -0.5246 -0.0289 -0.4664
29960SOL    HW190458   5.581   3.082   7.226 -0.5241  0.0231 -0.3424
29960SOL    HW290459   5.586   2.974   7.332 -1.9332  1.4382  1.2244
29961SOL     OW90460   4.260   4.852   1.726 -0.4103 -0.1679  0.1772
29961SOL    HW190461   4.332   4.858   1.662 -0.9670  2.9958 -0.3165
29961SOL    HW290462   4.186   4.819   1.675 -0.0492 -0.6274 -0.0558
29962SOL     OW90463   4.938   5.348   0.160 -0.3003 -0.5837 -0.1726
29962SOL    HW190464   4.974   5.263   0.136  0.2031 -0.6820  0.8839
29962SOL    HW290465   4.957   5.404   0.085 -0.4428 -1.3390 -0.7877
29963SOL     OW90466   9.237   7.378   0.978  0.9225  0.5558 -0.0440
29963SOL    HW190467   9.167   7.416   1.031  0.0214 -0.4770 -0.4576
29963SOL    HW290468   9.294   7.334   1.042  0.7823  0.7518  0.2182
29964SOL     OW90469   8.148   6.743   3.757 -0.4189 -0.1190  0.2237
29964SOL    HW190470   8.173   6.664   3.805 -2.2199 -1.7320 -1.2819
29964SOL    HW290471   8.231   6.783   3.731  0.5460 -0.8779  1.9800
29965SOL     OW90472   3.165   5.719   4.581 -0.4420  0.4759 -0.6969
29965SOL    HW190473   3.167   5.633   4.538 -0.1330  0.5647 -0.8646
29965SOL    HW290474   3.256   5.745   4.586 -0.4525  0.3372  0.2984
29966SOL     OW90475   2.754   0.728   9.972  0.0165 -0.0139  0.7341
29966SOL    HW190476   2.789   0.803  10.021  1.8137 -0.8860  0.8485
29966SOL    HW290477   2.780   0.744   9.882  0.6251 -0.6118  0.7989
29967SOL     OW90478   0.831   4.006   3.047  0.1084 -0.4357  0.3868
29967SOL    HW190479   0.822   3.941   2.977  0.7509 -0.3470  0.2138
29967SOL    HW290480   0.898   4.066   3.015 -0.3970  0.2463  0.5981
29968SOL     OW90481   3.267   7.364   7.186  0.1539  0.5013 -0.5366
29968SOL    HW190482   3.340   7.339   7.243  0.3383  1.3438 -0.3894
29968SOL    HW290483   3.209   7.287   7.186  0.4413  0.2712  0.3150
29969SOL     OW90484   6.884   9.085   4.423  0.2677  0.2082  0.4172
29969SOL    HW190485   6.821   9.134   4.475  0.0382  3.4653 -2.5985
29969SOL    HW290486   6.857   9.098   4.332  2.1140 -2.9987 -0.8003
29970SOL     OW90487   0.407   7.736   4.277 -0.4270  0.0309  0.0028
29970SOL    HW190488   0.389   7.824   4.310 -0.2600  0.0653  0.0029
29970SOL    HW290489   0.354   7.728   4.198  1.1436  0.8918 -1.1821
29971SOL     OW90490   7.861   0.954   3.182  0.0551 -0.0715  0.0865
29971SOL    HW190491   7.850   0.891   3.112 -2.3788 -2.1898  2.1510
29971SOL    HW290492   7.951   0.943   3.211  0.3726 -0.8501 -1.1510
29972SOL     OW90493   4.166   1.315   6.388 -0.6163  0.3042  0.1403
29972SOL    HW190494   4.218   1.360   6.321  0.0836 -0.8017 -0.0791
29972SOL    HW290495   4.164   1.376   6.462 -0.9640  1.3193 -0.6825
29973SOL     OW90496   3.993   1.568   3.066  0.4148 -0.5618  0.3540
29973SOL    HW190497   3.948   1.556   2.983  1.2669  0.9859 -0.3835
29973SOL    HW290498   3.992   1.482   3.108  2.3103 -2.0826 -2.4398
29974SOL     OW90499   3.881   4.973   6.233 -0.1032 -0.5983  0.0798
29974SOL    HW190500   3.889   5.028   6.154 -0.5665 -0.8942 -0.1751
29974SOL    HW290501   3.795   4.932   6.225  0.2174 -1.3189  0.2985
29975SOL     OW90502   7.754   5.618   9.684  0.0350 -0.1336 -0.0512
29975SOL    HW190503   7.794   5.670   9.614 -1.1763  0.0549 -0.6411
29975SOL    HW290504   7.681   5.672   9.715 -0.0039 -0.6213  0.7265
29976SOL     OW90505   5.902   8.001   9.695 -0.5959 -0.4299  0.2279
29976SOL    HW190506   5.906   7.907   9.716 -0.5688 -0.5155 -0.1644
29976SOL    HW290507   5.990   8.033   9.713 -0.3123 -0.6935 -0.6517
29977SOL     OW90508   2.586   3.939   3.064  0.8561  0.5620  0.4749
29977SOL    HW190509   2.551   3.933   2.975  1.8769  0.0398  0.0952
29977SOL    HW290510   2.514   3.977   3.115  0.5431  1.6767 -0.7327
29978SOL     OW90511   1.247   5.538   5.324  0.5197  0.3379  0.4469
29978SOL    HW190512   1.327   5.534   5.271 -0.2916 -0.0371 -0.7916
29978SOL    HW290513   1.178   5.509   5.265 -0.5863  0.9297  1.4118
29979SOL     OW90514   8.236   0.403   0.896  0.0550  0.1255 -0.2619
29979SOL    HW190515   8.284   0.411   0.978 -1.1763 -1.0707  0.6391
29979SOL    HW290516   8.250   0.312   0.869  0.0914  0.3857 -1.1667
29980SOL     OW90517   4.652   9.717   8.947  0.0042  0.3733  0.0016
29980SOL    HW190518   4.610   9.698   8.864 -0.5263  1.1101  0.0885
29980SOL    HW290519   4.580   9.727   9.009  0.4224 -1.1882  0.7962
29981SOL     OW90520   1.174   9.003   1.308  0.1888  0.0411  0.1261
29981SOL    HW190521   1.237   9.043   1.369  0.7851  0.9763 -1.0612
29981SOL    HW290522   1.227   8.978   1.232 -0.2797 -2.4682  0.5333
29982SOL     OW90523   6.004   9.440   1.550 -0.3318 -0.4373  0.3882
29982SOL    HW190524   5.922   9.395   1.528 -0.7065  0.6053 -0.3883
29982SOL    HW290525   6.008   9.436   1.646 -1.3179 -0.4473  0.4415
29983SOL     OW90526   9.404   7.679   8.720 -0.1122 -0.2546  0.3514
29983SOL    HW190527   9.438   7.765   8.742 -0.7180  0.4605 -1.3342
29983SOL    HW290528   9.369   7.645   8.803  1.5293  0.4190  1.3724
29984SOL     OW90529   2.952   8.837   4.520 -0.0562  0.3502 -0.1520
29984SOL    HW190530   2.909   8.905   4.469 -0.2125  0.2841 -0.1083
29984SOL    HW290531   2.915   8.755   4.486  0.4104  0.2667 -0.4672
29985SOL     OW90532   4.207   8.602   0.697  0.2381 -0.3273  0.3783
29985SOL    HW190533   4.290   8.585   0.741  0.0205  0.1805  0.9969
29985SOL    HW290534   4.204   8.698   0.688  0.2669 -0.4156 -0.7191
29986SOL     OW90535   6.361   4.707   3.035 -0.1728  0.3315  0.1067
29986SOL    HW190536   6.279   4.658   3.030  0.6977 -1.1853 -0.1869
29986SOL    HW290537   6.366   4.753   2.951 -1.1203  1.1608  0.4819
29987SOL     OW90538   5.002   5.652   2.138 -0.2615  0.5270 -0.2097
29987SOL    HW190539   5.079   5.666   2.193 -0.4930 -1.5439  0.7136
29987SOL    HW290540   5.038   5.636   2.050  0.3631 -0.1737  0.1654
29988SOL     OW90541   4.843   9.258   5.449 -0.6393 -0.0606 -0.8696
29988SOL    HW190542   4.903   9.199   5.403 -0.3884 -0.7992  0.3755
29988SOL    HW290543   4.884   9.344   5.439  0.2116 -0.4354 -0.7433
29989SOL     OW90544   5.515   4.787   1.983  0.3724  0.6197  0.6838
29989SOL    HW190545   5.585   4.852   1.976 -0.0501  1.0953  0.7993
29989SOL    HW290546   5.501   4.777   2.077 -0.1734  1.0334  0.6525
29990SOL     OW90547   8.467   1.170   3.188 -0.2532  1.0444  0.6727
29990SOL    HW190548   8.461   1.168   3.284 -0.0427  2.4399  0.7243
29990SOL    HW290549   8.404   1.104   3.160  0.9682 -0.6971  1.7945
29991SOL     OW90550   1.891   0.438   6.824  0.2926  0.0847  0.2760
29991SOL    HW190551   1.806   0.403   6.849 -0.4047  1.6779  0.2470
29991SOL    HW290552   1.904   0.409   6.734 -1.3995  1.8619 -0.6078
29992SOL     OW90553   5.061   1.656   9.491 -0.0824  0.6355  0.1684
29992SOL    HW190554   5.134   1.644   9.551  0.2602 -0.6467 -0.4678
29992SOL    HW290555   5.092   1.718   9.426  0.6709 -0.3500 -0.4341
29993SOL     OW90556   9.329   2.690   1.117  0.0525 -0.2325 -0.1853
29993SOL    HW190557   9.310   2.612   1.169  1.6803 -1.5076 -1.3742
29993SOL    HW290558   9.361   2.754   1.181 -2.8416  0.1262  1.0445
29994SOL     OW90559   9.526   0.110   4.207  0.2049  0.6101  0.4527
29994SOL    HW190560   9.443   0.155   4.220 -1.5795 -2.0089 -0.8412
29994SOL    HW290561   9.562   0.148   4.127 -1.3648 -0.2731 -0.7262
29995SOL     OW90562   0.494   1.608   5.875 -0.2238  0.6746  0.6927
29995SOL    HW190563   0.475   1.569   5.790  0.6589 -1.2311  1.2955
29995SOL    HW290564   0.524   1.697   5.855 -0.7537  0.5203 -0.9074
29996SOL     OW90565   6.639   7.399   7.307  0.3556  0.4163  0.2842
29996SOL    HW190566   6.637   7.491   7.333 -1.8550  0.1775  1.2002
29996SOL    HW290567   6.644   7.401   7.211  1.4126  1.4347  0.3377
29997SOL     OW90568   5.250   8.591   8.699 -0.3677  0.7102  0.3308
29997SOL    HW190569   5.245   8.564   8.791 -2.2991  0.0746  0.0906
29997SOL    HW290570   5.211   8.518   8.651  0.4253  1.1273 -0.9862
29998SOL     OW90571   3.100   0.425   5.235 -0.4661 -0.4030 -0.3383
29998SOL    HW190572   3.184   0.419   5.190 -0.2028 -0.6569  0.1827
29998SOL    HW290573   3.078   0.518   5.234 -1.3515 -0.5803 -2.5999
29999SOL     OW90574   6.363   9.601   8.636 -0.2656  0.6691 -0.2091
29999SOL    HW190575   6.330   9.519   8.675  1.2123 -0.1095 -0.5445
29999SOL    HW290576   6.311   9.669   8.679  1.0231 -0.1400  3.0056
30000SOL     OW90577   7.260   3.120   6.600  0.6168  0.1257 -0.0959
30000SOL    HW190578   7.201   3.069   6.654 -1.5938 -0.2500 -2.6649
30000SOL    HW290579   7.338   3.133   6.655 -1.2441 -0.5590  2.9209
30001SOL     OW90580   2.878   9.498   3.339  0.2091  1.1576 -0.4373
30001SOL    HW190581   2.828   9.471   3.415  1.0068  2.3850  0.5651
30001SOL    HW290582   2.920   9.418   3.308  0.9937  0.8513  1.2910
30002SOL     OW90583   1.014   1.159   5.536  0.2246 -0.1274  0.4476
30002SOL    HW190584   1.013   1.254   5.553 -0.2548 -0.3583  1.8902
30002SOL    HW290585   1.099   1.130   5.569 -0.7761 -0.6069  2.8016
30003SOL     OW90586   9.241   1.090   1.793  0.2238 -0.1485 -0.6028
30003SOL    HW190587   9.203   1.021   1.848  0.3715 -0.6152 -1.0899
30003SOL    HW290588   9.299   1.044   1.733  1.4369  0.5442  0.0125
30004SOL     OW90589   4.876   2.515   3.678 -0.0810 -0.5571 -0.7070
30004SOL    HW190590   4.940   2.471   3.734  0.9049 -0.0044 -1.3538
30004SOL    HW290591   4.792   2.479   3.704  0.0357  1.1691  2.6200
30005SOL     OW90592   7.006   7.180   8.628  0.3881 -0.1097  0.3582
30005SOL    HW190593   7.059   7.259   8.620  0.7683 -0.2888  1.0292
30005SOL    HW290594   7.013   7.155   8.720 -0.2800 -0.5423  0.3027
30006SOL     OW90595   1.775   5.436   9.670  0.1981  0.1428  0.1887
30006SOL    HW190596   1.686   5.412   9.642  0.6624  0.4249 -1.7100
30006SOL    HW290597   1.832   5.373   9.625  1.0020  0.4084  0.8172
30007SOL     OW90598   8.374   0.895   7.020  0.8705 -0.2757 -0.2680
30007SOL    HW190599   8.302   0.840   7.052 -0.4289  1.1818 -0.5573
30007SOL    HW290600   8.356   0.906   6.926  0.9949  0.7601 -0.1830
30008SOL     OW90601   2.036   5.708   5.949 -0.6149  0.0440  0.1858
30008SOL    HW190602   2.042   5.748   6.036  1.2956 -0.9720  0.5883
30008SOL    HW290603   2.021   5.781   5.889 -0.1156  0.9909  1.1782
30009SOL     OW90604   7.897   0.479   4.958 -0.2028  0.9890  0.0257
30009SOL    HW190605   7.958   0.516   5.021  1.0145  0.4181 -0.7950
30009SOL    HW290606   7.825   0.444   5.012  0.3755  1.2974  1.0202
30010SOL     OW90607   2.270   3.501   3.218 -0.8650  0.1277 -0.6397
30010SOL    HW190608   2.322   3.519   3.140 -0.7293  1.1397 -0.3223
30010SOL    HW290609   2.278   3.579   3.271  0.9400 -1.3941  1.4887
30011SOL     OW90610   8.857   9.398   5.894 -0.5138 -0.0798  0.0598
30011SOL    HW190611   8.806   9.326   5.931 -0.6713 -0.3504 -0.6840
30011SOL    HW290612   8.816   9.416   5.809 -0.0515  0.4310 -0.0603
30012SOL     OW90613   5.288   4.232   9.232  0.5393  0.1659  0.8980
30012SOL    HW190614   5.250   4.301   9.177  0.2547 -0.0663  0.8029
30012SOL    HW290615   5.338   4.178   9.171 -0.5719 -0.6638  0.6880
30013SOL     OW90616   4.888   7.425   8.983  0.0072  0.4111 -0.5543
30013SOL    HW190617   4.960   7.413   9.045  0.2003  0.3195 -0.7914
30013SOL    HW290618   4.809   7.413   9.035  0.1580 -2.5140 -0.8282
30014SOL     OW90619   7.308   6.825   9.189 -0.0726 -0.1913  0.0039
30014SOL    HW190620   7.368   6.818   9.263 -0.6303 -0.2877  0.4623
30014SOL    HW290621   7.346   6.893   9.133 -0.4172  0.9890  1.1364
30015SOL     OW90622   6.254   4.008   3.040  0.1124 -0.2255  0.1084
30015SOL    HW190623   6.247   4.035   3.132 -3.7453 -0.1912 -0.0359
30015SOL    HW290624   6.196   3.931   3.034 -1.0903  0.7680 -2.5655
30016SOL     OW90625   3.679   9.279   7.354  0.0350  0.2169  0.0780
30016SOL    HW190626   3.678   9.198   7.405 -0.1690 -0.1335 -0.4697
30016SOL    HW290627   3.672   9.349   7.419 -1.1332 -0.2540  0.4803
30017SOL     OW90628   3.509   1.078   8.313 -0.4795  0.1728 -0.2516
30017SOL    HW190629   3.520   1.042   8.225 -1.7214 -1.3042  0.1656
30017SOL    HW290630   3.592   1.059   8.357  0.6866  2.1056 -1.4295
30018SOL     OW90631   2.900   5.363   2.322 -0.2452 -0.4935 -0.3967
30018SOL    HW190632   2.818   5.411   2.329 -0.9599 -0.9661 -3.6447
30018SOL    HW290633   2.912   5.321   2.407 -2.1012  1.4901  0.9274
30019SOL     OW90634   4.028   2.922   6.409 -0.1435  0.0253 -0.3443
30019SOL    HW190635   4.046   2.871   6.487  0.9246  1.5758  0.4768
30019SOL    HW290636   4.107   2.914   6.355 -0.4720 -0.2014 -0.8067
30020SOL     OW90637   7.683   8.727   2.941  0.3564 -0.0883  0.0793
30020SOL    HW190638   7.726   8.808   2.970 -2.5401  2.5658 -2.2723
30020SOL    HW290639   7.598   8.728   2.984 -0.2148 -1.2199 -0.9615
30021SOL     OW90640   0.598   5.099   0.904  0.4287 -0.2562  0.6774
30021SOL    HW190641   0.545   5.154   0.962 -2.6306  0.1039 -2.1856
30021SOL    HW290642   0.564   5.011   0.917 -1.0536 -0.0206 -1.1892
30022SOL     OW90643   7.044   6.615   2.908  0.0720  0.3107 -0.0508
30022SOL    HW190644   7.103   6.566   2.966  0.3007  0.6489  0.0090
30022SOL    HW290645   7.065   6.583   2.820 -0.5397 -0.4764  0.0808
30023SOL     OW90646   4.058   6.128   1.754  0.7435  0.4916 -0.1929
30023SOL    HW190647   4.022   6.047   1.791  0.6940  0.7757  0.3890
30023SOL    HW290648   4.060   6.189   1.827 -1.1533  1.6886 -1.0664
30024SOL     OW90649   6.070   3.900   8.234 -0.0976 -0.0008  0.3165
30024SOL    HW190650   6.139   3.835   8.223  0.6746  1.0066 -1.0083
30024SOL    HW290651   6.070   3.918   8.328  2.7778  1.3397  0.1653
30025SOL     OW90652   4.883   8.894   4.458 -0.2014 -0.0058  0.3683
30025SOL    HW190653   4.945   8.966   4.453 -0.0532 -0.1108  0.6691
30025SOL    HW290654   4.897   8.856   4.545  2.1902 -2.5896 -0.9658
30026SOL     OW90655   0.203   0.231   2.660  0.5036 -0.2216  0.4376
30026SOL    HW190656   0.265   0.298   2.688 -0.2906  0.5150  0.5006
30026SOL    HW290657   0.238   0.149   2.695  1.3809  0.1893  0.5414
30027SOL     OW90658   9.516   6.320   7.827 -0.0580  0.0910  0.3497
30027SOL    HW190659   9.430   6.358   7.810 -0.5599  0.2586  2.8401
30027SOL    HW290660   9.536   6.346   7.917  1.5157 -1.9476  0.6645
30028SOL     OW90661   8.679   5.208   5.108 -0.1048  0.6559 -0.0641
30028SOL    HW190662   8.646   5.215   5.197  1.7011  0.6215  0.6435
30028SOL    HW290663   8.660   5.294   5.069 -1.9747  0.2839 -0.0958
30029SOL     OW90664   0.085   0.857   8.241  0.4917  0.7565  0.4240
30029SOL    HW190665   0.028   0.812   8.179 -0.6387  1.4118  0.9532
30029SOL    HW290666   0.049   0.835   8.327  2.1785 -0.3397  0.9123
30030SOL     OW90667   8.668   7.208   8.101 -0.1709  0.2794  0.3216
30030SOL    HW190668   8.621   7.290   8.116 -1.2261 -0.2616  0.0837
30030SOL    HW290669   8.630   7.173   8.021  2.2262  0.9054 -1.1693
30031SOL     OW90670   4.762   9.793   7.071 -0.5361  0.1718 -0.3294
30031SOL    HW190671   4.770   9.778   6.977 -0.7562  0.8963 -0.4718
30031SOL    HW290672   4.833   9.742   7.110 -0.9400 -0.7979 -0.8158
30032SOL     OW90673   6.047   6.224   6.138  0.1248 -0.5900 -0.2895
30032SOL    HW190674   6.052   6.228   6.043  0.8576 -0.4900 -0.2491
30032SOL    HW290675   6.132   6.190   6.166  0.5527  1.0009  0.4252
30033SOL     OW90676   2.816   5.701   9.967 -0.0214  0.0492  0.8956
30033SOL    HW190677   2.856   5.770   9.915 -0.8510 -0.7044 -0.8245
30033SOL    HW290678   2.788   5.744  10.048  1.1200  1.3005  0.6458
30034SOL     OW90679   7.736   0.929   0.227 -0.5986 -0.4581  0.5723
30034SOL    HW190680   7.812   0.882   0.261 -0.6590  0.4483  2.0454
30034SOL    HW290681   7.765   1.020   0.223 -1.5336 -0.1391  0.9438
30035SOL     OW90682   0.543   6.513   8.029  0.3952  0.0378  0.9484
30035SOL    HW190683   0.588   6.597   8.021  0.8186 -0.3754 -3.5050
30035SOL    HW290684   0.613   6.448   8.030  0.1748 -0.4185 -2.2102
30036SOL     OW90685   4.489   3.517   5.113  0.3566  0.2080 -0.1063
30036SOL    HW190686   4.524   3.429   5.104 -0.8792 -0.1829 -1.6319
30036SOL    HW290687   4.413   3.519   5.054 -0.1146  2.0486  0.4782
30037SOL     OW90688   6.051   1.538   5.255 -0.0288  0.4709  0.3348
30037SOL    HW190689   6.013   1.614   5.212 -0.1436 -0.3805 -1.1503
30037SOL    HW290690   5.985   1.469   5.244  0.9025 -0.3697 -0.1651
30038SOL     OW90691   0.786   5.962   5.685 -0.7520 -0.0244 -0.1321
30038SOL    HW190692   0.787   6.055   5.710 -1.4640 -0.4348  1.5611
30038SOL    HW290693   0.693   5.942   5.675 -0.6011 -0.5880 -0.4478
30039SOL     OW90694   4.178   2.733   9.132  0.9096 -0.1189  0.3966
30039SOL    HW190695   4.106   2.686   9.090  1.4859  0.3538 -1.1823
30039SOL    HW290696   4.257   2.700   9.089  1.3415  2.0950 -0.6270
30040SOL     OW90697   8.188   1.343   1.231  0.2625 -0.6648  0.5965
30040SOL    HW190698   8.102   1.367   1.266  0.8673 -2.7252  3.9164
30040SOL    HW290699   8.185   1.248   1.222  1.2615 -0.5202 -2.2451
30041SOL     OW90700   5.448   3.592   3.202  0.1589 -0.3022 -0.0263
30041SOL    HW190701   5.391   3.656   3.161  1.2393  1.7595  1.5196
30041SOL    HW290702   5.419   3.588   3.293 -0.1315 -2.3426 -0.1673
30042SOL     OW90703   7.412   2.750   6.798 -0.4763  0.0398  0.7744
30042SOL    HW190704   7.358   2.761   6.720  0.3440 -0.7025  0.0782
30042SOL    HW290705   7.391   2.663   6.830 -0.5037  0.1825  1.1521
30043SOL     OW90706   0.602   1.113   2.235  0.5993 -0.5369 -0.4900
30043SOL    HW190707   0.595   1.096   2.329  1.8523  1.3065  0.0038
30043SOL    HW290708   0.685   1.072   2.210  0.4693 -0.6712 -0.6970
30044SOL     OW90709   0.590   9.953   5.300  0.1797  0.2878 -0.1226
30044SOL    HW190710   0.533   9.876   5.298  1.0090 -0.3723 -3.3347
30044SOL    HW290711   0.637   9.945   5.383 -2.9152 -0.1645  1.7544
30045SOL     OW90712   5.680   7.437   6.266 -0.0099  0.5258  0.2731
30045SOL    HW190713   5.655   7.350   6.298 -1.0342  0.6040 -0.2625
30045SOL    HW290714   5.600   7.489   6.277  0.3130  1.1436 -0.3073
30046SOL     OW90715   8.502   6.806   1.297 -0.4592 -0.3598 -0.0820
30046SOL    HW190716   8.442   6.807   1.372 -0.4805  1.8164 -0.0642
30046SOL    HW290717   8.578   6.856   1.327  1.1299 -2.4509 -0.3531
30047SOL     OW90718   4.076   5.856   6.337  0.0879  0.0145 -0.2404
30047SOL    HW190719   4.087   5.763   6.360 -1.2015 -0.0329  0.2997
30047SOL    HW290720   4.133   5.903   6.398  2.1209 -0.4659 -1.6494
30048SOL     OW90721   1.870   1.976   0.785  0.2567 -0.4555  0.0012
30048SOL    HW190722   1.953   1.929   0.777  0.4120 -0.0177 -1.1776
30048SOL    HW290723   1.894   2.069   0.785 -0.2253 -0.3159 -0.5841
30049SOL     OW90724   1.484   5.529   5.184  0.0089 -0.3736  0.3660
30049SOL    HW190725   1.571   5.506   5.217  0.8542  1.8057 -0.2002
30049SOL    HW290726   1.473   5.622   5.205 -1.6114 -0.2405 -0.8037
30050SOL     OW90727   4.278   8.863   0.652  0.7995 -0.7446 -0.4751
30050SOL    HW190728   4.212   8.892   0.589  0.3815  2.0153  1.0740
30050SOL    HW290729   4.307   8.943   0.694  2.7725 -2.2545  1.2201
30051SOL     OW90730   3.972   9.981   0.918 -0.3360  0.0406  0.3629
30051SOL    HW190731   3.902   9.916   0.914 -0.5135  0.1591  1.2338
30051SOL    HW290732   4.041   9.945   0.862 -0.7971 -0.4378  0.0913
30052SOL     OW90733   3.853   5.350   5.361  0.1036 -0.5070 -0.4328
30052SOL    HW190734   3.880   5.402   5.437 -0.0633 -1.2509  0.1558
30052SOL    HW290735   3.933   5.307   5.331  0.0168 -0.9255 -0.0953
30053SOL     OW90736   6.117   6.513   8.782 -0.2570 -0.1384  0.2201
30053SOL    HW190737   6.199   6.558   8.804 -0.6411 -0.3446  2.3008
30053SOL    HW290738   6.052   6.552   8.841 -1.1691 -1.5375  0.1810
30054SOL     OW90739   1.651   6.552   0.981 -0.3523 -0.3627 -0.0905
30054SOL    HW190740   1.738   6.521   0.955  0.6538  0.2062  2.3857
30054SOL    HW290741   1.594   6.477   0.964  0.8432 -1.2113 -0.5209
30055SOL     OW90742  -0.013   6.626   0.375 -0.0461 -0.2862 -0.9487
30055SOL    HW190743   0.017   6.536   0.361  1.7131  0.0680  0.1510
30055SOL    HW290744   0.068   6.674   0.394 -1.2978  0.8100  2.1243
30056SOL     OW90745   0.738   8.830   8.205 -0.1782 -0.1344 -0.4832
30056SOL    HW190746   0.821   8.872   8.182  0.5183 -1.5483 -0.6640
30056SOL    HW290747   0.674   8.901   8.202  0.4928  0.4883 -3.3234
30057SOL     OW90748   8.878   8.621   0.962 -0.5441 -0.6737 -0.2028
30057SOL    HW190749   8.816   8.632   0.890 -2.0474 -1.9474  0.8266
30057SOL    HW290750   8.927   8.542   0.940 -0.2832 -0.4780 -0.3262
30058SOL     OW90751   4.190   6.824   2.888 -0.0546 -0.0006 -0.3703
30058SOL    HW190752   4.167   6.765   2.960  2.1223 -1.5333 -0.8246
30058SOL    HW290753   4.271   6.866   2.916  0.1639  0.3110 -1.4193
30059SOL     OW90754   3.335   0.697   1.327  0.1687 -0.4140 -0.2183
30059SOL    HW190755   3.314   0.656   1.243  0.4746 -0.3674 -0.3168
30059SOL    HW290756   3.427   0.676   1.343  0.1459 -0.3253  0.0497
30060SOL     OW90757   5.024   8.690   9.188 -0.1650  0.1115 -0.1944
30060SOL    HW190758   4.995   8.778   9.164 -1.3495  0.0041  0.7395
30060SOL    HW290759   5.027   8.691   9.284  1.7261 -0.2963 -0.2037
30061SOL     OW90760   1.213   1.469   1.968 -0.1766 -0.2848  0.4450
30061SOL    HW190761   1.151   1.409   1.928  1.3936 -1.0310 -1.0028
30061SOL    HW290762   1.213   1.445   2.061 -0.8461 -1.3574  0.1860
30062SOL     OW90763   2.052   3.806   1.380 -0.2615  0.0188 -0.1085
30062SOL    HW190764   2.032   3.887   1.332 -0.1553  0.3898  0.4617
30062SOL    HW290765   2.022   3.736   1.322  0.3154  0.4377 -0.9388
30063SOL     OW90766   8.499   1.938   6.754  0.7358 -0.3290  0.3929
30063SOL    HW190767   8.471   2.028   6.773  1.2487  0.0834 -0.7266
30063SOL    HW290768   8.594   1.939   6.765  0.9940 -0.2090 -1.4857
30064SOL     OW90769   8.277   6.678   7.088 -0.4672 -0.2227 -0.1538
30064SOL    HW190770   8.247   6.725   7.010  0.5287 -0.9997 -1.0361
30064SOL    HW290771   8.327   6.604   7.053 -0.3856 -0.8464  1.2272
30065SOL     OW90772   8.957   1.249   0.838 -0.4656 -0.4222  0.2206
30065SOL    HW190773   8.878   1.195   0.842  0.3192 -1.9089 -2.4297
30065SOL    HW290774   9.029   1.187   0.835  0.5256  0.7176 -2.2331
30066SOL     OW90775   6.563   7.893   7.195 -0.2077 -0.4015  0.0355
30066SOL    HW190776   6.617   7.839   7.137  1.7253  1.8143 -0.4061
30066SOL    HW290777   6.534   7.966   7.139  0.7801  1.2046  1.5089
30067SOL     OW90778   8.099   1.144   0.608  0.3766  0.0792  0.0002
30067SOL    HW190779   8.120   1.132   0.701  0.7734  0.6400 -0.0105
30067SOL    HW290780   8.128   1.233   0.588  1.5134 -0.4766 -0.9799
30068SOL     OW90781   5.842   6.206   2.394 -0.0512  0.3541  0.6482
30068SOL    HW190782   5.865   6.172   2.481  2.3087  0.5816  0.1877
30068SOL    HW290783   5.908   6.168   2.336 -0.9363  1.0648 -0.8617
30069SOL     OW90784   2.218   4.482   4.403  0.0968 -0.4415 -0.6802
30069SOL    HW190785   2.285   4.550   4.407  0.4514 -0.8456  0.3207
30069SOL    HW290786   2.148   4.522   4.351  1.1415 -0.0602 -1.8591
30070SOL     OW90787   5.483   6.615   1.406 -0.1053  0.5818  0.2906
30070SOL    HW190788   5.475   6.625   1.311 -0.5393 -0.2059  0.2311
30070SOL    HW290789   5.556   6.554   1.417 -2.1396 -2.0426  0.2702
30071SOL     OW90790   2.733   4.652   0.377 -0.1645  0.2598  0.1461
30071SOL    HW190791   2.813   4.636   0.327 -0.1981  0.5608 -0.0027
30071SOL    HW290792   2.752   4.729   0.430 -1.3801  2.2929 -2.1762
30072SOL     OW90793   7.881   8.986   9.135  0.5893  0.2328  0.1794
30072SOL    HW190794   7.854   8.964   9.224 -2.0861  0.0115 -0.5940
30072SOL    HW290795   7.915   8.904   9.100  0.6974  0.0671  0.6600
30073SOL     OW90796   2.879   3.001   5.203  0.1717  0.1516  0.0449
30073SOL    HW190797   2.843   3.086   5.226 -0.6671  0.8000 -3.1241
30073SOL    HW290798   2.971   3.019   5.182 -0.2110  0.5306 -1.4570
30074SOL     OW90799   7.610   5.412   4.519  0.1828  0.0253 -0.1145
30074SOL    HW190800   7.680   5.447   4.575 -0.1504 -0.6724  0.7532
30074SOL    HW290801   7.537   5.396   4.579  0.0924 -1.4907 -0.5958
30075SOL     OW90802   5.340   1.693   5.121  0.4132 -0.4411  0.5627
30075SOL    HW190803   5.334   1.717   5.213 -1.4084  0.1029  0.3453
30075SOL    HW290804   5.353   1.776   5.075 -1.2578 -0.3568  0.1664
30076SOL     OW90805   5.861   7.058   6.403  0.2603  0.2800  0.3824
30076SOL    HW190806   5.928   7.117   6.368  0.7672 -0.4037  0.1860
30076SOL    HW290807   5.795   7.052   6.333 -1.2964  2.8676  1.4625
30077SOL     OW90808   4.394   2.186   4.879  0.0608  0.3725  0.4885
30077SOL    HW190809   4.465   2.202   4.817  0.3711  1.0002  0.9800
30077SOL    HW290810   4.433   2.204   4.965 -0.9405  1.7154  0.7009
30078SOL     OW90811   6.711   5.250   2.676 -0.1283 -0.4339  0.1298
30078SOL    HW190812   6.697   5.294   2.592 -1.8016 -1.5013 -0.1875
30078SOL    HW290813   6.804   5.225   2.674  0.0659  0.2867 -1.0271
30079SOL     OW90814   6.871   9.635   9.768 -0.3882 -0.8087 -0.1773
30079SOL    HW190815   6.825   9.564   9.723 -0.4555 -0.0478 -1.3288
30079SOL    HW290816   6.864   9.710   9.710 -0.1617  0.1149  0.9435
30080SOL     OW90817   3.146   0.158   2.534 -0.2082  0.0701 -0.5620
30080SOL    HW190818   3.190   0.229   2.487  3.1574 -0.4450  1.4130
30080SOL    HW290819   3.186   0.078   2.501 -0.0569 -0.4900  0.8747
30081SOL     OW90820   1.370   1.748   7.069 -0.4193  0.3520  0.3028
30081SOL    HW190821   1.375   1.737   6.974 -1.5135 -1.7740  0.4368
30081SOL    HW290822   1.394   1.840   7.084  4.4889 -0.2797 -1.6119
30082SOL     OW90823   3.803   3.976   6.824 -0.2078  0.2336  0.2429
30082SOL    HW190824   3.819   3.912   6.754  0.7825  1.0871 -0.3550
30082SOL    HW290825   3.763   3.926   6.894 -0.9537 -0.7125 -0.8308
30083SOL     OW90826   5.645   3.173   6.744 -0.7027 -0.4108 -0.0590
30083SOL    HW190827   5.673   3.245   6.800 -1.3299 -0.8210  0.8096
30083SOL    HW290828   5.572   3.133   6.791 -2.0110 -0.0702 -1.7118
30084SOL     OW90829   9.162   1.647   3.705  0.1905 -0.7492  0.1503
30084SOL    HW190830   9.244   1.696   3.715 -0.9201  1.1135  0.6542
30084SOL    HW290831   9.189   1.555   3.703  2.0920 -0.3685  2.8376
30085SOL     OW90832   1.026   1.431   2.767 -0.7758  0.0355 -0.0953
30085SOL    HW190833   1.067   1.516   2.753 -1.8200  0.3371 -1.5173
30085SOL    HW290834   1.048   1.409   2.858  2.1838  0.3112 -0.6310
30086SOL     OW90835   3.276   5.530   8.418  0.6123  0.0754  0.1316
30086SOL    HW190836   3.232   5.478   8.485 -0.1424 -0.5822 -0.8481
30086SOL    HW290837   3.207   5.583   8.378  1.3476  1.7921  1.0266
30087SOL     OW90838   9.930   5.587   9.594 -0.3235 -0.2446 -0.0096
30087SOL    HW190839   9.871   5.644   9.644 -1.4354 -0.5031 -0.9949
30087SOL    HW290840   9.942   5.510   9.650 -0.5568  0.0021  0.3878
30088SOL     OW90841   2.274   8.457   2.153 -0.2083 -0.2143 -0.6350
30088SOL    HW190842   2.261   8.478   2.061 -1.0135 -0.3651 -0.5679
30088SOL    HW290843   2.361   8.491   2.174  0.6905 -1.6553 -1.8631
30089SOL     OW90844   4.657   6.948   2.416 -0.2791 -0.3429 -0.3837
30089SOL    HW190845   4.638   6.919   2.327  2.2118  1.1785 -1.5333
30089SOL    HW290846   4.614   6.884   2.472 -0.4848 -2.3492 -2.6783
30090SOL     OW90847   6.639   0.887   3.389 -0.0480  0.0835  0.2866
30090SOL    HW190848   6.578   0.839   3.333  1.4295 -0.0317 -1.3100
30090SOL    HW290849   6.658   0.967   3.341  2.0524 -0.4868  0.0782
30091SOL     OW90850   1.695   6.233   6.914  0.3224  0.3073  0.0342
30091SOL    HW190851   1.766   6.267   6.859 -0.2003 -0.2682 -1.0417
30091SOL    HW290852   1.714   6.140   6.922  0.2127  0.3280  0.5817
30092SOL     OW90853   6.598   8.757   9.864  0.1294  0.0798  0.1535
30092SOL    HW190854   6.644   8.836   9.893 -0.7666  0.7053 -0.0967
30092SOL    HW290855   6.641   8.734   9.782  0.2072  0.4818  0.0775
30093SOL     OW90856   8.492   2.501   5.192 -0.0604  0.0862  0.0395
30093SOL    HW190857   8.539   2.581   5.170 -1.7004  1.0552 -0.0816
30093SOL    HW290858   8.548   2.458   5.257  2.4953 -0.4040 -2.2939
30094SOL     OW90859   4.088   3.140   4.409 -0.4593  0.0115 -0.8888
30094SOL    HW190860   4.152   3.160   4.478  1.0067 -0.1820 -2.1456
30094SOL    HW290861   4.005   3.130   4.456  0.0819  1.9577  0.5926
30095SOL     OW90862   6.461   2.864   5.766  0.2370  0.3843  0.5295
30095SOL    HW190863   6.482   2.787   5.712 -0.7012  0.5018 -0.0308
30095SOL    HW290864   6.487   2.839   5.854  0.2731 -0.4538  0.2909
30096SOL     OW90865   2.964   6.343   3.445 -0.1672 -0.4259 -0.2511
30096SOL    HW190866   3.045   6.317   3.400 -0.9710 -0.4068 -1.7783
30096SOL    HW290867   2.911   6.263   3.446 -1.3651  0.2744 -2.1166
30097SOL     OW90868   3.495   7.364   1.340  0.4195 -0.2452 -0.1506
30097SOL    HW190869   3.529   7.304   1.407  0.4480 -0.7721 -0.6298
30097SOL    HW290870   3.489   7.449   1.385 -2.2832 -1.1232  1.3913
30098SOL     OW90871   1.966   8.243   3.577 -0.6056 -0.4525 -0.1824
30098SOL    HW190872   1.994   8.225   3.487  0.8982 -0.2576  0.2245
30098SOL    HW290873   2.000   8.169   3.628  1.8928  1.2336  0.7994
30099SOL     OW90874   1.939   1.005   0.633 -0.2292  0.1575 -0.6754
30099SOL    HW190875   1.984   0.981   0.714  0.0320  0.3013 -0.7781
30099SOL    HW290876   1.944   0.927   0.578 -0.4569  0.0409 -0.5307
30100SOL     OW90877   4.972   2.096   2.658 -0.7902 -0.8457  0.0882
30100SOL    HW190878   4.954   2.180   2.617  1.3581 -0.3914 -0.0423
30100SOL    HW290879   4.943   2.031   2.594  0.1897 -0.1597 -1.0949
30101SOL     OW90880   4.201   7.751   2.860  0.6098  0.4435 -0.2271
30101SOL    HW190881   4.153   7.827   2.893  0.7844  0.4234  0.0782
30101SOL    HW290882   4.140   7.708   2.801  0.3563  0.5854 -0.0723
30102SOL     OW90883   7.578   8.193   6.126 -0.0222 -0.6408 -0.7633
30102SOL    HW190884   7.556   8.149   6.208  0.5858 -3.2098 -1.8865
30102SOL    HW290885   7.673   8.187   6.120  0.1424  1.3013 -0.7701
30103SOL     OW90886   1.833   4.763   6.808  0.3990 -0.0873  0.2883
30103SOL    HW190887   1.907   4.791   6.861 -0.0204 -0.1207  0.9056
30103SOL    HW290888   1.863   4.772   6.717  0.8984  0.6174  0.5133
30104SOL     OW90889   5.229   1.773   0.159 -0.6717  0.2776 -0.2460
30104SOL    HW190890   5.138   1.777   0.130 -1.1936 -1.3863  1.0553
30104SOL    HW290891   5.266   1.699   0.112  0.1858  1.2319 -1.1308
30105SOL     OW90892   1.624   4.137   1.569  0.2044 -0.0409  0.0206
30105SOL    HW190893   1.649   4.150   1.477  1.2203  0.3641  0.3479
30105SOL    HW290894   1.567   4.211   1.588  0.3263  0.1021 -0.1637
30106SOL     OW90895   1.854   1.703   4.276 -0.0643 -0.4639 -0.1059
30106SOL    HW190896   1.879   1.736   4.189  0.8868 -0.8214  0.0153
30106SOL    HW290897   1.937   1.698   4.323 -0.6563  0.4613  1.0898
30107SOL     OW90898   8.643   8.538   7.765  0.1658  0.4371 -0.6791
30107SOL    HW190899   8.734   8.560   7.745  0.2756  1.6601  0.9402
30107SOL    HW290900   8.595   8.618   7.743 -0.0339  0.9512  1.4154
30108SOL     OW90901   7.840   8.778   1.156 -0.0981  0.1063  0.2463
30108SOL    HW190902   7.791   8.804   1.078  0.1542 -4.3815 -1.6714
30108SOL    HW290903   7.774   8.768   1.224 -0.6585  1.7047 -0.0243
30109SOL     OW90904   1.072   5.977   7.750  0.4456  0.4454 -0.7187
30109SOL    HW190905   1.038   5.889   7.734  1.3004 -0.0370 -0.0035
30109SOL    HW290906   1.004   6.021   7.800  0.9925 -0.6403  1.0684
30110SOL     OW90907   2.666   6.603   6.569  0.2660  0.5148 -0.2521
30110SOL    HW190908   2.588   6.642   6.608  0.7022  2.5548 -1.2502
30110SOL    HW290909   2.716   6.570   6.643 -0.4730  1.2548  0.6072
30111SOL     OW90910   7.434   3.814   9.364 -0.4780 -0.3137 -0.2378
30111SOL    HW190911   7.446   3.737   9.309 -0.3106 -2.0961  2.1376
30111SOL    HW290912   7.341   3.835   9.356 -0.5886 -0.9615 -0.6851
30112SOL     OW90913   7.118   4.376   9.012  0.0257  0.3194 -0.3475
30112SOL    HW190914   7.057   4.341   8.947 -0.4415 -0.1426  0.3205
30112SOL    HW290915   7.200   4.389   8.964 -0.3210  0.0353 -1.0330
30113SOL     OW90916   5.730   8.987   1.969  0.2703 -0.7658 -0.6511
30113SOL    HW190917   5.708   8.946   1.885 -0.0850 -0.0544 -0.9201
30113SOL    HW290918   5.661   8.958   2.029 -1.0343  0.8247 -1.2937
30114SOL     OW90919   6.748   4.096   8.974  0.1385  0.2988 -0.4994
30114SOL    HW190920   6.768   4.132   9.060 -0.6955 -0.8582  0.1993
30114SOL    HW290921   6.687   4.160   8.935 -1.0822 -0.1427  0.6017
30115SOL     OW90922   7.182   3.772   9.624 -1.4464 -0.3381  0.5158
30115SOL    HW190923   7.145   3.783   9.537  1.3306 -0.2272 -0.7611
30115SOL    HW290924   7.195   3.677   9.632  0.1137 -0.1899 -0.0494
30116SOL     OW90925   3.815   3.061   6.284  0.7073  0.3291 -0.0638
30116SOL    HW190926   3.874   3.068   6.208  0.6525  0.0568 -0.1323
30116SOL    HW290927   3.871   3.028   6.354  1.2954  2.6368  0.6384
30117SOL     OW90928   5.096   4.236   2.318  0.1524  0.5108 -0.1367
30117SOL    HW190929   5.024   4.251   2.379 -1.5376  1.5006 -2.2564
30117SOL    HW290930   5.054   4.216   2.234  2.3186  1.6236 -1.5957
30118SOL     OW90931   8.372   6.115   7.375  0.0312  0.5905 -0.4057
30118SOL    HW190932   8.285   6.077   7.364  0.4971 -1.0913  1.1735
30118SOL    HW290933   8.384   6.171   7.299 -1.6318 -0.7110 -1.6998
30119SOL     OW90934   7.345   3.093   9.512  0.2896 -0.1647  0.0752
30119SOL    HW190935   7.337   3.183   9.542  0.3072 -0.7859  2.0581
30119SOL    HW290936   7.339   3.099   9.417 -1.9331  1.6994  0.2504
30120SOL     OW90937   0.716   1.599   0.617  0.0741 -0.1917  0.0771
30120SOL    HW190938   0.663   1.519   0.618 -1.3984  0.7142 -0.8936
30120SOL    HW290939   0.670   1.657   0.556  1.5361  1.1108  0.1591
30121SOL     OW90940   7.596   1.344   9.124  0.0811  0.3889 -0.1108
30121SOL    HW190941   7.651   1.267   9.138 -1.0223  0.0522  3.0612
30121SOL    HW290942   7.521   1.331   9.182 -0.5506  3.4700 -0.0629
30122SOL     OW90943   7.950   6.315   3.488  0.6534 -0.5901  0.0875
30122SOL    HW190944   7.905   6.396   3.464 -0.2553 -0.5787  1.7204
30122SOL    HW290945   8.021   6.343   3.547  2.4587 -0.6839 -1.9034
30123SOL     OW90946   3.945   9.946   0.510 -0.2003 -0.0224 -0.5439
30123SOL    HW190947   3.954   9.922   0.602 -0.2393 -0.8396 -0.7438
30123SOL    HW290948   4.005   9.887   0.464 -0.2278  0.3380 -1.0443
30124SOL     OW90949   1.955   1.155   0.213  0.0183 -0.2323 -0.0256
30124SOL    HW190950   2.009   1.176   0.288 -0.4461  1.8770 -0.2214
30124SOL    HW290951   1.960   1.233   0.157  0.7165 -1.8927 -2.4165
30125SOL     OW90952   7.925   6.297   9.905  0.2623 -0.1378 -0.1126
30125SOL    HW190953   7.868   6.340   9.842  1.4762  2.3326  0.3585
30125SOL    HW290954   7.877   6.304   9.988  0.3211 -0.0046 -0.0906
30126SOL     OW90955   7.897   4.169   8.858  0.0139  0.3777  0.0778
30126SOL    HW190956   7.861   4.247   8.817 -0.5412 -0.6417 -1.4896
30126SOL    HW290957   7.991   4.176   8.845 -0.0301  0.8141 -0.0130
30127SOL     OW90958   2.821   1.967   6.807  0.1024 -0.3947  0.5002
30127SOL    HW190959   2.836   1.994   6.898  0.9901  0.9354 -0.0031
30127SOL    HW290960   2.817   1.872   6.811 -0.0073 -0.3561  1.9541
30128SOL     OW90961   0.734   3.609   1.069 -0.5016  0.0194 -0.0560
30128SOL    HW190962   0.717   3.574   0.982  0.8136  0.1000 -0.3654
30128SOL    HW290963   0.813   3.662   1.059  0.6077 -1.2196  1.4663
30129SOL     OW90964   9.171   8.658   6.151  0.2246 -0.3261 -0.2286
30129SOL    HW190965   9.077   8.638   6.150  0.0291  0.5409 -1.0270
30129SOL    HW290966   9.176   8.747   6.184  0.7615 -0.3282 -0.2961
30130SOL     OW90967   7.505   4.969   5.350  0.1951  0.2884 -0.3677
30130SOL    HW190968   7.430   4.927   5.306 -1.2119  1.8316  0.4283
30130SOL    HW290969   7.493   4.947   5.442  1.3431 -0.2965 -0.3420
30131SOL     OW90970   8.026   7.600   8.894 -0.3553 -0.4293  0.3731
30131SOL    HW190971   7.975   7.658   8.951 -0.8853 -0.9115  0.3987
30131SOL    HW290972   7.966   7.577   8.824 -0.0323 -0.6692  0.1742
30132SOL     OW90973   6.921   6.947   6.178 -0.0688  0.0524  0.5207
30132SOL    HW190974   6.845   6.994   6.212  0.6696  0.2125  2.0282
30132SOL    HW290975   6.953   7.003   6.106 -0.5763  0.6685  0.7646
30133SOL     OW90976   6.954   3.792   2.138 -0.3558 -0.1399  0.1699
30133SOL    HW190977   7.010   3.857   2.180 -1.8321  1.6890 -0.5568
30133SOL    HW290978   6.893   3.766   2.207  0.4237 -1.0319  0.5469
30134SOL     OW90979   1.580   9.048   7.546 -0.3442  0.3947 -0.1729
30134SOL    HW190980   1.537   9.104   7.611  0.0491  0.6049 -0.0911
30134SOL    HW290981   1.601   9.107   7.474  0.1581  0.3717 -0.0460
30135SOL     OW90982   5.127   6.161   3.298  0.1151 -0.1322 -0.0555
30135SOL    HW190983   5.115   6.219   3.373  1.2092  0.3831 -0.2640
30135SOL    HW290984   5.174   6.214   3.233 -0.4437 -0.6991 -0.9446
30136SOL     OW90985   2.529   1.860   2.553 -0.2277 -0.5261 -0.2807
30136SOL    HW190986   2.457   1.901   2.504 -0.4284  0.1503  0.5542
30136SOL    HW290987   2.509   1.879   2.645  0.6037 -1.0151  0.0085
30137SOL     OW90988   1.199   4.488   1.889  0.3619 -0.2191 -0.5837
30137SOL    HW190989   1.228   4.519   1.803  0.7891 -1.1709 -0.7969
30137SOL    HW290990   1.116   4.533   1.904 -0.7070 -1.4826 -2.3780
30138SOL     OW90991   0.758   6.947   1.495  0.1069 -0.2524 -0.1038
30138SOL    HW190992   0.802   6.873   1.538  1.3290 -0.4934 -1.7136
30138SOL    HW290993   0.746   6.918   1.405 -2.2593  0.3170 -0.0403
30139SOL     OW90994   2.723   6.534   8.706 -0.1104 -0.0752  0.4329
30139SOL    HW190995   2.724   6.603   8.639 -0.9170 -1.4170 -1.0376
30139SOL    HW290996   2.692   6.457   8.659 -1.0023 -1.0049  2.4575
30140SOL     OW90997   1.586   1.281   1.748  0.2861  0.1038  0.0860
30140SOL    HW190998   1.527   1.356   1.755  0.4901  0.1619  1.5118
30140SOL    HW290999   1.673   1.321   1.737  0.2002  0.0307 -0.9838
30141SOL     OW91000   1.996   3.567   5.658  0.5776 -0.4410 -0.3482
30141SOL    HW191001   1.979   3.493   5.717  0.4688  0.0108  0.1966
30141SOL    HW291002   2.008   3.642   5.717  2.3503 -0.3248 -0.8104
30142SOL     OW91003   3.875   9.769   6.456  0.1811 -0.2125  0.3094
30142SOL    HW191004   3.829   9.755   6.540 -1.2696  0.0582 -0.4061
30142SOL    HW291005   3.808   9.805   6.398  1.6800  1.5318 -0.4016
30143SOL     OW91006   3.330   6.518   1.198  0.2228 -0.0511  0.4017
30143SOL    HW191007   3.297   6.588   1.254  2.6590  0.9424  0.7365
30143SOL    HW291008   3.368   6.454   1.259 -1.6565 -1.5753  0.0786
30144SOL     OW91009   1.952   3.597   6.958  0.5932 -0.3374 -0.8488
30144SOL    HW191010   1.998   3.581   7.040 -0.3752 -2.2263 -0.6112
30144SOL    HW291011   1.909   3.681   6.970  0.7909 -0.4004  0.4216
30145SOL     OW91012   0.274   2.296   9.674 -0.1143 -0.3762 -0.4563
30145SOL    HW191013   0.210   2.329   9.611  0.5497  0.4953 -0.6820
30145SOL    HW291014   0.221   2.256   9.743 -0.8760 -0.4308 -1.0686
30146SOL     OW91015   4.758   5.323   2.825 -0.2774 -0.8041  0.7690
30146SOL    HW191016   4.798   5.362   2.903  0.8423  1.4894 -0.8089
30146SOL    HW291017   4.676   5.372   2.814  0.6887  0.6065 -0.7098
30147SOL     OW91018   3.474   0.749   4.929 -0.3702  0.3705 -0.1099
30147SOL    HW191019   3.543   0.722   4.868  1.2592  0.9283  1.3851
30147SOL    HW291020   3.478   0.684   5.000 -0.6088  1.0502  0.5421
30148SOL     OW91021   1.612   3.861   6.992 -0.7579  0.3450 -0.7350
30148SOL    HW191022   1.591   3.768   6.993 -0.3304  0.2446  0.4500
30148SOL    HW291023   1.703   3.865   7.024 -1.2002  1.2521  0.4891
30149SOL     OW91024   2.766   6.882   7.075 -0.5448 -0.3052  0.6240
30149SOL    HW191025   2.673   6.897   7.058 -0.3046 -1.7493 -2.8200
30149SOL    HW291026   2.805   6.970   7.079 -1.4166  0.3747 -2.8882
30150SOL     OW91027   3.243   2.488   0.138 -0.6089 -0.1118 -0.6956
30150SOL    HW191028   3.217   2.517   0.051  1.5120 -0.1329 -1.3758
30150SOL    HW291029   3.179   2.420   0.161  0.0887 -1.7463 -3.2172
30151SOL     OW91030   6.756   2.535   2.147 -0.2606  0.2177 -0.2403
30151SOL    HW191031   6.702   2.583   2.083 -0.8034 -0.9764 -0.7154
30151SOL    HW291032   6.845   2.544   2.115 -0.3482  0.9429 -0.2953
30152SOL     OW91033   3.036   7.638   1.805 -0.0763  0.3524  0.1914
30152SOL    HW191034   2.947   7.605   1.823  0.4976 -0.9750  0.7918
30152SOL    HW291035   3.093   7.578   1.854  1.2806 -0.0874 -1.8155
30153SOL     OW91036   4.979   7.072   2.433 -0.7153  0.1437  0.3091
30153SOL    HW191037   4.903   7.044   2.382 -0.6937  0.7664 -0.0771
30153SOL    HW291038   5.009   7.152   2.390  1.0943 -0.8953 -0.4537
30154SOL     OW91039   1.553   1.626   9.147  0.1041  0.4835 -0.0189
30154SOL    HW191040   1.554   1.648   9.054  1.5653  1.0760  0.1090
30154SOL    HW291041   1.494   1.691   9.186 -0.0406  0.6169 -0.4507
30155SOL     OW91042   2.135   5.349   0.108  0.6995 -0.2724  0.0731
30155SOL    HW191043   2.059   5.328   0.163  0.9716 -0.2923  0.4402
30155SOL    HW291044   2.105   5.331   0.019  0.3650 -0.5595  0.2403
30156SOL     OW91045   0.802   3.912   0.908 -0.2249  0.0209  0.0476
30156SOL    HW191046   0.797   3.894   0.814  1.8577 -0.6720  0.0169
30156SOL    HW291047   0.887   3.877   0.935 -0.6734  0.4023  2.1614
30157SOL     OW91048   1.183   1.156   8.401 -0.0359  0.0900  0.1847
30157SOL    HW191049   1.124   1.152   8.326  0.6878 -1.6151 -0.3599
30157SOL    HW291050   1.198   1.249   8.416 -0.0228  0.4755 -1.9375
30158SOL     OW91051   1.070   4.598   1.556 -0.7009  0.2198 -0.3895
30158SOL    HW191052   1.094   4.588   1.464  1.5208  0.2012  0.1208
30158SOL    HW291053   1.151   4.628   1.598 -1.3256 -0.9130  1.7560
30159SOL     OW91054   2.277   8.897   9.712 -0.2330  0.0582 -0.3657
30159SOL    HW191055   2.366   8.897   9.676 -0.7683 -0.6475 -1.7974
30159SOL    HW291056   2.261   8.988   9.736  0.8553  0.2010 -0.0909
30160SOL     OW91057   2.405   3.630   1.768  0.0333 -0.1773 -0.5202
30160SOL    HW191058   2.335   3.578   1.807  0.4159 -0.7922 -0.6471
30160SOL    HW291059   2.363   3.712   1.743 -0.5182 -0.3244 -0.0928
30161SOL     OW91060   5.365   4.592   2.453 -0.0738 -0.0344 -0.0273
30161SOL    HW191061   5.346   4.535   2.527  1.1236  1.0683  1.1873
30161SOL    HW291062   5.454   4.568   2.426  0.7981  1.7703  1.0626
30162SOL     OW91063   6.800   4.377   3.460 -0.3379 -0.2371  0.3937
30162SOL    HW191064   6.887   4.343   3.441  0.3858  2.0279 -0.6446
30162SOL    HW291065   6.744   4.341   3.391 -0.1690 -1.3305  0.8031
30163SOL     OW91066   3.703   0.483   0.791  0.1233 -0.0445 -0.8059
30163SOL    HW191067   3.686   0.497   0.697 -0.9186  0.2239 -0.5845
30163SOL    HW291068   3.616   0.478   0.831  0.5582 -0.3925  0.1204
30164SOL     OW91069   5.843   9.009   5.108  0.0372 -0.4064 -0.1589
30164SOL    HW191070   5.795   9.086   5.077  0.4220  0.8998  2.2857
30164SOL    HW291071   5.798   8.982   5.187  2.4606  0.0568  1.5005
30165SOL     OW91072   3.397   1.166   7.980  0.1434 -0.0603 -0.0885
30165SOL    HW191073   3.421   1.242   7.927  0.4741  1.4196  2.0446
30165SOL    HW291074   3.480   1.127   8.006  0.1083  0.7094  1.2971
30166SOL     OW91075   0.367   9.814   5.256 -0.4717 -0.1840 -0.8461
30166SOL    HW191076   0.332   9.851   5.176 -0.2024  0.3334 -0.7302
30166SOL    HW291077   0.362   9.719   5.243 -0.2809 -0.1057 -1.5382
30167SOL     OW91078   4.902   5.450   8.815  0.0384  0.0266 -0.7163
30167SOL    HW191079   4.850   5.384   8.861  1.7938 -0.3139  0.8879
30167SOL    HW291080   4.870   5.534   8.848  0.0269 -0.1532 -0.2676
30168SOL     OW91081   7.867   0.716   7.852 -0.0955  0.5365  0.2025
30168SOL    HW191082   7.854   0.642   7.792 -1.9748  0.7179  0.3323
30168SOL    HW291083   7.934   0.769   7.810 -0.6210  0.1105 -1.2326
30169SOL     OW91084   4.201   2.531   7.981  0.1136  0.4691  0.5133
30169SOL    HW191085   4.243   2.611   7.949  4.8814 -1.4598  1.0594
30169SOL    HW291086   4.208   2.537   8.077 -0.4527 -0.1677  0.6058
30170SOL     OW91087   2.136   6.861   6.097  0.1369 -0.2124 -0.4208
30170SOL    HW191088   2.127   6.867   6.002  1.2809 -0.4628 -0.5538
30170SOL    HW291089   2.221   6.898   6.116 -1.4418  3.1087  0.9162
30171SOL     OW91090   3.991   3.546   2.832 -0.2191  0.3580  0.3910
30171SOL    HW191091   4.042   3.466   2.845 -0.6374  0.1932  1.0911
30171SOL    HW291092   3.936   3.553   2.911  0.1039  1.5521  0.5322
30172SOL     OW91093   5.649   8.837   1.751  0.0753  0.1504  0.1419
30172SOL    HW191094   5.680   8.747   1.761 -0.3461 -0.0278 -0.1566
30172SOL    HW291095   5.674   8.862   1.662 -3.3796 -1.1008 -1.3517
30173SOL     OW91096   3.457   4.091   4.627 -0.1782  0.0565  0.5247
30173SOL    HW191097   3.464   4.159   4.561 -3.0937 -0.7071 -0.7018
30173SOL    HW291098   3.388   4.121   4.686  0.1959 -0.7338  1.3993
30174SOL     OW91099   8.398   2.386   9.513  0.7812  0.5135 -0.3158
30174SOL    HW191100   8.492   2.390   9.531  0.6012  0.2514  0.7374
30174SOL    HW291101   8.376   2.293   9.518  0.1870  0.6949  1.0748
30175SOL     OW91102   8.764   0.210   7.039  0.6036  0.0170 -0.3518
30175SOL    HW191103   8.684   0.157   7.031  0.0373  0.8322 -0.1828
30175SOL    HW291104   8.802   0.209   6.951 -1.0268  1.8149 -1.1539
30176SOL     OW91105   0.538   9.949   2.337 -0.0083 -0.6294 -0.5359
30176SOL    HW191106   0.455   9.966   2.293 -1.0685 -0.4181  1.4399
30176SOL    HW291107   0.566   9.863   2.304 -0.3878 -0.1965 -2.0788
30177SOL     OW91108   5.487   7.161   1.888 -0.0067 -0.1674 -0.2500
30177SOL    HW191109   5.533   7.163   1.972  1.3637 -0.3295 -0.9645
30177SOL    HW291110   5.473   7.253   1.866 -0.7696 -0.1314  0.3572
30178SOL     OW91111   8.449   4.789   2.529 -0.8882  0.4996 -0.6583
30178SOL    HW191112   8.534   4.755   2.501 -0.5913  0.3028  0.4459
30178SOL    HW291113   8.400   4.802   2.447  0.0001  0.0899 -1.2671
30179SOL     OW91114   3.856   8.503   3.194 -0.1550  0.1893  0.1685
30179SOL    HW191115   3.821   8.459   3.116 -1.6826  1.1404  0.2815
30179SOL    HW291116   3.921   8.442   3.228 -1.5578 -1.5902 -0.1725
30180SOL     OW91117   8.462   5.467   8.684 -0.0049 -0.2374 -0.2299
30180SOL    HW191118   8.376   5.502   8.703 -0.3963 -0.6525 -1.1680
30180SOL    HW291119   8.483   5.499   8.596  1.2667  0.7274  0.3900
30181SOL     OW91120   2.788   0.841   6.271 -1.0465 -0.5946  0.4273
30181SOL    HW191121   2.696   0.868   6.270 -0.4911  1.5150  0.2421
30181SOL    HW291122   2.787   0.752   6.236 -2.9043 -0.2174 -0.6472
30182SOL     OW91123   8.030   6.660   0.542 -0.3831  0.2250  0.1734
30182SOL    HW191124   8.121   6.631   0.537 -0.6521 -0.6099 -0.2446
30182SOL    HW291125   8.025   6.735   0.484 -0.0964 -0.1336 -0.3252
30183SOL     OW91126   2.627   9.856   1.947  0.6491 -0.5973  0.4622
30183SOL    HW191127   2.635   9.878   2.039  2.7450 -1.7237  0.5931
30183SOL    HW291128   2.682   9.919   1.902  0.1962 -0.4987  0.0299
30184SOL     OW91129   1.619   7.687   6.050 -0.5753  0.9102 -0.2319
30184SOL    HW191130   1.567   7.619   6.005 -0.6792  0.7394  0.1436
30184SOL    HW291131   1.624   7.657   6.141  0.0208  1.0254 -0.2240
30185SOL     OW91132   8.375   5.732   8.425 -0.6665  0.4609 -0.3496
30185SOL    HW191133   8.321   5.745   8.502 -0.2791 -0.2373  0.0512
30185SOL    HW291134   8.464   5.724   8.459  0.1179  4.0574 -1.1552
30186SOL     OW91135   4.773   4.253   5.646  0.1215 -0.3966 -0.7521
30186SOL    HW191136   4.732   4.208   5.573 -1.2860  0.0112 -0.2498
30186SOL    HW291137   4.781   4.186   5.714 -0.0246 -0.3982 -0.7362
30187SOL     OW91138   0.205   2.660   6.986  0.0235  0.4505  0.1256
30187SOL    HW191139   0.221   2.748   6.953 -0.1747  0.7803  0.8785
30187SOL    HW291140   0.110   2.651   6.985  0.0508  0.1836 -0.1082
30188SOL     OW91141   9.726   2.198   0.884 -0.6828 -0.1052  0.1471
30188SOL    HW191142   9.721   2.268   0.950  0.2619 -0.6963  0.8545
30188SOL    HW291143   9.762   2.241   0.807 -0.0408  0.1803  0.6014
30189SOL     OW91144   8.403   3.478   2.642  0.4698 -0.1313 -0.4235
30189SOL    HW191145   8.459   3.541   2.596  0.1937 -1.1251 -2.1816
30189SOL    HW291146   8.415   3.499   2.735  1.1828  1.8200 -0.9185
30190SOL     OW91147   8.962   2.689   0.111  0.4299  0.2097  0.4327
30190SOL    HW191148   8.913   2.770   0.126  0.6580  0.2216  1.1897
30190SOL    HW291149   9.026   2.687   0.183  0.6126 -0.5013  0.2553
30191SOL     OW91150   3.913   0.623   3.074  0.0338 -0.0255 -0.6985
30191SOL    HW191151   3.995   0.669   3.089  1.6856 -2.8483 -0.4492
30191SOL    HW291152   3.863   0.637   3.155  1.0513  0.1958 -0.0916
30192SOL     OW91153   5.029   1.060   6.078  0.4301  0.1658 -0.3051
30192SOL    HW191154   4.945   1.030   6.043  0.9044  1.1000 -2.4408
30192SOL    HW291155   5.084   0.983   6.078  0.0114 -0.1372 -0.3642
30193SOL     OW91156   5.815   5.420   2.875  0.1798  0.4701  0.4105
30193SOL    HW191157   5.854   5.484   2.816 -1.8977  2.2469  0.8511
30193SOL    HW291158   5.861   5.433   2.958 -0.5988  1.8652  0.6601
30194SOL     OW91159   0.470   6.668   8.674 -0.3323 -0.1446  0.0305
30194SOL    HW191160   0.397   6.633   8.623 -0.8673 -0.2648  0.8710
30194SOL    HW291161   0.530   6.704   8.608 -0.5237 -1.2105 -0.7470
30195SOL     OW91162   6.729   8.800   9.063  0.9544 -0.0446  0.0202
30195SOL    HW191163   6.743   8.728   9.001 -2.4007 -1.8479  1.1042
30195SOL    HW291164   6.784   8.779   9.138 -0.3232 -1.8249  0.5079
30196SOL     OW91165   1.208   5.414   5.987 -0.7474  0.4874  0.3191
30196SOL    HW191166   1.255   5.429   6.068  1.2178  0.0669 -0.6802
30196SOL    HW291167   1.181   5.322   5.991  0.5418  0.0702 -0.0452
30197SOL     OW91168   3.480   6.469   5.226 -0.2063 -0.0373 -0.0334
30197SOL    HW191169   3.389   6.499   5.228 -0.8109 -1.7156 -0.3343
30197SOL    HW291170   3.531   6.547   5.208 -1.7927  0.5644 -2.4447
30198SOL     OW91171   8.073   9.459   6.100  0.0615 -0.5401 -0.4101
30198SOL    HW191172   8.037   9.540   6.135  0.9628  0.2637 -1.2734
30198SOL    HW291173   8.088   9.404   6.177 -1.0187 -0.0911  0.1356
30199SOL     OW91174   8.716   2.656   7.799  0.2441 -0.7180  0.5956
30199SOL    HW191175   8.714   2.621   7.888  2.2863 -0.9711  0.5886
30199SOL    HW291176   8.809   2.667   7.779 -0.1911  0.3070 -1.1417
30200SOL     OW91177   1.964   2.311   6.324 -0.1204  0.5505  0.9121
30200SOL    HW191178   1.977   2.354   6.239 -1.8830  0.0283  0.3231
30200SOL    HW291179   2.051   2.277   6.348  0.1816 -0.4735 -1.3641
30201SOL     OW91180   4.181   0.539   9.702 -0.0765 -0.7858  0.0358
30201SOL    HW191181   4.145   0.546   9.614  0.6553  1.7125 -0.1658
30201SOL    HW291182   4.127   0.599   9.754  1.2072 -0.1071  0.6235
30202SOL     OW91183   6.409   4.103   9.070 -0.3048 -0.1331 -0.2658
30202SOL    HW191184   6.340   4.167   9.089  0.7060  0.3299  2.2641
30202SOL    HW291185   6.480   4.126   9.131  0.5434 -2.9779 -0.0487
30203SOL     OW91186   8.679   8.139   5.615 -0.7017  0.0798 -0.3802
30203SOL    HW191187   8.702   8.097   5.532 -0.2804  1.0718 -0.7828
30203SOL    HW291188   8.702   8.075   5.681  0.2834 -0.1857 -0.9611
30204SOL     OW91189   4.244   3.801   7.435 -0.1785  0.3331 -0.3961
30204SOL    HW191190   4.177   3.814   7.368 -0.2211 -2.0655 -0.8953
30204SOL    HW291191   4.316   3.758   7.390  0.0822 -0.6784  0.9082
30205SOL     OW91192   4.282   7.144   4.069 -0.0578  0.5407 -0.0675
30205SOL    HW191193   4.319   7.198   3.999 -0.5812  0.1497 -0.6536
30205SOL    HW291194   4.288   7.054   4.036 -3.2526  0.5871 -1.0366
30206SOL     OW91195   9.808   9.970   1.882  0.8360  0.3155 -0.0407
30206SOL    HW191196   9.805   9.916   1.803 -1.3638  1.9237 -1.1377
30206SOL    HW291197   9.737   9.936   1.937  0.6958  0.8662  0.1198
30207SOL     OW91198   0.061   3.036   4.827 -0.0424 -0.3747  0.0224
30207SOL    HW191199   0.084   3.125   4.800  1.7495 -0.4652  1.0597
30207SOL    HW291200   0.099   3.028   4.915 -1.4262 -1.6980  0.5381
30208SOL     OW91201   7.607   0.128   5.401  0.5001 -0.1877 -0.5659
30208SOL    HW191202   7.589   0.037   5.377 -1.0276  0.0933 -0.6040
30208SOL    HW291203   7.523   0.161   5.434  0.8868  1.3395 -1.0170
30209SOL     OW91204   7.876   3.641   2.872  0.7329  0.1337  0.2301
30209SOL    HW191205   7.943   3.706   2.894  0.0363  1.7235 -1.9470
30209SOL    HW291206   7.833   3.677   2.794 -0.9699 -2.0616  0.0640
30210SOL     OW91207   0.188   5.005   5.737  0.2840  0.0214 -0.6899
30210SOL    HW191208   0.223   5.087   5.703  1.6184 -0.1029  0.3398
30210SOL    HW291209   0.140   5.029   5.816  2.3531 -0.3640  0.7562
30211SOL     OW91210   2.661   1.353   3.184 -0.1131 -0.2572 -0.4598
30211SOL    HW191211   2.666   1.263   3.153  2.6982 -0.4223  0.2265
30211SOL    HW291212   2.678   1.406   3.107  2.0367 -0.5060 -0.2149
30212SOL     OW91213   6.235   1.390   5.359 -0.0881  0.6750 -0.9662
30212SOL    HW191214   6.172   1.442   5.309 -0.2077 -0.5310 -2.1135
30212SOL    HW291215   6.181   1.326   5.406  0.1008  1.2435  0.0679
30213SOL     OW91216   6.917   1.467   9.508 -0.4412 -0.4872 -0.6796
30213SOL    HW191217   6.859   1.539   9.533  0.1460 -0.0874 -0.4532
30213SOL    HW291218   6.891   1.395   9.566  0.8369  0.3935  1.0982
30214SOL     OW91219   9.985   3.107   2.263  0.0380  0.0657 -0.1006
30214SOL    HW191220   9.948   3.193   2.239 -1.4858 -0.1524  1.2802
30214SOL    HW291221   9.942   3.085   2.345  1.7613 -1.2295  0.4982
30215SOL     OW91222   7.935   0.175   3.993  0.0878  0.2665  0.0048
30215SOL    HW191223   7.965   0.103   4.048  0.0248  0.1770 -0.0765
30215SOL    HW291224   7.842   0.183   4.014 -0.0126  0.0099 -0.3350
30216SOL     OW91225   1.696   6.657   0.603  0.2048 -0.0535 -0.4435
30216SOL    HW191226   1.690   6.712   0.525  0.3300  2.3030  1.1219
30216SOL    HW291227   1.738   6.712   0.668 -3.1224 -0.5992  2.4246
30217SOL     OW91228   1.959   3.681   1.153 -0.0294  0.0328 -0.0191
30217SOL    HW191229   1.976   3.676   1.059 -0.3179 -1.4040 -0.0237
30217SOL    HW291230   1.958   3.590   1.182 -1.7333  0.3461  1.0583
30218SOL     OW91231   5.974   7.747   0.736 -0.3494  0.0086 -0.3075
30218SOL    HW191232   5.884   7.754   0.768 -0.7928 -1.1152 -1.2361
30218SOL    HW291233   5.984   7.819   0.674 -0.6023  0.1274 -0.2113
30219SOL     OW91234   0.627   7.494   1.569  0.2590 -0.3657 -0.0292
30219SOL    HW191235   0.545   7.541   1.562  0.6401  0.1299 -1.4238
30219SOL    HW291236   0.695   7.561   1.568  0.6964 -0.7187  1.7675
30220SOL     OW91237   5.559   7.167   2.394  0.3186  0.2779 -0.5897
30220SOL    HW191238   5.475   7.133   2.426 -0.5642  1.5145 -1.4568
30220SOL    HW291239   5.622   7.144   2.462 -0.6242 -1.0996 -0.1281
30221SOL     OW91240   9.319   3.740   9.675  0.3461  0.2329 -0.4168
30221SOL    HW191241   9.231   3.747   9.638  0.6110  0.0992 -1.0896
30221SOL    HW291242   9.345   3.650   9.656 -0.4842 -0.7003  2.3366
30222SOL     OW91243   8.038   4.678   6.926 -0.2586  0.1211  0.4968
30222SOL    HW191244   8.129   4.681   6.897 -0.6582 -0.8668 -0.9965
30222SOL    HW291245   8.011   4.770   6.930  0.5165  0.3785 -0.0013
30223SOL     OW91246   3.027   8.188   5.385 -0.2312 -0.0622 -0.3122
30223SOL    HW191247   2.934   8.210   5.390 -0.6234 -1.7998  2.4432
30223SOL    HW291248   3.073   8.269   5.408 -1.1886  0.2197  0.6836
30224SOL     OW91249   0.016   3.981   1.402  0.0402  0.2572  0.0712
30224SOL    HW191250   0.044   3.931   1.325  0.7319  1.9068 -0.8124
30224SOL    HW291251  -0.049   3.925   1.444 -1.1036 -0.3321 -2.2670
30225SOL     OW91252   1.157   5.934   0.288 -0.2430 -0.2113  0.4687
30225SOL    HW191253   1.186   5.882   0.213 -0.7243 -0.1352  0.2284
30225SOL    HW291254   1.111   6.008   0.250  2.2151  1.5595  0.7103
30226SOL     OW91255   8.345   2.385   1.698 -0.0470  0.2336  0.3412
30226SOL    HW191256   8.341   2.347   1.610 -1.5584 -0.2807  0.5939
30226SOL    HW291257   8.288   2.329   1.751  1.7723 -0.2008  1.9565
30227SOL     OW91258   6.033   5.760   5.263  0.5690 -0.2299 -0.0948
30227SOL    HW191259   6.081   5.678   5.248  1.2396 -0.1379  1.3818
30227SOL    HW291260   6.095   5.829   5.241  0.1490 -0.1096 -0.9212
30228SOL     OW91261   7.491   4.201   7.440  0.3169  0.1798  0.4251
30228SOL    HW191262   7.450   4.250   7.511 -1.3022  0.8359 -0.8796
30228SOL    HW291263   7.516   4.269   7.376  1.8777 -0.3745  0.3905
30229SOL     OW91264   9.958   5.257   4.115  0.0664 -0.2016  0.5653
30229SOL    HW191265  10.053   5.257   4.102 -0.0736 -0.0610 -0.6694
30229SOL    HW291266   9.923   5.287   4.030 -1.0903 -0.5840  0.8898
30230SOL     OW91267   0.207   7.360   2.062 -0.1421  0.1124  0.1224
30230SOL    HW191268   0.223   7.444   2.105  0.5077 -0.0975  0.3044
30230SOL    HW291269   0.208   7.380   1.968 -2.2282  0.6862  0.1785
30231SOL     OW91270   9.607   3.779   9.726  0.0002  0.4759 -0.1465
30231SOL    HW191271   9.513   3.778   9.712 -0.0636  0.9703  0.2492
30231SOL    HW291272   9.645   3.789   9.639 -0.2827 -0.5937 -0.4055
30232SOL     OW91273   9.561   5.088   4.793  0.2210 -0.7547 -0.0875
30232SOL    HW191274   9.595   5.065   4.707 -0.3487 -1.2290 -0.1880
30232SOL    HW291275   9.621   5.155   4.825  0.2710 -0.3587 -0.9753
30233SOL     OW91276   1.235   9.776   1.387  0.1108  0.6330  0.3400
30233SOL    HW191277   1.287   9.788   1.307 -0.3344 -0.7393 -0.1890
30233SOL    HW291278   1.202   9.863   1.408  0.4962  1.0683 -0.7942
30234SOL     OW91279   1.194   0.549   5.443  0.0284 -0.0559  0.2549
30234SOL    HW191280   1.189   0.617   5.511  0.5776 -0.2002  0.4510
30234SOL    HW291281   1.230   0.473   5.488 -0.7407 -0.5372  0.0716
30235SOL     OW91282   7.497   4.059   9.829 -0.1158  0.1640 -0.5045
30235SOL    HW191283   7.587   4.066   9.860 -0.6599 -0.5422  1.3725
30235SOL    HW291284   7.463   3.981   9.872 -1.9270  0.9872 -0.3523
30236SOL     OW91285   0.762   6.230   4.848  0.1979 -0.1632 -0.1693
30236SOL    HW191286   0.759   6.136   4.830 -0.1923  0.2085 -2.3427
30236SOL    HW291287   0.693   6.245   4.913 -0.8531 -1.1579 -1.0213
30237SOL     OW91288   9.762   2.334   9.455 -0.2847 -0.5949  0.2759
30237SOL    HW191289   9.718   2.254   9.424  0.6499 -0.7946 -0.6020
30237SOL    HW291290   9.692   2.387   9.493 -1.4083 -0.6531 -1.5850
30238SOL     OW91291   6.494   0.557   5.937 -0.0554 -0.6341 -0.4639
30238SOL    HW191292   6.478   0.561   5.842 -0.7764 -0.2431 -0.3321
30238SOL    HW291293   6.489   0.648   5.966 -0.8785 -0.8489  0.1082
30239SOL     OW91294   3.991   4.619   0.231  0.0992 -0.3624  0.3700
30239SOL    HW191295   3.909   4.579   0.201 -1.3069  1.0463  2.0810
30239SOL    HW291296   3.976   4.636   0.324  2.3661 -0.0691  0.7218
30240SOL     OW91297   0.967   1.885   4.369  0.2007 -0.4216 -1.0229
30240SOL    HW191298   0.974   1.920   4.281 -1.5366 -0.5365 -1.2407
30240SOL    HW291299   0.919   1.951   4.418  0.3924 -0.7441 -0.3782
30241SOL     OW91300   9.575   3.751   0.680  0.2781  0.2010  0.3141
30241SOL    HW191301   9.596   3.839   0.712 -1.1951  1.0287 -0.8843
30241SOL    HW291302   9.480   3.746   0.684  0.2659 -0.8690 -0.8601
30242SOL     OW91303   7.812   7.335   2.719 -0.0359  0.4635  0.5680
30242SOL    HW191304   7.862   7.266   2.764 -1.2932 -1.0113 -0.1918
30242SOL    HW291305   7.725   7.296   2.705  0.2273  0.8198 -3.0240
30243SOL     OW91306   5.240   4.471   1.491 -0.2424 -0.0553  0.8173
30243SOL    HW191307   5.218   4.550   1.541 -0.0942 -0.5874  1.7341
30243SOL    HW291308   5.239   4.401   1.555 -0.8797 -0.8989 -0.0857
30244SOL     OW91309   6.328   1.462   0.479 -0.2153 -0.0251  0.5852
30244SOL    HW191310   6.311   1.551   0.508 -1.5598  0.0334 -0.2739
30244SOL    HW291311   6.279   1.407   0.541 -1.2647 -0.0180 -0.2070
30245SOL     OW91312   7.121   2.132   6.172 -0.5400 -0.6833  0.0040
30245SOL    HW191313   7.162   2.135   6.085 -2.5054 -3.0346 -1.1218
30245SOL    HW291314   7.099   2.223   6.191 -0.1510 -0.1089 -2.0092
30246SOL     OW91315   7.410   1.663   5.974  0.6954 -0.6364 -0.5838
30246SOL    HW191316   7.489   1.694   6.018 -0.0908 -1.0837  1.2162
30246SOL    HW291317   7.351   1.637   6.045 -1.5633  0.8122 -1.8065
30247SOL     OW91318   2.908   0.483   6.580 -0.2118 -0.3628 -0.4675
30247SOL    HW191319   2.882   0.403   6.536  0.0633  0.0260 -1.3721
30247SOL    HW291320   2.863   0.553   6.531  1.0771  0.1684 -0.9484
30248SOL     OW91321   2.030   7.438   7.693  0.1234 -0.0123 -0.0112
30248SOL    HW191322   2.102   7.407   7.746  0.3287 -0.3882 -0.5021
30248SOL    HW291323   1.952   7.398   7.731 -0.0132  1.4349  1.3424
30249SOL     OW91324   6.656   5.799   3.470 -0.4145 -0.0397  0.3136
30249SOL    HW191325   6.637   5.891   3.485  0.6535  0.0841  1.0117
30249SOL    HW291326   6.588   5.752   3.519  0.0674  0.3867  1.4070
30250SOL     OW91327   8.507   5.100   6.826 -0.3087  0.2388 -0.2444
30250SOL    HW191328   8.520   5.174   6.885 -0.6174  0.5283 -0.5319
30250SOL    HW291329   8.535   5.023   6.876 -1.9195  0.2887  0.8380
30251SOL     OW91330   4.847   5.955   8.390  0.1930  0.1710  0.1445
30251SOL    HW191331   4.794   5.876   8.379  0.2939  0.1545 -0.2581
30251SOL    HW291332   4.795   6.025   8.351  0.5605  0.1135 -0.4697
30252SOL     OW91333   2.439   2.652   0.050  0.1607  0.8939 -0.4520
30252SOL    HW191334   2.377   2.585   0.079  0.3485  1.8797  2.5313
30252SOL    HW291335   2.462   2.626  -0.040 -0.6350 -2.3486  0.1601
30253SOL     OW91336   9.373   8.474   4.104 -0.3561 -0.3305  0.0166
30253SOL    HW191337   9.303   8.480   4.169  1.0168 -1.6727  1.7193
30253SOL    HW291338   9.356   8.392   4.057  0.9745 -1.6713  1.6983
30254SOL     OW91339   1.394   1.055   8.228 -0.2188 -0.0540 -0.2676
30254SOL    HW191340   1.321   1.055   8.167  0.6878 -0.7347 -1.3942
30254SOL    HW291341   1.354   1.062   8.315 -1.6623 -1.3306 -0.8037
30255SOL     OW91342   4.374   8.707   2.707  1.0316 -0.3442  0.0487
30255SOL    HW191343   4.418   8.709   2.792  0.7048  0.5420  0.2137
30255SOL    HW291344   4.298   8.764   2.719  1.1949  0.0960 -0.9452
30256SOL     OW91345   4.358   5.187   9.821  0.3896  0.2701  0.3627
30256SOL    HW191346   4.422   5.229   9.878  1.3823  1.0520 -1.2697
30256SOL    HW291347   4.408   5.122   9.773 -0.3451 -0.0821  0.0591
30257SOL     OW91348   9.554   9.106   6.966 -0.4641 -0.5225  0.1714
30257SOL    HW191349   9.466   9.086   6.996 -0.8772 -1.0910 -1.3524
30257SOL    HW291350   9.543   9.141   6.878  0.7617  0.4479  0.3655
30258SOL     OW91351   0.988   7.268   4.234  0.6251  0.4065  0.0785
30258SOL    HW191352   1.077   7.252   4.201  0.6843  1.6870 -0.4454
30258SOL    HW291353   0.993   7.355   4.273  0.6721 -1.1648  3.9755
30259SOL     OW91354   0.246   4.203   5.587 -0.0307 -0.4677 -0.3401
30259SOL    HW191355   0.193   4.230   5.512  1.1039 -2.1540 -1.8429
30259SOL    HW291356   0.304   4.277   5.604 -1.2841  0.4934 -0.1540
30260SOL     OW91357   4.117   3.103   6.759 -0.1668  0.0761 -0.5453
30260SOL    HW191358   4.208   3.085   6.785 -0.9277 -2.5094  0.7344
30260SOL    HW291359   4.086   3.168   6.822  0.4302 -0.0062 -0.1572
30261SOL     OW91360   5.921   9.283   7.848 -0.0913  0.2558  0.2244
30261SOL    HW191361   5.854   9.352   7.845 -0.3910  0.0976  2.1369
30261SOL    HW291362   6.000   9.328   7.878  0.0979  0.0168  0.0905
30262SOL     OW91363   6.115   9.010   3.936  0.0554  0.0180  0.1977
30262SOL    HW191364   6.069   8.927   3.949  1.8555 -1.3777 -1.5747
30262SOL    HW291365   6.046   9.073   3.915 -1.2054 -1.5717 -0.6713
30263SOL     OW91366   6.284   3.925   4.435 -0.0363 -0.2371 -0.5072
30263SOL    HW191367   6.326   3.915   4.349 -2.4276  1.7556 -2.0146
30263SOL    HW291368   6.191   3.908   4.418 -0.5532  0.1055  1.7410
30264SOL     OW91369   5.177   1.576   2.163  0.1160  0.5774  0.0195
30264SOL    HW191370   5.223   1.556   2.244  0.7388 -1.5336 -0.7960
30264SOL    HW291371   5.237   1.632   2.114  1.2008 -0.9126 -0.3947
30265SOL     OW91372   3.414   5.509   0.701  0.3851 -0.0554  0.8202
30265SOL    HW191373   3.426   5.560   0.621 -0.1705 -0.5572  0.4020
30265SOL    HW291374   3.338   5.453   0.682 -0.1238  0.2446  1.9133
30266SOL     OW91375   2.551   3.207   2.366  0.3172 -0.5710  0.4240
30266SOL    HW191376   2.566   3.159   2.284  0.3052 -0.6008  0.4390
30266SOL    HW291377   2.472   3.166   2.403 -1.6246  1.5111 -1.1196
30267SOL     OW91378   1.280   8.694   8.524 -0.7131  0.3729 -0.2248
30267SOL    HW191379   1.214   8.649   8.472  1.2055 -1.9983 -0.7395
30267SOL    HW291380   1.283   8.646   8.607  0.6594  0.1489 -0.3852
30268SOL     OW91381   5.699   3.731   4.048 -0.2505  0.3007  0.5315
30268SOL    HW191382   5.753   3.746   3.970  0.1735  0.2225  0.8099
30268SOL    HW291383   5.756   3.753   4.121 -0.3529 -0.5044  0.8580
30269SOL     OW91384   5.666   4.766   8.426 -0.2363  0.1201 -0.2268
30269SOL    HW191385   5.589   4.710   8.433 -0.5769  0.7279  1.2164
30269SOL    HW291386   5.633   4.854   8.440  0.6631  0.4311 -0.0245
30270SOL     OW91387   6.684   8.737   2.845 -0.2184 -0.1095 -0.9416
30270SOL    HW191388   6.621   8.807   2.864  0.9150  0.6230  0.3214
30270SOL    HW291389   6.630   8.663   2.819 -1.5928  0.5766 -0.1797
30271SOL     OW91390   0.012   0.037   7.614  0.0456 -0.5468 -0.2143
30271SOL    HW191391   0.005  -0.007   7.529  2.3800  0.0320 -0.7742
30271SOL    HW291392   0.099   0.013   7.646  0.0099  0.9031  1.0535
30272SOL     OW91393   7.525   4.004   0.381  1.0174  0.1087  0.2824
30272SOL    HW191394   7.468   3.962   0.446  0.9108  0.4522  0.4125
30272SOL    HW291395   7.592   3.938   0.363  1.7067  0.4005  1.5858
30273SOL     OW91396   3.298   6.603   1.951 -0.3158  0.2595  0.2343
30273SOL    HW191397   3.313   6.624   2.043  1.8930 -0.9471  0.2038
30273SOL    HW291398   3.382   6.571   1.919 -1.2472 -0.1563 -1.9990
30274SOL     OW91399   1.577   9.554   7.393  0.0047 -0.6729  0.0112
30274SOL    HW191400   1.604   9.587   7.307 -0.6162 -1.6550 -0.5792
30274SOL    HW291401   1.658   9.549   7.443  0.4844 -0.7563 -0.7552
30275SOL     OW91402   5.898   8.154   7.326  0.5181 -0.3072  0.0878
30275SOL    HW191403   5.807   8.127   7.316  0.7430 -1.0712  0.0586
30275SOL    HW291404   5.939   8.082   7.373  1.1140  0.0287  0.0868
30276SOL     OW91405   7.196   6.816   9.484  0.3849 -0.0983 -0.2522
30276SOL    HW191406   7.116   6.808   9.431  0.1965  0.3859 -0.0523
30276SOL    HW291407   7.235   6.729   9.483 -0.0884 -0.3100 -0.4473
30277SOL     OW91408   0.764   8.483   4.066 -0.2882 -0.5711  0.0241
30277SOL    HW191409   0.788   8.495   3.975  1.3187 -0.2845  0.4654
30277SOL    HW291410   0.767   8.388   4.079 -2.3287 -0.7844 -0.6514
30278SOL     OW91411   4.915   1.416   1.320 -0.1577 -0.4767  0.1809
30278SOL    HW191412   4.835   1.439   1.367 -0.8506 -0.0126 -1.1526
30278SOL    HW291413   4.887   1.412   1.228  0.7008 -3.1564 -0.0546
30279SOL     OW91414   8.462   4.747   3.928 -0.1939  0.4079  0.1112
30279SOL    HW191415   8.429   4.679   3.987  1.4119  0.1873  0.8011
30279SOL    HW291416   8.464   4.704   3.842 -1.0458  0.2304  0.1666
30280SOL     OW91417   6.335   2.948   2.520  0.1797 -0.0009 -0.0505
30280SOL    HW191418   6.396   3.012   2.558  0.3334 -0.6281  0.7901
30280SOL    HW291419   6.356   2.866   2.565 -0.9760 -0.3277 -0.0966
30281SOL     OW91420   0.223   9.790   9.972 -0.0367 -0.8783 -0.7278
30281SOL    HW191421   0.232   9.701   9.937 -0.3035 -1.0111 -0.4557
30281SOL    HW291422   0.307   9.832   9.951 -1.1304 -0.0707 -3.9947
30282SOL     OW91423   6.755   3.564   6.638  0.3970  0.3917 -0.3667
30282SOL    HW191424   6.700   3.562   6.560  0.6958  0.7856 -0.5921
30282SOL    HW291425   6.697   3.538   6.709 -0.0575  0.7211 -0.6147
30283SOL     OW91426   3.383   8.359   5.636 -0.4880  0.0945 -1.0573
30283SOL    HW191427   3.312   8.393   5.580 -0.3553  0.5159 -0.9768
30283SOL    HW291428   3.416   8.283   5.590 -0.4922  0.3405 -1.4726
30284SOL     OW91429   6.491   5.948   7.800  0.3944  0.3770  0.0232
30284SOL    HW191430   6.576   5.909   7.782  0.6777  1.3362 -0.8228
30284SOL    HW291431   6.476   6.008   7.727 -1.5906 -0.6883 -0.5306
30285SOL     OW91432   9.054   5.419   2.734  0.0420  0.1308 -0.0015
30285SOL    HW191433   8.996   5.350   2.701 -1.6875  0.5728  1.8840
30285SOL    HW291434   9.139   5.376   2.742 -1.1218 -2.1251  1.8392
30286SOL     OW91435   1.811   8.851   6.870  0.4133 -0.1476  0.0608
30286SOL    HW191436   1.802   8.757   6.856 -0.9005 -0.0021 -0.2274
30286SOL    HW291437   1.823   8.860   6.964 -0.1926 -0.5674  0.1864
30287SOL     OW91438   1.277   9.009   6.314  0.0457  0.3314  0.1209
30287SOL    HW191439   1.263   8.915   6.317 -1.7458  0.5901  1.3927
30287SOL    HW291440   1.368   9.021   6.341  0.1735 -1.0049  0.3170
30288SOL     OW91441   3.813   6.073   5.120 -0.0212 -0.2540 -0.3338
30288SOL    HW191442   3.834   6.070   5.026 -0.6991 -0.9659 -0.4772
30288SOL    HW291443   3.737   6.016   5.129  0.3224 -0.5709  0.7278
30289SOL     OW91444   1.349   8.389   6.053 -0.3365 -0.0442  0.7253
30289SOL    HW191445   1.429   8.350   6.019 -0.4860 -0.8613  1.2920
30289SOL    HW291446   1.304   8.423   5.975  0.0990 -0.4367  0.2963
30290SOL     OW91447   5.155   8.884   8.593 -0.8945  0.8309 -0.1210
30290SOL    HW191448   5.229   8.908   8.537  0.1882 -0.4901  0.7003
30290SOL    HW291449   5.097   8.833   8.536 -0.0206 -0.1110 -0.1889
30291SOL     OW91450   5.475   4.480   8.165  0.1137  0.2866  0.4427
30291SOL    HW191451   5.415   4.492   8.092  0.8303 -1.7176 -0.5596
30291SOL    HW291452   5.553   4.440   8.126  0.7738 -0.2485  2.1940
30292SOL     OW91453   1.038   5.150   6.008 -0.4384  0.1614  0.2421
30292SOL    HW191454   1.038   5.079   6.073  1.4546  0.3890  0.5432
30292SOL    HW291455   1.005   5.109   5.928 -2.5186 -0.2046  1.2352
30293SOL     OW91456   8.276   9.659   4.278 -0.4708 -0.2580  0.1137
30293SOL    HW191457   8.330   9.584   4.257 -0.4105  0.2299 -1.6377
30293SOL    HW291458   8.309   9.729   4.222  0.0751  1.3841  2.3192
30294SOL     OW91459   2.913   4.455   8.506 -0.3226 -0.4105  0.7166
30294SOL    HW191460   2.866   4.538   8.506 -0.4054 -0.4565  0.5167
30294SOL    HW291461   2.915   4.428   8.414 -0.9100 -0.9811  0.8625
30295SOL     OW91462   9.603   6.103   6.072  0.3326  0.0081  0.5270
30295SOL    HW191463   9.550   6.182   6.072  0.1289 -0.0794  2.4914
30295SOL    HW291464   9.540   6.031   6.070  0.4573 -0.0979  0.3527
30296SOL     OW91465   4.194   2.407   4.277  0.2199  0.0383 -0.4680
30296SOL    HW191466   4.226   2.441   4.193 -1.2613 -1.2568 -1.6247
30296SOL    HW291467   4.107   2.447   4.287  0.1266 -0.3108  0.1536
30297SOL     OW91468   3.683   6.243   2.333  0.4028  0.0281 -0.3788
30297SOL    HW191469   3.701   6.260   2.425  1.1636 -0.8918 -0.3478
30297SOL    HW291470   3.611   6.302   2.311  1.8461  2.1101  0.1416
30298SOL     OW91471   2.094   3.638   6.521 -0.7429  0.3301 -0.4337
30298SOL    HW191472   2.061   3.706   6.578 -0.9988  0.9980 -1.3553
30298SOL    HW291473   2.173   3.605   6.565  1.2530  3.3961 -1.4434
30299SOL     OW91474   7.247   7.427   2.395  0.5242  0.1843 -0.2333
30299SOL    HW191475   7.235   7.433   2.300 -1.2012 -3.1954 -0.3789
30299SOL    HW291476   7.173   7.474   2.432  1.0976  1.3473 -0.5128
30300SOL     OW91477   4.855   1.144   9.220  0.0419  0.3358  0.1604
30300SOL    HW191478   4.920   1.180   9.160 -0.2761 -0.2767 -0.5683
30300SOL    HW291479   4.899   1.068   9.259  0.1773  0.6171  0.5615
30301SOL     OW91480   6.528   2.859   7.423  0.0134  0.2354 -0.4678
30301SOL    HW191481   6.542   2.953   7.420  1.5860  0.0536  0.1370
30301SOL    HW291482   6.475   2.844   7.501 -1.2960  0.6998 -1.2342
30302SOL     OW91483   8.526   9.428   7.387 -0.0972 -0.2130 -0.0079
30302SOL    HW191484   8.560   9.443   7.299  0.8590  1.7314  0.6161
30302SOL    HW291485   8.444   9.479   7.390  0.6275  0.9728  0.6290
30303SOL     OW91486   3.729   8.674   4.461  0.4803 -0.5237  0.0919
30303SOL    HW191487   3.664   8.606   4.444 -0.4562  0.8263 -2.1534
30303SOL    HW291488   3.680   8.744   4.505  0.7387 -0.0869 -0.3012
30304SOL     OW91489   8.232   6.140   2.463 -0.3594  0.1993 -0.2369
30304SOL    HW191490   8.229   6.136   2.368 -0.2915  0.4910 -0.2533
30304SOL    HW291491   8.324   6.124   2.484 -0.0673  1.6682 -0.3080
30305SOL     OW91492   5.455   0.657   8.591 -0.3084 -0.5652  0.8664
30305SOL    HW191493   5.545   0.688   8.597 -0.5461  0.3609 -0.0310
30305SOL    HW291494   5.419   0.703   8.515 -1.4635 -1.1076  1.0648
30306SOL     OW91495   5.803   4.682   1.710 -0.0897  0.2744  0.2436
30306SOL    HW191496   5.717   4.646   1.732 -0.2708 -0.4736 -1.5122
30306SOL    HW291497   5.787   4.776   1.699 -0.6714  0.1554  0.0261
30307SOL     OW91498   5.971   4.259   8.400 -0.3674  0.4334  0.4967
30307SOL    HW191499   6.020   4.312   8.464  0.8791  0.5593 -0.5285
30307SOL    HW291500   5.880   4.269   8.426  0.1489 -0.1585  2.7287
30308SOL     OW91501   7.526   7.073   8.953  0.0537  0.3966 -0.0092
30308SOL    HW191502   7.616   7.054   8.981 -0.0315  0.2603  0.1768
30308SOL    HW291503   7.486   7.114   9.030 -0.5858 -1.2193  0.5627
30309SOL     OW91504   7.420   2.038   7.123 -0.4806  0.0016 -0.2724
30309SOL    HW191505   7.437   1.947   7.149  1.2698  0.1342 -0.8718
30309SOL    HW291506   7.373   2.075   7.198  2.2753 -0.3150  1.7612
30310SOL     OW91507   8.220   3.503   7.064 -0.2240 -0.0870  0.3434
30310SOL    HW191508   8.297   3.522   7.118 -1.4989 -0.1102  2.2688
30310SOL    HW291509   8.179   3.428   7.107 -1.2630 -0.1413 -0.7196
30311SOL     OW91510   8.349   4.675   9.600 -0.3795  0.3576  0.6276
30311SOL    HW191511   8.295   4.724   9.662 -1.0542 -0.7005  0.9095
30311SOL    HW291512   8.370   4.594   9.646 -1.3066 -0.6705 -0.6965
30312SOL     OW91513   8.488   6.735   2.363 -0.1955 -0.2549  0.2101
30312SOL    HW191514   8.430   6.685   2.306  1.2635 -1.8143  0.0258
30312SOL    HW291515   8.540   6.789   2.303 -1.1666  0.9027  0.3568
30313SOL     OW91516   0.745   0.384   2.113  0.5749  0.0635 -0.1211
30313SOL    HW191517   0.819   0.344   2.067 -1.3689 -2.6104 -1.2507
30313SOL    HW291518   0.724   0.321   2.182 -1.3721  0.1052 -0.6234
30314SOL     OW91519   8.612   6.738   3.354 -0.2022  0.3927 -0.2540
30314SOL    HW191520   8.634   6.646   3.365 -0.5455  0.4251  0.7953
30314SOL    HW291521   8.655   6.763   3.271 -0.2758 -0.7445 -0.6533
30315SOL     OW91522   8.898   2.300   9.752 -0.7284  0.7537 -0.2346
30315SOL    HW191523   8.871   2.213   9.780  1.3778 -0.2808 -1.1433
30315SOL    HW291524   8.899   2.353   9.832 -0.3218 -0.5414  0.6420
30316SOL     OW91525   5.150   4.088   6.918  0.1817  0.3468 -0.0610
30316SOL    HW191526   5.198   4.022   6.967  1.1539  0.1558 -1.2105
30316SOL    HW291527   5.067   4.046   6.894 -0.3473  0.4818  1.4486
30317SOL     OW91528   1.348   1.766   2.002  0.1960 -0.3003 -0.1598
30317SOL    HW191529   1.438   1.791   2.027  0.0385 -1.1515  1.3917
30317SOL    HW291530   1.345   1.671   2.016 -0.8516 -0.3260 -0.5038
30318SOL     OW91531   5.154   9.194   1.788 -0.4376  0.0736 -0.1904
30318SOL    HW191532   5.092   9.124   1.770 -0.5173 -0.6123  2.3868
30318SOL    HW291533   5.111   9.273   1.755 -1.8804 -0.6242 -0.0473
30319SOL     OW91534   1.671   1.625   7.313  0.4265 -0.2120 -0.4960
30319SOL    HW191535   1.631   1.543   7.344 -0.0410  0.9163  2.1970
30319SOL    HW291536   1.753   1.632   7.363  0.6996  0.7213 -1.0499
30320SOL     OW91537   3.085   3.638   1.008  0.4010  0.1969  0.0423
30320SOL    HW191538   3.134   3.604   1.084  0.5050  0.8590  0.2751
30320SOL    HW291539   3.038   3.714   1.042 -0.8800 -0.4831 -0.1497
30321SOL     OW91540   3.802   4.356   9.758 -0.0042 -0.5818 -0.2189
30321SOL    HW191541   3.715   4.353   9.720 -0.4238 -0.0881  0.6741
30321SOL    HW291542   3.833   4.446   9.741 -0.8078  0.1558  1.8539
30322SOL     OW91543   5.102   9.829   0.599  0.0471 -0.4968 -0.0843
30322SOL    HW191544   5.180   9.860   0.554 -0.0507  0.5529  0.4255
30322SOL    HW291545   5.039   9.812   0.529  0.1291  0.4472 -0.4049
30323SOL     OW91546   3.550   0.397   1.708 -0.3692 -0.3809 -0.6350
30323SOL    HW191547   3.643   0.384   1.728 -0.2355  1.2175 -0.1374
30323SOL    HW291548   3.506   0.394   1.793 -0.7454 -0.8058 -0.8383
30324SOL     OW91549   3.207   2.346   9.302 -0.0235  0.3140 -0.5700
30324SOL    HW191550   3.228   2.256   9.275  2.3201  0.7242 -0.3420
30324SOL    HW291551   3.230   2.400   9.226  2.7361  1.0750  0.6862
30325SOL     OW91552   0.357   6.569   8.442 -0.0428 -0.1968  0.6662
30325SOL    HW191553   0.305   6.570   8.362  2.1616 -0.1800 -0.8612
30325SOL    HW291554   0.383   6.478   8.452  0.7981  0.0250  0.5786
30326SOL     OW91555   9.786   0.788   0.973 -0.3422 -0.2800  0.6580
30326SOL    HW191556   9.727   0.837   0.915  3.5275  1.4360 -2.2597
30326SOL    HW291557   9.811   0.711   0.922  0.1191 -0.8798  1.7515
30327SOL     OW91558   1.425   5.706   6.414 -0.4098  0.0493 -0.6222
30327SOL    HW191559   1.406   5.649   6.490 -1.0134 -0.7492 -1.3468
30327SOL    HW291560   1.369   5.783   6.428 -0.8690 -0.3017 -0.4792
30328SOL     OW91561   9.049   3.700   5.131 -0.7816 -0.0784  0.4526
30328SOL    HW191562   9.144   3.710   5.125 -0.7648  0.0000  0.8066
30328SOL    HW291563   9.025   3.650   5.053 -0.6757  1.4215 -0.5687
30329SOL     OW91564   7.798   8.961   3.030  0.2536 -0.0446  0.1133
30329SOL    HW191565   7.798   8.986   2.938  0.2880  1.9363  0.5937
30329SOL    HW291566   7.879   8.998   3.065  1.1164 -2.2419  0.6257
30330SOL     OW91567   9.364   6.329   2.528 -0.6359 -0.8741 -0.4238
30330SOL    HW191568   9.371   6.385   2.605  1.0786 -1.0301 -0.4317
30330SOL    HW291569   9.328   6.386   2.460  1.2872  0.3291 -0.5009
30331SOL     OW91570   9.688   4.206   1.617  0.3687 -0.2172  0.0850
30331SOL    HW191571   9.721   4.230   1.530  2.0729  2.1830  1.3068
30331SOL    HW291572   9.661   4.288   1.657 -2.3814 -1.4989  1.1446
30332SOL     OW91573   3.429   8.010   8.009 -0.0187 -0.3107  0.2982
30332SOL    HW191574   3.517   8.035   8.038  0.3675 -0.1709 -0.9323
30332SOL    HW291575   3.382   8.093   8.002  0.6565 -0.0414 -1.8354
30333SOL     OW91576   4.743   2.922   1.014 -0.6865 -0.1740  0.1067
30333SOL    HW191577   4.829   2.960   1.035 -1.3594  0.2213  2.4866
30333SOL    HW291578   4.685   2.998   1.008 -1.2714 -0.5535  0.8164
30334SOL     OW91579   0.557   6.153   0.768 -0.1161 -0.2176 -0.5597
30334SOL    HW191580   0.504   6.228   0.797 -0.2746 -1.1096  1.6324
30334SOL    HW291581   0.605   6.126   0.846  0.0968 -2.2791 -1.3383
30335SOL     OW91582   1.535   9.281   7.887 -0.2981  0.3665  0.6741
30335SOL    HW191583   1.513   9.363   7.844 -0.7420 -0.6951 -1.2330
30335SOL    HW291584   1.628   9.267   7.867  0.0221  0.8152  1.7640
30336SOL     OW91585   2.708   0.151   6.772 -0.7934  0.2312  0.2517
30336SOL    HW191586   2.617   0.173   6.792 -0.4844  1.3448  0.5136
30336SOL    HW291587   2.725   0.195   6.689 -1.1120 -1.7455 -0.9262
30337SOL     OW91588   1.473   8.554   9.012  0.3887 -0.1845 -0.0604
30337SOL    HW191589   1.494   8.506   8.932  0.0798 -0.4800  0.0339
30337SOL    HW291590   1.505   8.643   8.996 -1.1504  0.2092 -1.1709
30338SOL     OW91591   5.679   6.920   9.150  0.1114 -0.0535  0.4016
30338SOL    HW191592   5.721   6.999   9.184  0.9108 -0.5715  0.6497
30338SOL    HW291593   5.592   6.920   9.191  0.0870  0.7074  0.3684
30339SOL     OW91594   2.484   0.943   5.198  0.5559  0.2500 -0.0997
30339SOL    HW191595   2.493   0.917   5.289  2.1180 -0.1842 -0.3572
30339SOL    HW291596   2.517   1.033   5.195  0.0312  0.4443 -0.1523
30340SOL     OW91597   4.496   7.780   1.232 -0.5496 -0.0879  0.6466
30340SOL    HW191598   4.428   7.715   1.249  0.8362 -1.2809  1.9364
30340SOL    HW291599   4.512   7.820   1.318  0.8872 -0.3630  0.5274
30341SOL     OW91600   3.441   4.593   2.769  0.6131  0.3020 -0.0508
30341SOL    HW191601   3.472   4.660   2.708  1.8541 -1.1373 -1.1030
30341SOL    HW291602   3.480   4.617   2.853  0.0417  1.5377 -0.1183
30342SOL     OW91603   7.153   2.004   4.489 -0.3074 -0.6270 -0.2328
30342SOL    HW191604   7.201   1.978   4.568  0.3173  0.5662 -0.1902
30342SOL    HW291605   7.209   2.070   4.448 -1.5609  0.2534 -0.5938
30343SOL     OW91606   2.980   1.907   9.821  0.4497  0.3342  0.2840
30343SOL    HW191607   2.980   1.994   9.781 -1.9729  0.0459 -0.5010
30343SOL    HW291608   3.025   1.851   9.757  0.1066  0.6112 -0.2062
30344SOL     OW91609   5.519   1.715   4.422 -0.0003  0.3336 -0.0998
30344SOL    HW191610   5.550   1.674   4.341 -1.0800 -0.3955 -0.1651
30344SOL    HW291611   5.592   1.708   4.482  0.0464 -1.1993 -0.3018
30345SOL     OW91612   4.925   4.240   0.704  0.4913  0.5369 -0.4469
30345SOL    HW191613   4.855   4.178   0.686  0.5147  0.9348 -2.0274
30345SOL    HW291614   4.998   4.186   0.735 -0.5902  0.1550  1.6577
30346SOL     OW91615   5.425   0.195   7.447 -0.5011  0.1640 -0.6204
30346SOL    HW191616   5.374   0.119   7.476 -0.3987  0.8765  1.5396
30346SOL    HW291617   5.510   0.158   7.421 -0.8621 -0.5912 -0.7523
30347SOL     OW91618   5.953   8.535   7.913 -0.0271  0.2638 -0.2547
30347SOL    HW191619   5.888   8.465   7.919  0.7373 -0.3548  1.2471
30347SOL    HW291620   6.037   8.490   7.902  0.1751  1.0597 -2.4113
30348SOL     OW91621   8.114   0.636   3.711  0.1518 -0.3136 -0.1293
30348SOL    HW191622   8.085   0.571   3.775 -0.6525  0.5684  0.4253
30348SOL    HW291623   8.174   0.692   3.759 -0.2746  0.2152 -0.2076
30349SOL     OW91624   6.501   7.324   4.372  0.0327  0.0175  0.3238
30349SOL    HW191625   6.477   7.369   4.453 -0.6604 -1.1871  0.8104
30349SOL    HW291626   6.432   7.347   4.310 -0.0663  0.0002  0.4279
30350SOL     OW91627   4.625   0.361   1.165 -0.1024 -0.1971 -0.7375
30350SOL    HW191628   4.617   0.280   1.114  2.6823 -0.7800 -0.4335
30350SOL    HW291629   4.678   0.418   1.109 -0.5289  0.7460 -0.1880
30351SOL     OW91630   3.594   7.947   7.093  0.1458  0.6163 -0.0610
30351SOL    HW191631   3.671   7.890   7.090  0.0901  0.5550 -0.2886
30351SOL    HW291632   3.529   7.897   7.143  0.1863  0.5883 -0.0363
30352SOL     OW91633   0.950   9.633   4.800 -0.0709  0.2727 -0.1624
30352SOL    HW191634   0.899   9.559   4.834 -0.7666 -0.1456 -2.0328
30352SOL    HW291635   0.924   9.641   4.709  0.4082  2.5032 -0.1552
30353SOL     OW91636   6.182   6.645   5.367 -0.1586 -0.0545  0.2117
30353SOL    HW191637   6.158   6.555   5.390  1.2527 -0.1016  1.6729
30353SOL    HW291638   6.122   6.699   5.418 -0.1652 -0.1732  0.3332
30354SOL     OW91639   7.999   0.655   0.137 -0.7175 -0.2468 -0.3147
30354SOL    HW191640   8.083   0.614   0.158  0.1725  1.1839 -0.8522
30354SOL    HW291641   8.002   0.667   0.042 -1.0926  0.6724 -0.2261
30355SOL     OW91642   7.128   5.757   3.674  0.3881 -0.0268 -0.1668
30355SOL    HW191643   7.147   5.849   3.655  1.1659  0.1757  1.4587
30355SOL    HW291644   7.034   5.755   3.694  0.0882  0.1653 -1.4853
30356SOL     OW91645   5.717   8.566   1.709 -0.9169  0.1933  0.2288
30356SOL    HW191646   5.793   8.600   1.661 -0.9087 -0.4920 -0.2590
30356SOL    HW291647   5.754   8.533   1.791 -0.8836  1.0713  0.5786
30357SOL     OW91648   7.139   1.614   5.806  0.1455 -0.0254 -0.2905
30357SOL    HW191649   7.189   1.657   5.876 -0.4683 -1.0267  0.7998
30357SOL    HW291650   7.088   1.685   5.767  0.7315  0.6117  0.0775
30358SOL     OW91651   1.194   3.099   8.453  0.3403  0.0697 -0.0484
30358SOL    HW191652   1.226   3.054   8.375  0.5221 -2.8560  1.5921
30358SOL    HW291653   1.126   3.158   8.420  0.4949 -0.9555 -2.4065
30359SOL     OW91654   6.394   2.317   2.590 -0.0081 -0.1527 -0.1990
30359SOL    HW191655   6.345   2.365   2.524 -0.9693 -0.0130  0.5873
30359SOL    HW291656   6.430   2.241   2.544 -2.4617 -1.2511 -0.4386
30360SOL     OW91657   7.798   1.631   9.295  0.0972 -0.3825 -0.0048
30360SOL    HW191658   7.772   1.541   9.278 -0.2817  0.0640 -1.9801
30360SOL    HW291659   7.893   1.626   9.309 -0.0998 -1.2206  1.2217
30361SOL     OW91660   7.155   9.048   6.171  0.3318 -0.5317  0.1993
30361SOL    HW191661   7.172   8.993   6.248 -0.9603 -1.9469 -0.4767
30361SOL    HW291662   7.225   9.028   6.110  0.2609 -0.9135  0.2399
30362SOL     OW91663   1.498   2.342   0.640  0.2422  0.0611  0.2319
30362SOL    HW191664   1.572   2.303   0.594  1.4831 -0.7770  2.7929
30362SOL    HW291665   1.538   2.401   0.704 -1.4164  1.0762  0.3942
30363SOL     OW91666   9.224   4.656   5.706  0.0237 -0.5061 -0.0645
30363SOL    HW191667   9.286   4.693   5.769 -1.7521  0.0674  1.4536
30363SOL    HW291668   9.275   4.592   5.657  1.7872 -0.1228  1.1648
30364SOL     OW91669   3.249   0.924   8.559  0.2480 -0.3031 -0.1172
30364SOL    HW191670   3.272   0.923   8.466 -0.3441 -0.8200 -0.2649
30364SOL    HW291671   3.156   0.900   8.562  0.1021  0.3033  0.5683
30365SOL     OW91672   5.097   7.972   8.236 -0.5076  0.6360  0.3822
30365SOL    HW191673   5.175   7.932   8.275 -1.3318  0.0705  1.5033
30365SOL    HW291674   5.043   7.998   8.311 -0.9130  2.0361 -0.3537
30366SOL     OW91675   8.672   6.369   4.751  0.0798  0.2270  0.0500
30366SOL    HW191676   8.613   6.309   4.796 -0.2104 -0.8083 -1.6371
30366SOL    HW291677   8.726   6.313   4.695  0.7649  1.4139 -0.5221
30367SOL     OW91678   9.351   9.889   0.085 -0.7131  0.2885  0.4636
30367SOL    HW191679   9.308   9.955   0.031  0.1300  2.3511  2.1619
30367SOL    HW291680   9.425   9.858   0.032 -0.6376  1.3172 -0.0435
30368SOL     OW91681   7.266   0.983   5.490 -0.0346 -0.0704 -0.3620
30368SOL    HW191682   7.300   0.948   5.407 -2.0936  3.0816 -2.7743
30368SOL    HW291683   7.268   1.078   5.478  0.7001  0.6130  3.8055
30369SOL     OW91684   3.801   0.636   2.422  0.4366  0.2660  0.2421
30369SOL    HW191685   3.707   0.648   2.431  0.4681  0.8221 -0.0633
30369SOL    HW291686   3.830   0.716   2.378  0.9012 -0.3378 -0.5782
30370SOL     OW91687   6.680   9.054   3.590 -0.1637 -0.3752 -0.1877
30370SOL    HW191688   6.598   9.007   3.583 -1.4799  1.3765  2.2066
30370SOL    HW291689   6.664   9.138   3.546  0.5916 -0.2717 -0.2932
30371SOL     OW91690   5.586   9.361   1.890  0.2077  0.0312  0.2891
30371SOL    HW191691   5.573   9.441   1.840  0.8972  0.1103  0.2261
30371SOL    HW291692   5.549   9.292   1.835  1.0356  0.1033 -0.3955
30372SOL     OW91693   5.703   9.032   6.561 -0.3362  0.5274 -0.5168
30372SOL    HW191694   5.659   9.036   6.646  0.0078 -0.6490 -0.2710
30372SOL    HW291695   5.740   8.944   6.557 -1.8922 -0.1008 -2.6746
30373SOL     OW91696   2.505   0.672   1.193 -0.2003 -0.2523  0.0099
30373SOL    HW191697   2.424   0.633   1.160 -0.6687  0.4127  0.3348
30373SOL    HW291698   2.520   0.747   1.135 -0.3403  0.1795  0.5211
30374SOL     OW91699   4.986   1.377   9.448 -0.1541 -0.2282  0.3118
30374SOL    HW191700   4.938   1.384   9.365 -0.0469  0.7005  0.3274
30374SOL    HW291701   5.054   1.444   9.442 -1.6606  1.5841  2.1862
30375SOL     OW91702   6.938   3.528   3.637 -0.3232  0.2823  0.1183
30375SOL    HW191703   7.027   3.561   3.622 -0.7482  0.9509 -1.0581
30375SOL    HW291704   6.946   3.433   3.631  0.4608  0.2882  0.9157
30376SOL     OW91705   7.892   0.612   5.930 -0.1851 -0.1396  0.2677
30376SOL    HW191706   7.882   0.672   5.856 -0.2698  0.3784  0.6931
30376SOL    HW291707   7.945   0.660   5.993 -0.0593 -0.6037  0.5202
30377SOL     OW91708   0.867   1.619   3.694  0.5208  0.1441  0.4708
30377SOL    HW191709   0.799   1.554   3.709 -0.3031  1.2891  2.0229
30377SOL    HW291710   0.943   1.588   3.743  0.2214  0.2080  0.9782
30378SOL     OW91711   5.138   4.809   9.496 -0.7151 -0.4551 -0.2710
30378SOL    HW191712   5.051   4.848   9.509 -0.8815 -0.4089 -1.3693
30378SOL    HW291713   5.198   4.884   9.497 -0.2382 -0.7090  3.4444
30379SOL     OW91714   2.659   4.722   3.453 -0.4557  0.0885  0.2003
30379SOL    HW191715   2.708   4.726   3.535 -0.3967 -0.2376  0.1842
30379SOL    HW291716   2.583   4.777   3.467 -0.4161  0.0773  0.4556
30380SOL     OW91717   2.198   1.664   7.598  0.4548  0.3194 -0.1087
30380SOL    HW191718   2.228   1.681   7.687  0.2219  0.1724 -0.0004
30380SOL    HW291719   2.226   1.574   7.580  0.3237  0.2773 -0.1068
30381SOL     OW91720   7.876   8.225   5.991  0.3709  0.2393  0.5760
30381SOL    HW191721   7.949   8.191   6.042  0.7200 -0.9900 -0.6736
30381SOL    HW291722   7.911   8.301   5.945  0.3295  0.7517  1.3729
30382SOL     OW91723   4.207   4.736   5.927 -0.1421  0.1733  0.2336
30382SOL    HW191724   4.178   4.730   5.836 -0.3967  0.5016  0.2916
30382SOL    HW291725   4.146   4.680   5.975 -0.2554  0.3187  0.2588
30383SOL     OW91726   6.101   2.970   4.614 -0.2895  0.0983 -0.7942
30383SOL    HW191727   6.151   2.939   4.689  0.3304  0.4391 -1.0639
30383SOL    HW291728   6.167   3.007   4.554 -1.0610  2.6383 -0.1781
30384SOL     OW91729   0.660   9.026   1.299 -0.7538  0.6248 -0.7356
30384SOL    HW191730   0.663   9.068   1.213 -1.5884  0.7999 -0.6849
30384SOL    HW291731   0.568   9.031   1.325 -0.7800 -0.7875 -0.5028
30385SOL     OW91732   5.625   0.705   7.983 -0.4063 -0.1752 -0.1885
30385SOL    HW191733   5.596   0.613   7.980  0.4727 -0.5116  0.7795
30385SOL    HW291734   5.556   0.750   8.031 -0.4871 -0.4884 -0.0045
30386SOL     OW91735   6.487   8.213   6.487 -0.2326 -0.4722  0.4091
30386SOL    HW191736   6.568   8.161   6.487  0.6465  0.8207  0.0729
30386SOL    HW291737   6.470   8.231   6.394  0.9698  1.9492  0.5672
30387SOL     OW91738   3.068   2.807   9.756  0.0620  0.0916 -0.8016
30387SOL    HW191739   3.080   2.882   9.815  1.3345 -0.8183  0.1529
30387SOL    HW291740   3.036   2.846   9.675  0.8806  1.7120 -0.4069
30388SOL     OW91741   2.202   2.405   1.695 -0.8507  0.1256  0.0457
30388SOL    HW191742   2.193   2.318   1.735 -1.7520  0.6829  1.0923
30388SOL    HW291743   2.118   2.421   1.653 -0.6431  0.4438 -0.2540
30389SOL     OW91744   9.493   6.200   5.267 -0.2748 -0.4970  0.1693
30389SOL    HW191745   9.547   6.200   5.189 -1.4892  0.6335 -0.7249
30389SOL    HW291746   9.519   6.122   5.315  1.2652 -0.6240 -0.8127
30390SOL     OW91747   1.811   4.350   4.046 -0.0172 -0.8932 -0.3477
30390SOL    HW191748   1.730   4.398   4.027  0.7044 -0.7060 -3.4937
30390SOL    HW291749   1.851   4.398   4.118 -1.8189  0.0654  0.0777
30391SOL     OW91750   5.873   0.718   4.011 -0.1231  0.0659 -0.4669
30391SOL    HW191751   5.814   0.643   4.019  1.1419 -0.7598  2.8423
30391SOL    HW291752   5.936   0.692   3.944 -2.0639  0.0267 -2.3948
30392SOL     OW91753   3.265   0.025   0.279 -0.0507 -0.6901 -0.5988
30392SOL    HW191754   3.335   0.023   0.213 -0.2796  0.8253 -0.9163
30392SOL    HW291755   3.190  -0.015   0.236 -0.1597  0.1715 -1.2224
30393SOL     OW91756   8.856   4.841   8.362  0.0093  0.2013 -0.4723
30393SOL    HW191757   8.845   4.770   8.299 -0.2872  0.0901 -0.2962
30393SOL    HW291758   8.775   4.842   8.412  0.1004  0.5224 -0.3274
30394SOL     OW91759   5.761   7.944   2.087 -0.4208  0.3006  0.5492
30394SOL    HW191760   5.739   7.976   2.174  2.1541  0.0699  1.3676
30394SOL    HW291761   5.751   7.849   2.092 -2.1909  0.4211 -0.0561
30395SOL     OW91762   5.026   0.566   1.445  0.0351 -0.3702  0.3408
30395SOL    HW191763   4.958   0.597   1.385  1.0055  0.5834 -0.3038
30395SOL    HW291764   5.065   0.491   1.400 -1.2459 -1.6054  1.1854
30396SOL     OW91765   9.523   8.605   7.248  0.5886 -0.9634 -0.0327
30396SOL    HW191766   9.511   8.510   7.238 -0.3232 -0.8045 -0.5221
30396SOL    HW291767   9.440   8.637   7.282  0.2841 -0.1183 -1.4928
30397SOL     OW91768   0.555   8.116   5.565  0.0324  0.2265 -0.6914
30397SOL    HW191769   0.610   8.161   5.628  0.4825  0.6325 -1.3600
30397SOL    HW291770   0.612   8.047   5.529 -0.0810  0.2639 -0.9476
30398SOL     OW91771   0.157   2.308   2.176 -0.0015  0.4019 -0.0480
30398SOL    HW191772   0.246   2.340   2.160 -0.4581  1.0115 -1.4575
30398SOL    HW291773   0.100   2.383   2.158 -0.8577 -0.2050  0.0550
30399SOL     OW91774   0.212   1.635   8.766 -0.3214  0.0229  0.1269
30399SOL    HW191775   0.279   1.691   8.727  0.6045 -0.9650  0.2506
30399SOL    HW291776   0.164   1.601   8.691 -0.0627 -0.0180 -0.0231
30400SOL     OW91777   6.728   2.082   5.564  0.0360  0.0042 -0.0569
30400SOL    HW191778   6.810   2.099   5.518 -0.7936  0.4012 -1.4455
30400SOL    HW291779   6.735   1.992   5.594  1.8866  0.6961  1.8503
30401SOL     OW91780   8.139   2.571   0.034 -0.1358 -0.5274 -0.0982
30401SOL    HW191781   8.118   2.477   0.036  0.3343 -0.7648 -2.8320
30401SOL    HW291782   8.055   2.614   0.026 -0.2834 -0.7779  0.0699
30402SOL     OW91783   1.923   1.909   7.340 -0.4883 -0.3612 -0.0727
30402SOL    HW191784   1.940   2.004   7.341 -0.6871 -0.3194 -0.5149
30402SOL    HW291785   1.871   1.895   7.261  0.0121 -0.9215 -0.3107
30403SOL     OW91786   1.775   2.347   8.697  0.2479  0.1408 -0.5138
30403SOL    HW191787   1.815   2.315   8.616  3.0943  0.7413  0.5458
30403SOL    HW291788   1.835   2.415   8.728 -0.7699 -0.0561  2.0946
30404SOL     OW91789   8.404   8.965   7.098  0.0210 -0.0159 -0.2157
30404SOL    HW191790   8.389   8.962   7.193 -0.4467 -0.5221 -0.2989
30404SOL    HW291791   8.340   9.028   7.065 -1.2382 -1.3680 -0.4376
30405SOL     OW91792   0.292   7.945   7.520 -0.0779 -0.3006 -0.5107
30405SOL    HW191793   0.245   7.916   7.442 -1.5165  1.0446 -0.2014
30405SOL    HW291794   0.315   8.037   7.502  0.4151 -0.2600  0.2655
30406SOL     OW91795   3.352   6.258   3.464  0.2049 -0.2029  0.1170
30406SOL    HW191796   3.391   6.181   3.504 -1.4375 -1.4671 -0.5980
30406SOL    HW291797   3.284   6.223   3.406  0.0121  1.7401 -0.9121
30407SOL     OW91798   0.577   6.421   8.703 -0.4100  0.1859 -0.0418
30407SOL    HW191799   0.557   6.514   8.713 -1.8146  0.0625 -1.3810
30407SOL    HW291800   0.509   6.387   8.644 -2.5144 -2.6046  3.5407
30408SOL     OW91801   1.925   9.313   8.729  0.0171 -0.4588 -0.3160
30408SOL    HW191802   1.942   9.272   8.644 -0.6563 -1.7585  0.1439
30408SOL    HW291803   2.010   9.309   8.775  0.0325 -1.0916 -0.3895
30409SOL     OW91804   6.614   2.586   6.931  0.3434 -0.1986  0.6364
30409SOL    HW191805   6.619   2.579   6.836  0.4165  1.8781  0.4489
30409SOL    HW291806   6.698   2.553   6.962  0.7944  0.2324 -0.1033
30410SOL     OW91807   3.311   0.350   2.361 -0.4590 -0.3995  0.2227
30410SOL    HW191808   3.382   0.317   2.306 -1.3556 -1.9101 -0.0836
30410SOL    HW291809   3.233   0.347   2.305 -1.6211 -3.0169  1.7883
30411SOL     OW91810   4.825   5.573   3.473  0.1152  0.4503  0.0980
30411SOL    HW191811   4.845   5.490   3.515  0.5897  0.8725  0.7264
30411SOL    HW291812   4.909   5.606   3.442 -0.3448 -0.4053 -2.3058
30412SOL     OW91813   1.798   1.739   9.257 -0.3099 -0.0654  0.2198
30412SOL    HW191814   1.782   1.737   9.352 -2.6982 -0.5348 -0.1354
30412SOL    HW291815   1.716   1.710   9.218  0.4460  0.6170 -2.0380
30413SOL     OW91816   0.016   7.198   9.126 -0.0252  0.1228  0.1423
30413SOL    HW191817  -0.013   7.260   9.059  0.1203 -0.2246 -0.2433
30413SOL    HW291818   0.088   7.149   9.085 -1.2794 -1.5163 -0.1865
30414SOL     OW91819   0.510   6.461   9.960  0.0540  0.2722 -0.7589
30414SOL    HW191820   0.558   6.540   9.983  0.5080 -0.4627  0.9951
30414SOL    HW291821   0.578   6.401   9.929 -0.1157  0.1407 -0.8765
30415SOL     OW91822   1.610   9.845   7.059  0.7754 -0.1735 -0.4801
30415SOL    HW191823   1.527   9.880   7.026  0.5367  0.0286  0.3262
30415SOL    HW291824   1.676   9.885   7.002  0.2719 -1.0781 -1.7381
30416SOL     OW91825   2.576   9.312   9.318  0.3449 -0.2175 -0.0124
30416SOL    HW191826   2.612   9.275   9.237  0.9328 -0.0458  0.1652
30416SOL    HW291827   2.602   9.250   9.386 -0.2832 -0.4439  0.0339
30417SOL     OW91828   3.368   7.170   9.606  0.0056  0.5452  0.0998
30417SOL    HW191829   3.440   7.190   9.666 -0.3139  0.5924  0.4720
30417SOL    HW291830   3.385   7.224   9.529 -0.9096  2.4126  1.1219
30418SOL     OW91831   0.690   8.904   5.789 -0.4473 -0.5693  0.7795
30418SOL    HW191832   0.727   8.838   5.846  0.6086 -0.5380  0.1484
30418SOL    HW291833   0.697   8.986   5.838 -1.1411 -0.8102  1.2901
30419SOL     OW91834   8.310   2.436   5.509 -0.0695 -0.0659 -0.4266
30419SOL    HW191835   8.395   2.412   5.545 -0.5591  0.5243  1.1878
30419SOL    HW291836   8.309   2.531   5.510 -0.2231 -0.0305 -1.7762
30420SOL     OW91837   3.478   7.808   9.886  0.3612 -0.0037  0.0288
30420SOL    HW191838   3.398   7.815   9.833 -1.9467  2.0473  3.3609
30420SOL    HW291839   3.485   7.714   9.905 -2.2061 -0.1283  0.8075
30421SOL     OW91840   2.477   0.651   3.040  0.3532 -0.5730 -0.2200
30421SOL    HW191841   2.428   0.580   2.998 -1.6662 -0.5194  1.8571
30421SOL    HW291842   2.504   0.708   2.968  0.1683 -2.3259 -1.7306
30422SOL     OW91843   2.449   1.897   1.958 -0.2252 -0.2904 -0.1403
30422SOL    HW191844   2.514   1.848   2.008  1.0079 -0.4808 -1.8580
30422SOL    HW291845   2.409   1.956   2.023  0.4001 -1.4039  1.3126
30423SOL     OW91846   9.666   9.437   6.621 -0.6103 -0.1044 -0.3990
30423SOL    HW191847   9.721   9.404   6.549  0.3094 -0.1023  0.2854
30423SOL    HW291848   9.607   9.365   6.641 -1.6047  0.2547 -1.8446
30424SOL     OW91849   0.346   0.878   0.317  0.7597  0.6011 -0.0144
30424SOL    HW191850   0.287   0.922   0.256  0.5177 -0.5400 -0.6332
30424SOL    HW291851   0.331   0.921   0.401  0.7148  1.8485 -0.6423
30425SOL     OW91852   4.090   1.889   4.687  0.4515  0.1510 -0.2368
30425SOL    HW191853   4.044   1.843   4.617 -0.4513 -0.7580  0.8994
30425SOL    HW291854   4.024   1.944   4.728  1.0408  0.9071 -0.2642
30426SOL     OW91855   8.814   2.985   0.515 -0.2903  0.7513 -0.5261
30426SOL    HW191856   8.887   3.046   0.522  0.8024 -0.5869  0.4626
30426SOL    HW291857   8.784   2.994   0.425  2.0432  0.3784 -1.4399
30427SOL     OW91858   7.954   8.663   9.774  0.0432 -0.4271  0.4342
30427SOL    HW191859   7.997   8.606   9.710 -0.3312 -0.4750  0.2246
30427SOL    HW291860   7.952   8.749   9.732 -0.3546 -0.4965  0.3137
30428SOL     OW91861   1.056   5.007   4.960 -0.1037  0.1150 -0.1073
30428SOL    HW191862   1.024   5.007   4.870 -1.3579  1.1601  0.3009
30428SOL    HW291863   1.132   4.950   4.959  0.1425  0.4275 -1.9093
30429SOL     OW91864   7.431   5.934   8.582 -0.2551  0.3172 -0.1875
30429SOL    HW191865   7.356   5.938   8.521  0.9496  0.4319 -1.7304
30429SOL    HW291866   7.399   5.975   8.662 -1.9640  0.0356 -0.6791
30430SOL     OW91867   4.803   0.522   9.236  0.0703  0.1903  0.4638
30430SOL    HW191868   4.856   0.601   9.224 -0.6568  0.6587  0.2850
30430SOL    HW291869   4.842   0.479   9.312  2.2644 -0.7924 -1.1362
30431SOL     OW91870   2.531   5.902   3.903  0.2600  0.5628  0.5176
30431SOL    HW191871   2.598   5.834   3.895 -1.2475 -0.8260 -1.1017
30431SOL    HW291872   2.558   5.969   3.840  1.1822  1.0433  1.3713
30432SOL     OW91873   1.119   6.470   5.253 -0.3190  0.0771 -0.1956
30432SOL    HW191874   1.089   6.379   5.248  1.4156 -0.5684  0.3754
30432SOL    HW291875   1.067   6.508   5.324  0.6133 -1.2038  1.2592
30433SOL     OW91876   5.071   0.642   3.337  0.0816 -0.1074  0.1865
30433SOL    HW191877   5.154   0.673   3.374 -0.0155  1.6524 -0.9165
30433SOL    HW291878   5.070   0.679   3.248 -0.7081 -2.2735 -0.7829
30434SOL     OW91879   5.592   1.218   1.338 -0.4568  0.1422  0.0704
30434SOL    HW191880   5.585   1.132   1.297 -0.9918  0.5582 -0.7222
30434SOL    HW291881   5.686   1.236   1.341 -0.4421  0.5119 -1.8340
30435SOL     OW91882   6.088   0.978   7.816  0.0047 -0.5322 -0.6794
30435SOL    HW191883   6.179   0.948   7.816  0.5324  0.9378  0.6647
30435SOL    HW291884   6.090   1.064   7.774 -0.3525  0.5065  1.3100
30436SOL     OW91885   8.400   6.388   8.134 -0.3440  0.5616 -0.3979
30436SOL    HW191886   8.312   6.416   8.163 -0.5763  0.9968 -1.4704
30436SOL    HW291887   8.442   6.357   8.214 -1.9024 -0.8138 -0.0467
30437SOL     OW91888   0.838   1.401   4.351  0.7618 -0.7875 -0.5450
30437SOL    HW191889   0.922   1.374   4.387  0.8039 -0.6842 -0.5677
30437SOL    HW291890   0.776   1.388   4.423  0.7726 -0.9971 -0.5716
30438SOL     OW91891   7.640   8.537   0.199  0.1687 -0.4181 -0.4267
30438SOL    HW191892   7.709   8.603   0.204 -0.9837  1.3525 -3.9468
30438SOL    HW291893   7.576   8.564   0.264  1.2210 -0.0520  0.4811
30439SOL     OW91894   4.335   5.085   1.278  0.0119 -0.0497  0.0921
30439SOL    HW191895   4.385   5.165   1.296  3.3054 -1.8221 -0.3517
30439SOL    HW291896   4.375   5.048   1.199 -3.2125 -0.8511 -1.3580
30440SOL     OW91897   4.868   4.470   3.156  0.1275 -0.2395  0.4754
30440SOL    HW191898   4.909   4.501   3.237 -1.5713  0.9342  0.9480
30440SOL    HW291899   4.833   4.549   3.115  0.7384 -0.8421 -1.3221
30441SOL     OW91900   5.947   1.859   8.343 -0.2715 -0.5467  0.2297
30441SOL    HW191901   5.917   1.940   8.384  0.7154 -0.1876  0.2627
30441SOL    HW291902   5.905   1.860   8.257 -0.9198 -0.4134  0.5425
30442SOL     OW91903   6.175   2.478   3.679  0.2228 -0.2399  0.1021
30442SOL    HW191904   6.131   2.423   3.615  0.8937 -0.1621 -0.4353
30442SOL    HW291905   6.172   2.427   3.760 -0.8191 -0.2433  0.0731
30443SOL     OW91906   7.602   8.320   7.010 -0.2666  0.3407  0.0843
30443SOL    HW191907   7.563   8.403   6.982 -1.4011 -0.6973 -1.6258
30443SOL    HW291908   7.594   8.263   6.934  3.2611 -0.4755  0.1319
30444SOL     OW91909   0.711   7.148   2.134  0.3021  0.4968  0.0865
30444SOL    HW191910   0.629   7.144   2.183  0.8495  2.6019  1.3015
30444SOL    HW291911   0.719   7.061   2.094 -1.7334 -0.2698  1.1762
30445SOL     OW91912   5.218   8.312   0.603 -0.1509  0.1279 -0.0737
30445SOL    HW191913   5.273   8.240   0.573 -0.2935  0.8272 -2.1934
30445SOL    HW291914   5.274   8.363   0.662  0.1799 -1.2539  0.8708
30446SOL     OW91915   5.254   6.052   1.882  0.0567  0.3276 -0.1694
30446SOL    HW191916   5.280   6.120   1.944 -1.9987  0.1352  0.9639
30446SOL    HW291917   5.174   6.015   1.918  0.4878 -1.9452 -1.3494
30447SOL     OW91918   4.502   8.685   0.752 -0.3554 -0.3020 -0.2686
30447SOL    HW191919   4.429   8.737   0.718  1.0494  2.1892  0.2298
30447SOL    HW291920   4.550   8.658   0.674  0.2423  1.3642 -0.5363
30448SOL     OW91921   4.342   7.811   1.954 -0.6219  0.4334 -0.0528
30448SOL    HW191922   4.397   7.770   1.887  0.4881 -1.0234  1.6183
30448SOL    HW291923   4.382   7.897   1.968  0.0473  0.1644 -0.2392
30449SOL     OW91924   3.997   4.549   2.926  0.4364  0.3782  0.4953
30449SOL    HW191925   4.079   4.587   2.893  0.0987  1.9581  1.3438
30449SOL    HW291926   4.007   4.551   3.021 -0.4282  0.2229  0.5941
30450SOL     OW91927   5.602   0.816   7.700  0.2474  0.1547 -0.3850
30450SOL    HW191928   5.604   0.894   7.755 -0.4077 -0.0961  0.0112
30450SOL    HW291929   5.590   0.850   7.611 -2.5954  0.4754  0.0174
30451SOL     OW91930   7.822   8.227   2.205 -0.7510 -0.0318 -0.5106
30451SOL    HW191931   7.757   8.286   2.168 -1.4587 -0.3567  0.1984
30451SOL    HW291932   7.891   8.285   2.238 -0.4364  0.2904 -1.6803
30452SOL     OW91933   7.533   5.473   2.207 -0.3864  0.1064 -0.4814
30452SOL    HW191934   7.570   5.458   2.120 -0.1154 -2.1959 -0.0473
30452SOL    HW291935   7.608   5.494   2.262 -0.2892 -0.3912 -0.4232
30453SOL     OW91936   2.161   0.071   5.077  0.4415  0.2679  0.2919
30453SOL    HW191937   2.205   0.011   5.138  1.2602 -0.2368 -0.7700
30453SOL    HW291938   2.232   0.111   5.027 -0.1641  1.3756  0.2812
30454SOL     OW91939   2.211   0.256   7.299 -0.0612 -0.3719 -0.0887
30454SOL    HW191940   2.198   0.315   7.373 -1.0287 -1.4252  0.6282
30454SOL    HW291941   2.281   0.296   7.247  0.7802  0.2916  1.5000
30455SOL     OW91942   9.874   5.816   3.851  0.1944  0.0187 -0.2942
30455SOL    HW191943   9.863   5.895   3.904  1.0344 -0.2936  0.3734
30455SOL    HW291944   9.865   5.846   3.761 -0.6549  0.6692 -0.0109
30456SOL     OW91945   5.119   0.394   8.863  0.1299 -0.2798  0.3878
30456SOL    HW191946   5.188   0.460   8.852 -0.5995  0.2846 -0.9142
30456SOL    HW291947   5.065   0.402   8.785 -0.4570 -1.8697  0.5998
30457SOL     OW91948   6.864   3.289   8.504  0.6983  0.1416  0.3024
30457SOL    HW191949   6.951   3.268   8.471  1.7187  2.0575  1.5954
30457SOL    HW291950   6.860   3.246   8.590  0.9641  1.2313  0.8791
30458SOL     OW91951   8.785   0.100   6.421 -0.3076  0.1197 -0.3961
30458SOL    HW191952   8.752   0.035   6.358 -2.7969 -0.5344  1.4354
30458SOL    HW291953   8.859   0.056   6.463  0.7365  0.1789 -2.0464
30459SOL     OW91954   9.852   2.522   4.493 -0.2269  0.0545  0.6687
30459SOL    HW191955   9.892   2.513   4.580  1.2924  2.1471  0.2784
30459SOL    HW291956   9.925   2.513   4.432 -0.8884  0.7589 -0.2595
30460SOL     OW91957   1.305   5.378   6.239  0.4417 -0.1054 -0.0395
30460SOL    HW191958   1.250   5.419   6.306 -1.5425 -0.8772 -1.1049
30460SOL    HW291959   1.370   5.445   6.217 -0.2566  0.9817  1.0640
30461SOL     OW91960   4.762   0.789   8.718 -0.1817  0.6309 -0.2521
30461SOL    HW191961   4.712   0.792   8.637 -0.1090  1.6761 -0.2726
30461SOL    HW291962   4.799   0.877   8.726  2.0960 -0.2280 -0.5233
30462SOL     OW91963   6.101   6.049   3.097  0.1753 -0.2680  0.0115
30462SOL    HW191964   6.180   6.092   3.066 -1.0419  2.4436  0.3557
30462SOL    HW291965   6.126   6.007   3.179  1.4712 -0.4090 -0.4375
30463SOL     OW91966   9.648   5.523   9.159  0.4274  0.2006 -0.6050
30463SOL    HW191967   9.706   5.450   9.139 -0.3288 -0.7425  0.4796
30463SOL    HW291968   9.618   5.505   9.248 -1.1150  0.9250 -0.9517
30464SOL     OW91969   8.372   9.810   4.915  0.0471 -0.1123  0.5865
30464SOL    HW191970   8.457   9.854   4.924  0.5040 -0.5530 -1.0982
30464SOL    HW291971   8.318   9.874   4.869  1.1917 -1.6749 -3.3445
30465SOL     OW91972   9.093   0.802   1.685  0.0050  0.2731  0.2411
30465SOL    HW191973   9.079   0.732   1.748 -1.2004 -1.2699 -1.6307
30465SOL    HW291974   9.186   0.822   1.691  0.2703 -1.1259  1.2003
30466SOL     OW91975   8.732   3.953   7.983 -0.3059 -0.5098  0.1375
30466SOL    HW191976   8.706   4.044   7.998  1.6515 -0.0404  0.9405
30466SOL    HW291977   8.764   3.952   7.893  0.3185 -0.2102  0.3460
30467SOL     OW91978   5.414   6.622   0.227  0.0696  0.2377  0.4573
30467SOL    HW191979   5.430   6.685   0.296 -0.7234  0.3734  0.5292
30467SOL    HW291980   5.491   6.564   0.228  0.8220  1.2053  0.3663
30468SOL     OW91981   6.134   6.688   2.521  0.0412 -0.0043 -0.2011
30468SOL    HW191982   6.158   6.766   2.471 -1.6683 -0.2086 -1.4436
30468SOL    HW291983   6.163   6.615   2.466  1.1780 -0.2619  0.7185
30469SOL     OW91984   6.400   3.810   4.132 -0.2591 -0.4520  0.6218
30469SOL    HW191985   6.315   3.848   4.112 -0.5455 -1.7603 -0.8193
30469SOL    HW291986   6.384   3.753   4.207 -0.9637 -1.6333 -0.3901
30470SOL     OW91987   1.903   9.954   7.357 -0.3686 -0.2843  0.1393
30470SOL    HW191988   1.966   9.968   7.287 -1.3722  1.0700 -0.5381
30470SOL    HW291989   1.953   9.967   7.437  0.4500 -0.2606 -0.3679
30471SOL     OW91990   8.771   8.887   4.711  0.1623 -0.1432 -0.1832
30471SOL    HW191991   8.780   8.978   4.742 -0.2582 -0.7002  1.7335
30471SOL    HW291992   8.699   8.891   4.647  1.0169  1.0700 -1.1120
30472SOL     OW91993   4.759   9.317   2.702  0.4290 -0.0189 -0.3790
30472SOL    HW191994   4.782   9.404   2.667  0.1644  0.1631 -0.1006
30472SOL    HW291995   4.699   9.281   2.637  0.8268 -0.1480 -0.6815
30473SOL     OW91996   1.132   2.481   2.105 -0.3094  0.5129 -0.0238
30473SOL    HW191997   1.061   2.539   2.132 -2.5061 -2.0835  0.2154
30473SOL    HW291998   1.106   2.450   2.018 -0.0477 -1.2753  0.4918
30474SOL     OW91999   4.306   1.081   9.686 -0.0890 -0.1429  0.3982
30474SOL    HW192000   4.211   1.089   9.691 -0.4116 -3.2175  1.2073
30474SOL    HW292001   4.322   1.017   9.617  1.6839  2.7043 -2.0657
30475SOL     OW92002   6.539   3.164   6.347  0.0433  0.3474  0.1320
30475SOL    HW192003   6.580   3.147   6.431  0.5984  1.9230  0.2108
30475SOL    HW292004   6.612   3.179   6.287 -0.3451 -0.7417 -0.6484
30476SOL     OW92005   4.920   6.021   1.637 -0.7616  0.2604  0.0180
30476SOL    HW192006   4.835   6.039   1.598 -1.4325  1.2693  1.7868
30476SOL    HW292007   4.936   6.097   1.694 -0.0274 -1.2027  1.8811
30477SOL     OW92008   6.659   9.815   5.112 -0.6656 -0.2335  0.0605
30477SOL    HW192009   6.575   9.771   5.101 -0.6631 -0.0404 -0.7958
30477SOL    HW292010   6.645   9.904   5.081  0.3530 -0.7454 -2.0875
30478SOL     OW92011   6.047   4.496   3.723  0.8793 -0.1326  0.0879
30478SOL    HW192012   5.987   4.563   3.691 -0.2916 -1.1927 -0.0558
30478SOL    HW292013   6.000   4.457   3.798  0.4281 -2.3417 -1.2562
30479SOL     OW92014   4.377   6.397   5.678  0.7170  0.2983 -0.0779
30479SOL    HW192015   4.314   6.327   5.694  1.1911 -0.9094 -2.9195
30479SOL    HW292016   4.342   6.472   5.727 -2.9619 -0.2870 -1.4588
30480SOL     OW92017   0.722   8.228   1.985 -0.4594  0.2070  0.1140
30480SOL    HW192018   0.674   8.172   1.925  0.0401  0.1428 -0.2250
30480SOL    HW292019   0.801   8.253   1.938  0.0993 -0.1120  0.8567
30481SOL     OW92020   4.240   3.654   6.822  0.3755  0.5204  0.2148
30481SOL    HW192021   4.173   3.590   6.798 -0.7391  1.1281  1.5540
30481SOL    HW292022   4.273   3.687   6.738 -0.2444 -0.5513 -0.4796
30482SOL     OW92023   1.319   8.155   7.909 -0.2238  0.7054  0.3787
30482SOL    HW192024   1.356   8.224   7.854  0.3166 -0.6052 -0.9542
30482SOL    HW292025   1.321   8.076   7.855 -3.6019  0.2071  0.7611
30483SOL     OW92026   0.203   3.790   7.463  0.1296 -0.6005 -0.7372
30483SOL    HW192027   0.115   3.827   7.454 -0.5679 -1.7270  0.8315
30483SOL    HW292028   0.248   3.813   7.382 -1.6497 -0.0881 -1.6278
30484SOL     OW92029   1.248   4.447   5.376  0.5759  0.3561 -0.4066
30484SOL    HW192030   1.338   4.417   5.360  0.7314  1.1775 -1.1100
30484SOL    HW292031   1.196   4.367   5.372  0.9152  0.1882 -2.7902
30485SOL     OW92032   2.605   3.043   6.791 -0.1698 -0.1209  0.2054
30485SOL    HW192033   2.583   3.112   6.729 -0.9566  0.8622  1.5295
30485SOL    HW292034   2.626   2.967   6.736  1.3304  1.2968 -1.3060
30486SOL     OW92035  10.015   2.848   4.497 -0.1719  0.2513  0.9719
30486SOL    HW192036   9.948   2.893   4.445 -0.3569 -1.4314 -0.3278
30486SOL    HW292037   9.967   2.783   4.548  0.5086 -1.9352 -1.0102
30487SOL     OW92038   8.249   2.037   7.313 -0.2124  0.7047 -0.0650
30487SOL    HW192039   8.328   2.087   7.337 -0.6979  1.5760 -0.2251
30487SOL    HW292040   8.255   2.027   7.218  0.6030 -0.8254  0.1175
30488SOL     OW92041   5.227   4.331   1.727 -0.1234 -0.1994 -0.4059
30488SOL    HW192042   5.182   4.399   1.777  1.5325  1.9568 -1.6061
30488SOL    HW292043   5.203   4.249   1.769 -0.1659  1.3133  2.8164
30489SOL     OW92044   0.281   8.176   9.494 -0.1890 -0.1378  0.1087
30489SOL    HW192045   0.281   8.227   9.413 -0.5637 -1.1008 -0.5091
30489SOL    HW292046   0.189   8.164   9.516 -0.1054 -0.5248  0.2650
30490SOL     OW92047   7.381   3.262   6.368  0.4320 -0.2264 -0.2752
30490SOL    HW192048   7.344   3.262   6.456 -0.6009  1.6956 -0.6508
30490SOL    HW292049   7.465   3.308   6.377  1.3777 -1.9412  0.0460
30491SOL     OW92050   9.634   2.774   2.621 -0.0059 -0.3185  0.0589
30491SOL    HW192051   9.688   2.806   2.548 -0.4814  1.5377  0.4793
30491SOL    HW292052   9.596   2.692   2.589  1.7087 -0.8043 -0.8639
30492SOL     OW92053   1.536   8.040   9.431 -0.2177  0.4493 -0.0450
30492SOL    HW192054   1.534   8.119   9.486 -1.8069  1.1868 -1.0618
30492SOL    HW292055   1.608   8.056   9.369 -1.4808  1.8996 -1.2461
30493SOL     OW92056   7.722   3.599   9.756  0.4125  0.1446 -0.1582
30493SOL    HW192057   7.690   3.510   9.743  0.4177  0.1797 -0.4166
30493SOL    HW292058   7.701   3.644   9.674 -1.2592  0.8865  0.6372
30494SOL     OW92059   6.657   4.503   1.079 -0.2046  0.9184  0.1331
30494SOL    HW192060   6.654   4.506   1.174 -0.1381  0.2761  0.1604
30494SOL    HW292061   6.569   4.474   1.053  0.1442 -0.1007  0.0631
30495SOL     OW92062   3.455   5.927   2.469  0.0991 -0.0411  0.1129
30495SOL    HW192063   3.373   5.952   2.512 -0.0152 -1.2426  0.6171
30495SOL    HW292064   3.465   5.834   2.488  0.3898 -0.4673 -1.9194
30496SOL     OW92065   9.311   1.642   8.426  0.3024 -0.1221 -0.6713
30496SOL    HW192066   9.374   1.570   8.418  0.6488  0.0545  0.3551
30496SOL    HW292067   9.226   1.600   8.414  0.5868 -0.3732 -2.0305
30497SOL     OW92068   0.761   7.972   2.098 -0.3509  0.1468  0.2060
30497SOL    HW192069   0.743   7.970   2.192 -0.5809  1.3862  0.2114
30497SOL    HW292070   0.742   8.062   2.073  0.8404  0.1326 -0.8075
30498SOL     OW92071   8.408   7.768   5.842 -0.5745 -0.3986  0.1134
30498SOL    HW192072   8.350   7.844   5.849 -0.3294 -0.2846  0.9673
30498SOL    HW292073   8.414   7.733   5.931  1.2563  0.0479  0.2116
30499SOL     OW92074   1.624   9.598   6.282  0.5061  0.5060 -0.8938
30499SOL    HW192075   1.675   9.678   6.273  0.2647  0.5769 -1.7138
30499SOL    HW292076   1.547   9.612   6.226  0.6186 -0.4162 -1.3033
30500SOL     OW92077   8.078   3.813   2.631 -0.1577  0.2207 -0.3886
30500SOL    HW192078   8.032   3.845   2.709 -0.8001 -0.9334 -0.2665
30500SOL    HW292079   8.050   3.871   2.561 -3.5761 -1.6634 -0.7711
30501SOL     OW92080   5.261   4.186   4.912  0.5048 -0.5233 -0.2938
30501SOL    HW192081   5.264   4.190   5.007  4.1517 -1.7303 -0.1758
30501SOL    HW292082   5.196   4.118   4.892  0.1584 -0.7094  1.3521
30502SOL     OW92083   5.334   7.901   1.730  0.2002  0.4001  0.4310
30502SOL    HW192084   5.294   7.888   1.644 -0.4174  2.2275  0.4107
30502SOL    HW292085   5.394   7.975   1.719  0.9503 -0.0518  1.3190
30503SOL     OW92086   1.521   0.977   4.087 -0.1672 -0.1049 -0.3709
30503SOL    HW192087   1.472   0.896   4.094 -0.4769  0.0827 -0.3444
30503SOL    HW292088   1.454   1.046   4.087  0.1782  0.2590  1.2850
30504SOL     OW92089   7.056   4.814   0.511 -0.1574  0.0106 -0.0743
30504SOL    HW192090   7.062   4.816   0.416  0.2382  0.7741 -0.0404
30504SOL    HW292091   7.051   4.721   0.533  0.7069 -0.2105 -0.7818
30505SOL     OW92092   0.281   2.767   2.589 -0.0241  0.2223  0.0816
30505SOL    HW192093   0.377   2.763   2.587 -0.0118  0.6059 -0.1498
30505SOL    HW292094   0.255   2.737   2.502 -0.1428 -0.5678  0.3811
30506SOL     OW92095   1.037   6.307   1.694 -0.3549  1.0042 -0.4214
30506SOL    HW192096   1.026   6.355   1.611  0.1801  1.2337 -0.3657
30506SOL    HW292097   1.023   6.216   1.670 -4.1515  1.3296 -0.0293
30507SOL     OW92098   3.010   5.584   3.254 -0.3332 -0.5831  0.5552
30507SOL    HW192099   2.933   5.612   3.303 -0.4753 -2.1115  1.2468
30507SOL    HW292100   3.073   5.556   3.320  0.4154 -0.3552 -0.0428
30508SOL     OW92101   1.686   8.784   9.540  0.0988  0.5193 -0.0821
30508SOL    HW192102   1.639   8.866   9.556 -0.1098  0.1488  1.3275
30508SOL    HW292103   1.638   8.743   9.469 -0.3977  1.1626 -0.1315
30509SOL     OW92104   6.247   1.318   9.554  0.4046  0.0898 -0.1815
30509SOL    HW192105   6.334   1.305   9.517  0.9124 -0.3652  1.1045
30509SOL    HW292106   6.202   1.235   9.538 -0.2455  0.7516 -1.9507
30510SOL     OW92107   1.422   3.368   4.517 -0.2965 -0.0455  0.0863
30510SOL    HW192108   1.427   3.443   4.577 -1.4641  0.1163 -0.0137
30510SOL    HW292109   1.380   3.402   4.439 -0.2303 -0.6529 -0.2184
30511SOL     OW92110   5.112   9.304   9.938 -0.5283 -0.2423  0.3169
30511SOL    HW192111   5.102   9.252   9.858 -0.0133 -0.0019  0.0910
30511SOL    HW292112   5.135   9.240  10.005  1.3624 -0.1987 -0.2185
30512SOL     OW92113   8.781   0.134   1.892 -0.1238  0.1939 -0.5415
30512SOL    HW192114   8.835   0.120   1.815  0.7833 -1.7731  0.3966
30512SOL    HW292115   8.778   0.049   1.936 -0.0334  1.3872  1.9639
30513SOL     OW92116   5.283   7.708   0.266 -0.0823  0.0570  0.0229
30513SOL    HW192117   5.275   7.614   0.280 -0.2830 -0.0615 -0.8778
30513SOL    HW292118   5.325   7.740   0.346  1.5182 -1.0266 -0.3252
30514SOL     OW92119   8.738   1.036   8.127  0.0682 -0.3981 -0.0431
30514SOL    HW192120   8.653   1.075   8.150  0.4644 -0.3405  1.4714
30514SOL    HW292121   8.802   1.104   8.150  0.4866  0.0308 -2.3079
30515SOL     OW92122   6.014   5.040   8.180  0.1840  0.1164 -0.2111
30515SOL    HW192123   6.106   5.057   8.157  0.1317 -0.5100 -0.8911
30515SOL    HW292124   5.965   5.057   8.100 -0.1505 -0.7180 -0.1984
30516SOL     OW92125   9.366   6.063   2.601 -0.0882  0.0056  0.0962
30516SOL    HW192126   9.287   6.012   2.582 -0.3494  0.3481  0.2501
30516SOL    HW292127   9.345   6.151   2.570  0.7293 -0.1904 -1.0891
30517SOL     OW92128   8.163   1.493   3.632 -0.4301 -0.6652 -0.0554
30517SOL    HW192129   8.068   1.501   3.635 -0.4330 -0.1827 -1.0463
30517SOL    HW292130   8.195   1.581   3.653 -0.1878 -0.9418  0.7493
30518SOL     OW92131   2.532   5.150   0.661 -0.1406  0.0865 -0.6078
30518SOL    HW192132   2.468   5.083   0.684  0.7278 -1.1266 -1.5890
30518SOL    HW292133   2.509   5.176   0.572 -0.6001  1.2729 -0.1597
30519SOL     OW92134   3.336   3.104   2.432 -0.5230  0.3412 -0.1482
30519SOL    HW192135   3.377   3.020   2.449  0.5818  1.2795  2.1622
30519SOL    HW292136   3.267   3.111   2.497 -2.4957  0.0943 -2.0950
30520SOL     OW92137   2.589   0.241   2.261 -0.5826 -0.0644  0.3874
30520SOL    HW192138   2.643   0.239   2.340  0.8116 -0.3603 -0.5310
30520SOL    HW292139   2.565   0.333   2.251  0.6209  0.2582  0.2779
30521SOL     OW92140   1.741   1.789   2.767 -0.5101  0.1380 -0.1725
30521SOL    HW192141   1.663   1.742   2.796  0.4287 -2.7250 -1.9277
30521SOL    HW292142   1.813   1.746   2.812  0.3649  0.1264 -1.5394
30522SOL     OW92143   3.379   2.755   4.623  0.7631  0.1550  0.6190
30522SOL    HW192144   3.380   2.829   4.684 -1.1959  1.8210 -1.2083
30522SOL    HW292145   3.292   2.759   4.582  0.5173 -3.2763  0.5140
30523SOL     OW92146   8.221   7.904   0.668 -0.1312 -0.2164  0.4269
30523SOL    HW192147   8.271   7.984   0.680  0.8173 -0.3433 -2.0843
30523SOL    HW292148   8.285   7.834   0.680 -0.5089 -0.5321  0.6325
30524SOL     OW92149   4.048   6.949   6.974 -0.1481  0.3342 -0.3616
30524SOL    HW192150   3.994   6.977   6.901 -1.3457 -0.4302  0.2049
30524SOL    HW292151   3.996   6.968   7.052  0.2760 -0.6221  0.1823
30525SOL     OW92152   8.562   7.331   1.553 -0.2819  0.3462 -0.2522
30525SOL    HW192153   8.622   7.344   1.479 -1.2933  2.4860 -0.7860
30525SOL    HW292154   8.475   7.342   1.515 -1.1993 -3.3272  0.3661
30526SOL     OW92155   9.855   6.781   1.936  0.0155  0.4854 -0.5471
30526SOL    HW192156   9.827   6.754   2.023 -0.7148  1.1140 -0.5726
30526SOL    HW292157   9.884   6.872   1.948  1.4419  0.0677 -0.6551
30527SOL     OW92158   1.212   6.347   3.060  0.3181  0.3985 -0.1714
30527SOL    HW192159   1.168   6.427   3.029 -0.7393 -0.7575 -1.8057
30527SOL    HW292160   1.279   6.330   2.994 -0.1455 -0.6073 -0.3973
30528SOL     OW92161   4.151   0.374   1.919 -0.7787 -0.1847 -0.0108
30528SOL    HW192162   4.094   0.450   1.926 -2.4786 -1.2803 -1.0333
30528SOL    HW292163   4.091   0.299   1.920  0.8692 -1.5908  1.7090
30529SOL     OW92164   4.506   0.191   9.113  0.5288  0.0414  0.1728
30529SOL    HW192165   4.567   0.150   9.052  0.8150 -1.0433  1.1545
30529SOL    HW292166   4.517   0.285   9.098  5.0726  0.1973  2.6319
30530SOL     OW92167   0.426   3.029   2.438 -0.7069  0.9461  0.2245
30530SOL    HW192168   0.343   3.016   2.484 -1.0134 -0.6353 -0.7172
30530SOL    HW292169   0.403   3.083   2.363 -1.1990 -0.6473 -0.8166
30531SOL     OW92170   4.476   6.089   8.114 -0.0969  0.1298 -0.5690
30531SOL    HW192171   4.477   5.995   8.133 -1.5354  0.2904  0.5082
30531SOL    HW292172   4.449   6.129   8.197  0.4652  1.4943 -1.0274
30532SOL     OW92173   8.334   7.968   4.043  0.9373  0.8602 -0.4428
30532SOL    HW192174   8.304   7.881   4.068  1.8136  1.2075  2.1563
30532SOL    HW292175   8.306   7.979   3.952  0.0811 -1.7772 -0.5590
30533SOL     OW92176   9.576   6.800   6.054  0.2445  0.2978 -0.1066
30533SOL    HW192177   9.552   6.890   6.036 -0.8521  0.5637  2.3256
30533SOL    HW292178   9.599   6.799   6.147 -1.1860 -2.1729  0.3040
30534SOL     OW92179   7.332   7.364   7.871  0.7388  0.2470 -0.5221
30534SOL    HW192180   7.397   7.294   7.877 -0.1893 -0.4847  1.5853
30534SOL    HW292181   7.375   7.440   7.910  0.7629  0.1001 -0.2645
30535SOL     OW92182   2.079   4.821   0.448 -0.3586  0.6324 -0.5398
30535SOL    HW192183   2.099   4.914   0.455  0.0190  0.6128 -1.2452
30535SOL    HW292184   2.144   4.779   0.505  0.0641  0.7447 -0.9288
30536SOL     OW92185   1.362   8.098   4.219 -0.0067  0.3011 -0.4223
30536SOL    HW192186   1.336   8.070   4.131 -1.7755 -0.8739  0.4047
30536SOL    HW292187   1.452   8.068   4.228 -0.1862 -0.6202 -1.4376
30537SOL     OW92188   8.291   7.405   3.233  0.4908  0.0785 -0.0304
30537SOL    HW192189   8.320   7.316   3.256  0.0832 -0.1385 -0.3386
30537SOL    HW292190   8.228   7.427   3.301 -0.2783 -0.3341 -0.5864
30538SOL     OW92191   0.518   8.866   0.008 -0.1543 -0.6953 -0.0610
30538SOL    HW192192   0.423   8.860   0.023 -0.2001 -1.7799 -0.6973
30538SOL    HW292193   0.534   8.960  -0.002 -0.8476 -0.3222  1.9320
30539SOL     OW92194   5.290   6.130   8.956  0.1330  0.2332 -0.3696
30539SOL    HW192195   5.311   6.078   8.878  0.1060 -0.2278 -0.0736
30539SOL    HW292196   5.233   6.200   8.923 -1.2203 -0.8842 -0.5256
30540SOL     OW92197   7.899   2.660   2.809  0.0584  0.2253  0.0740
30540SOL    HW192198   7.841   2.696   2.742 -2.5907 -2.5783  0.6108
30540SOL    HW292199   7.871   2.701   2.890 -2.0374 -1.7831  0.4787
30541SOL     OW92200   8.389   1.896   2.072 -0.0647  0.2706 -0.1362
30541SOL    HW192201   8.476   1.862   2.094  0.2763  0.1848 -1.5234
30541SOL    HW292202   8.330   1.857   2.137  0.8613 -0.0302  0.5411
30542SOL     OW92203   5.735   8.747   8.431 -0.4633 -0.1746 -0.2594
30542SOL    HW192204   5.790   8.819   8.400  1.7465 -2.1663 -1.3062
30542SOL    HW292205   5.654   8.754   8.379  0.9752 -0.2151 -2.6575
30543SOL     OW92206   7.058   8.625   8.076 -0.0534  0.1699 -0.2049
30543SOL    HW192207   7.032   8.713   8.101 -0.4666  0.4924 -1.6717
30543SOL    HW292208   7.109   8.593   8.151 -0.8387  1.2135  0.8242
30544SOL     OW92209   8.872   3.616   0.493 -0.1201 -0.0407  0.2792
30544SOL    HW192210   8.801   3.657   0.543 -0.1047 -0.6758  0.8277
30544SOL    HW292211   8.949   3.627   0.549  0.2419  0.6937 -0.3368
30545SOL     OW92212   8.800   0.587   6.308  0.6127 -0.5086  0.1921
30545SOL    HW192213   8.802   0.631   6.223 -0.4047 -0.2735  0.2720
30545SOL    HW292214   8.744   0.643   6.362  1.1627 -0.7101  0.9849
30546SOL     OW92215   6.850   9.924   0.069 -0.4679  0.2288 -0.9094
30546SOL    HW192216   6.832   9.935  -0.025  1.7334  0.3951 -1.3582
30546SOL    HW292217   6.864   9.830   0.080 -0.3580  0.2552 -0.8234
30547SOL     OW92218   5.340   5.084   4.381 -0.2456 -0.2030 -0.2354
30547SOL    HW192219   5.283   5.114   4.452  0.0725  0.7558 -0.3679
30547SOL    HW292220   5.298   5.116   4.301 -0.3445 -0.8592 -0.4574
30548SOL     OW92221   3.099   4.064   5.334  0.0209 -0.2624 -0.5703
30548SOL    HW192222   3.033   4.110   5.282 -0.1182  1.7388  1.1875
30548SOL    HW292223   3.179   4.116   5.324 -0.2895  0.8804  1.9461
30549SOL     OW92224   0.860   6.364   7.258 -0.3389 -0.1075 -0.0717
30549SOL    HW192225   0.899   6.409   7.183 -1.3223 -0.7000 -0.9640
30549SOL    HW292226   0.881   6.272   7.244  1.2206 -0.0415  1.4763
30550SOL     OW92227   2.514   1.741   7.131  0.6572 -0.1496 -0.1346
30550SOL    HW192228   2.494   1.714   7.221 -0.3822 -0.9004 -0.5739
30550SOL    HW292229   2.435   1.720   7.081  1.0120  0.7802 -1.1258
30551SOL     OW92230   4.059   1.881   6.821  0.2426 -0.5307  0.0598
30551SOL    HW192231   4.074   1.922   6.735 -1.4740  1.8279  0.7912
30551SOL    HW292232   4.115   1.929   6.881 -0.8610 -0.0422  0.7367
30552SOL     OW92233   5.039   1.128   3.080  0.4427  0.5120 -0.0586
30552SOL    HW192234   5.048   1.085   3.165  2.0333  1.2794  0.2113
30552SOL    HW292235   5.016   1.058   3.020  2.0115 -0.5729  0.5387
30553SOL     OW92236   2.926   5.043   3.935  0.0240  0.5083 -0.7062
30553SOL    HW192237   2.934   4.962   3.886  0.2970 -0.0011  0.1552
30553SOL    HW292238   2.842   5.080   3.908 -1.3780 -1.3907  0.7878
30554SOL     OW92239   1.957   9.385   0.910  0.3964  0.0401 -0.0977
30554SOL    HW192240   1.872   9.424   0.930  0.6370 -0.0796  1.2512
30554SOL    HW292241   2.018   9.458   0.915  0.7120 -0.2988  1.4845
30555SOL     OW92242   8.331   0.979   2.971 -0.4055 -0.1665 -0.4589
30555SOL    HW192243   8.406   0.935   2.932 -1.6683 -1.4602 -1.5387
30555SOL    HW292244   8.343   1.072   2.948  1.3236 -0.2028  0.2121
30556SOL     OW92245   1.631   5.596   8.721  0.0255  0.0889 -0.0618
30556SOL    HW192246   1.628   5.528   8.653 -2.4413  0.7219 -0.6737
30556SOL    HW292247   1.558   5.575   8.779  0.8422  0.7568  1.2474
30557SOL     OW92248   3.186   0.615   4.291 -0.1710 -0.4365 -0.0110
30557SOL    HW192249   3.265   0.652   4.329  1.1775 -3.5947  0.5925
30557SOL    HW292250   3.146   0.566   4.363 -2.4467  0.6526 -0.4528
30558SOL     OW92251   9.706   0.930   6.002  0.0813  0.1791  0.1788
30558SOL    HW192252   9.670   0.920   5.914 -0.4249  0.2516  0.3786
30558SOL    HW292253   9.630   0.939   6.059  0.3747  3.0402  0.2890
30559SOL     OW92254   6.411   6.227   2.330 -0.2202  0.0363 -0.1546
30559SOL    HW192255   6.491   6.183   2.304 -0.4659 -1.0551  0.8663
30559SOL    HW292256   6.376   6.263   2.249  1.1131  0.2373 -0.6610
30560SOL     OW92257   7.673   7.131   3.025  0.4101  0.3758  0.1954
30560SOL    HW192258   7.604   7.148   2.960 -1.8945  0.7926  2.6082
30560SOL    HW292259   7.673   7.208   3.081  0.6291 -0.9742  2.1323
30561SOL     OW92260   6.004   1.616   7.648  0.1348  0.7220 -0.1588
30561SOL    HW192261   5.935   1.677   7.675  0.4690  0.7512  0.6584
30561SOL    HW292262   6.022   1.639   7.556 -1.2962  0.3641 -0.5549
30562SOL     OW92263   2.462   4.484   3.857  0.3935  0.1853 -0.0165
30562SOL    HW192264   2.533   4.457   3.799 -0.2652 -2.2770  0.1964
30562SOL    HW292265   2.493   4.463   3.945  0.8150  2.5619  0.4628
30563SOL     OW92266   0.643   2.477   5.585  0.2572 -0.2268  0.0777
30563SOL    HW192267   0.600   2.403   5.627 -0.6703  0.8818  1.1626
30563SOL    HW292268   0.624   2.467   5.492  0.1907 -1.3601  0.1985
30564SOL     OW92269   9.483   3.574   0.264  0.0541  0.4705 -0.2319
30564SOL    HW192270   9.548   3.628   0.308  0.2899 -0.3592  0.4845
30564SOL    HW292271   9.406   3.578   0.321  0.0653  0.0884 -0.1832
30565SOL     OW92272   1.844   4.448   5.758  0.0215  0.2713  0.2695
30565SOL    HW192273   1.757   4.436   5.797 -0.5546  0.0013 -1.0640
30565SOL    HW292274   1.893   4.369   5.782 -0.5263 -0.1747 -0.0572
30566SOL     OW92275   4.393   5.418   9.083  0.3981  0.1219 -0.0633
30566SOL    HW192276   4.460   5.477   9.050 -0.3450  1.2353  0.3601
30566SOL    HW292277   4.404   5.419   9.178 -0.3760  0.5469  0.0348
30567SOL     OW92278   5.124   5.781   1.940 -0.4162 -0.2234 -0.3516
30567SOL    HW192279   5.098   5.845   2.006  3.0896  0.2529  0.7846
30567SOL    HW292280   5.209   5.748   1.971 -0.3698 -2.7490 -2.7740
30568SOL     OW92281   9.272   3.171   5.309 -0.1362  0.3971 -0.2982
30568SOL    HW192282   9.357   3.126   5.308  0.0080  0.6742 -0.4968
30568SOL    HW292283   9.217   3.116   5.253 -0.7940 -1.1291  1.7134
30569SOL     OW92284   4.708   7.224   6.851 -0.0454 -0.3349  0.1112
30569SOL    HW192285   4.639   7.161   6.873 -0.9830  0.8714  0.7558
30569SOL    HW292286   4.764   7.226   6.929 -0.5943  0.3468  0.5036
30570SOL     OW92287   1.200   1.367   6.390  0.0242 -0.4015  0.0944
30570SOL    HW192288   1.187   1.451   6.347  3.8796 -0.3455 -1.3332
30570SOL    HW292289   1.173   1.301   6.326 -0.0340 -0.2661 -0.0186
30571SOL     OW92290   9.646   2.073   3.747 -0.9239 -0.1547  0.4361
30571SOL    HW192291   9.736   2.094   3.771 -0.8320  0.3480 -0.3240
30571SOL    HW292292   9.595   2.094   3.826 -0.4161 -0.2011  0.7834
30572SOL     OW92293   4.620   6.892   7.773  0.2616 -0.0451 -0.0645
30572SOL    HW192294   4.618   6.922   7.683 -1.3131  1.5248  0.4462
30572SOL    HW292295   4.699   6.932   7.810 -0.4525  1.4499 -0.0854
30573SOL     OW92296   2.553   3.852   9.339 -0.1898  0.3982 -0.0966
30573SOL    HW192297   2.577   3.931   9.292 -1.6553  0.3406 -0.9819
30573SOL    HW292298   2.552   3.878   9.431  3.1475  0.3977  0.0957
30574SOL     OW92299   4.825  -0.010   3.366 -0.1032 -0.0196 -0.5279
30574SOL    HW192300   4.862   0.033   3.289  0.7733 -0.8708 -0.5996
30574SOL    HW292301   4.786   0.061   3.417  0.8804  0.7974 -0.8800
30575SOL     OW92302   5.618   5.087   1.827  0.3663  0.4882  0.3075
30575SOL    HW192303   5.642   5.026   1.758 -1.7837  0.4412 -0.4836
30575SOL    HW292304   5.539   5.131   1.794  0.3242  1.7775  1.9768
30576SOL     OW92305   5.413   9.757   4.641 -0.2778  0.5881  0.8032
30576SOL    HW192306   5.500   9.761   4.601 -1.1961  1.3704 -1.2795
30576SOL    HW292307   5.374   9.842   4.620 -2.2370 -0.4801 -0.0814
30577SOL     OW92308   5.134   9.390   5.306  0.5122  0.4360  0.2756
30577SOL    HW192309   5.152   9.348   5.390  1.0099  0.9762  0.4425
30577SOL    HW292310   5.150   9.322   5.241  1.2289  0.3334  0.5503
30578SOL     OW92311   8.950   6.685   0.146 -0.3222  0.4788  0.1122
30578SOL    HW192312   8.871   6.630   0.149  0.7028 -1.1532 -1.2453
30578SOL    HW292313   8.985   6.681   0.235 -1.9610  1.5701  0.8499
30579SOL     OW92314   0.358   1.111   0.486  0.2734  0.8646 -0.1276
30579SOL    HW192315   0.299   1.131   0.560 -1.1604 -1.6554 -0.4697
30579SOL    HW292316   0.440   1.084   0.528 -0.1979  0.3992  0.5247
30580SOL     OW92317   9.375   2.388   3.110  0.1318 -0.0351  0.0182
30580SOL    HW192318   9.468   2.367   3.111  0.1836  0.1612 -0.4718
30580SOL    HW292319   9.358   2.420   3.021  0.0951  2.1700  0.7587
30581SOL     OW92320   3.677   9.206   5.698 -0.0948  0.3553 -0.3435
30581SOL    HW192321   3.591   9.183   5.733 -0.5190 -2.1765 -2.7034
30581SOL    HW292322   3.676   9.175   5.608  3.4285 -0.1980 -0.3523
30582SOL     OW92323   4.248   5.860   8.351 -0.9126  0.2765 -0.4631
30582SOL    HW192324   4.317   5.860   8.285 -1.0294  2.4005 -0.6371
30582SOL    HW292325   4.287   5.815   8.426  1.0694  2.2916 -0.1952
30583SOL     OW92326   8.814   3.385   3.383 -0.2202 -0.4683 -0.4463
30583SOL    HW192327   8.796   3.337   3.464  3.0075  1.1541  1.4669
30583SOL    HW292328   8.765   3.467   3.392 -0.7846 -0.7738 -0.7091
30584SOL     OW92329   0.167   6.821   2.747 -0.5544  0.1958 -0.2099
30584SOL    HW192330   0.232   6.777   2.803  2.0334  1.0296 -2.3632
30584SOL    HW292331   0.156   6.762   2.673 -1.6084  0.4965 -0.3004
30585SOL     OW92332   5.399   2.027   7.690 -0.1780  1.0746  0.1260
30585SOL    HW192333   5.490   2.048   7.672 -0.3049  1.1848 -0.4114
30585SOL    HW292334   5.393   1.932   7.678 -0.3910  1.2238 -1.0309
30586SOL     OW92335   2.794   4.264   4.162  0.0057  0.4646 -0.3970
30586SOL    HW192336   2.827   4.332   4.222  0.6341 -1.4197  1.5102
30586SOL    HW292337   2.707   4.243   4.195  0.3159 -0.5213 -0.1893
30587SOL     OW92338   2.376   4.577   6.289 -0.2951 -0.2995  0.0905
30587SOL    HW192339   2.380   4.597   6.196 -1.4395  1.4275  0.3681
30587SOL    HW292340   2.283   4.557   6.304 -0.0314 -1.0436  0.7826
30588SOL     OW92341   6.607   7.443   7.030 -0.0494  0.6656  0.6534
30588SOL    HW192342   6.600   7.351   7.007  2.4192  0.3032  1.0902
30588SOL    HW292343   6.647   7.484   6.954  0.7336  0.9814  1.2230
30589SOL     OW92344   7.981   5.656   5.623  0.3782  0.2208  0.3828
30589SOL    HW192345   8.031   5.595   5.676  0.0684 -0.0596  0.3550
30589SOL    HW292346   7.890   5.636   5.643  0.2768  0.8357  0.5569
30590SOL     OW92347   1.960   8.087   7.416 -0.6594  0.3465 -0.2993
30590SOL    HW192348   1.910   8.073   7.335  0.7920 -2.1276 -0.8556
30590SOL    HW292349   1.918   8.031   7.481 -0.7106  0.9470  0.2004
30591SOL     OW92350   2.841   9.297   1.695 -0.0959  0.5725  0.3036
30591SOL    HW192351   2.921   9.271   1.648  0.3880  2.3017  0.0776
30591SOL    HW292352   2.866   9.299   1.787  0.1299  1.0539  0.2382
30592SOL     OW92353   6.630   2.954   0.250 -0.2910  0.9915  0.0244
30592SOL    HW192354   6.576   2.957   0.170 -1.2122  0.8436  0.6198
30592SOL    HW292355   6.610   3.036   0.295  0.5365  1.2591 -0.0824
30593SOL     OW92356   7.561   6.401   3.846  0.0351  0.2732  0.6822
30593SOL    HW192357   7.604   6.487   3.843 -0.3254  0.4606  0.7289
30593SOL    HW292358   7.624   6.341   3.807 -0.8830  1.0672 -2.3330
30594SOL     OW92359   0.169   8.647   0.952 -0.3348  0.0285 -0.2623
30594SOL    HW192360   0.223   8.667   0.875 -1.7021  0.9237 -1.0225
30594SOL    HW292361   0.118   8.726   0.967  1.6671  0.8904  3.1741
30595SOL     OW92362   4.201   1.522   1.044 -0.5803 -0.4977  0.2941
30595SOL    HW192363   4.175   1.430   1.036 -0.5042 -0.5526  0.6639
30595SOL    HW292364   4.145   1.568   0.981  0.8582 -1.0658 -1.4890
30596SOL     OW92365   6.417   7.406   2.955  0.2744 -0.4564 -0.4505
30596SOL    HW192366   6.371   7.427   3.036 -0.0419  0.6004 -0.8818
30596SOL    HW292367   6.393   7.316   2.936 -0.1441 -0.5120  0.3042
30597SOL     OW92368   0.355   1.364   6.616  0.2007  0.1865  0.1935
30597SOL    HW192369   0.358   1.384   6.710  1.9872 -2.2446  0.7454
30597SOL    HW292370   0.270   1.398   6.588  0.3768  2.6418  2.2410
30598SOL     OW92371   1.045   8.593   8.170 -0.9090 -0.0305 -0.3078
30598SOL    HW192372   1.068   8.684   8.150 -1.7043  0.1545 -0.4212
30598SOL    HW292373   1.129   8.547   8.171 -0.3054  1.0290  1.5584
30599SOL     OW92374   9.224   5.125   1.221  0.0730 -0.2222  0.1229
30599SOL    HW192375   9.194   5.214   1.241 -0.4544 -0.7644  1.8584
30599SOL    HW292376   9.292   5.107   1.286 -0.5313 -1.4448  0.4429
30600SOL     OW92377   8.313   9.524   7.709  0.1573 -0.1378  0.3970
30600SOL    HW192378   8.348   9.449   7.661  0.8297  0.9116 -0.8145
30600SOL    HW292379   8.245   9.487   7.764 -0.4291 -1.4653 -1.1271
30601SOL     OW92380   7.755   8.262   9.390 -0.3232 -0.1850 -0.0414
30601SOL    HW192381   7.824   8.247   9.326 -1.2836 -0.5696 -1.0176
30601SOL    HW292382   7.674   8.238   9.345 -1.0380 -0.4097  1.3000
30602SOL     OW92383   8.150   7.517   2.679  0.2008 -0.4487  0.0689
30602SOL    HW192384   8.141   7.604   2.718 -0.6760 -0.2229 -0.6109
30602SOL    HW292385   8.151   7.457   2.754  0.7794  0.1375  0.5349
30603SOL     OW92386   9.324   9.915   0.926 -0.6373  0.2777  0.2522
30603SOL    HW192387   9.381   9.842   0.949 -3.5350 -1.7554  1.6093
30603SOL    HW292388   9.306   9.959   1.009 -1.1057  0.8334 -0.1304
30604SOL     OW92389   6.918   4.448   2.668  0.0812 -0.1409 -0.6192
30604SOL    HW192390   6.976   4.396   2.611  0.0050 -2.2337  1.0606
30604SOL    HW292391   6.853   4.385   2.699 -0.8528  1.3061  0.4952
30605SOL     OW92392   2.230   5.769   8.786 -0.1449 -0.1977 -0.4791
30605SOL    HW192393   2.287   5.795   8.859 -2.1924  0.5013  0.9583
30605SOL    HW292394   2.194   5.851   8.753 -0.0119 -0.5903 -1.6402
30606SOL     OW92395   3.813   9.604   0.234 -0.0180  0.2289 -0.6070
30606SOL    HW192396   3.838   9.512   0.231  0.6856  0.3177  1.1479
30606SOL    HW292397   3.813   9.626   0.327 -0.7413  1.8602 -0.9454
30607SOL     OW92398   0.208   6.307   1.429  0.5136  0.0268  0.3251
30607SOL    HW192399   0.303   6.302   1.438  0.7421  2.3351 -0.2006
30607SOL    HW292400   0.188   6.400   1.439 -1.5587 -0.2398 -0.8532
30608SOL     OW92401   1.200   6.245   9.802 -0.4562 -0.2115  0.1401
30608SOL    HW192402   1.122   6.208   9.761 -0.7150  1.3708 -0.8606
30608SOL    HW292403   1.273   6.207   9.754 -0.6895 -0.1143 -0.2968
30609SOL     OW92404   1.207   7.920   8.650  0.1337 -0.2759 -0.6776
30609SOL    HW192405   1.187   7.870   8.729 -0.0859 -0.1251 -0.6364
30609SOL    HW292406   1.128   7.912   8.596 -0.5633  1.3746  0.0253
30610SOL     OW92407   0.334   3.592   7.986  0.4291  0.2290  0.5598
30610SOL    HW192408   0.419   3.553   8.007  1.4191  2.6666  1.3414
30610SOL    HW292409   0.288   3.593   8.070  0.1352  0.1222  0.3999
30611SOL     OW92410   9.132   4.847   6.414  0.3235 -0.5343 -0.5531
30611SOL    HW192411   9.042   4.823   6.431  1.2676 -3.5385  0.8344
30611SOL    HW292412   9.150   4.919   6.474 -1.3273  0.7687 -1.5319
30612SOL     OW92413   4.067   1.069   2.202 -0.6369  0.3883 -0.0894
30612SOL    HW192414   3.976   1.095   2.218 -0.8245  0.0481 -0.5583
30612SOL    HW292415   4.068   1.041   2.111 -0.0268  0.5106 -0.1236
30613SOL     OW92416   6.066   1.355   8.924  0.1822  0.3679 -0.4743
30613SOL    HW192417   5.971   1.348   8.932  0.2601 -0.2354  0.0164
30613SOL    HW292418   6.084   1.449   8.922 -0.4266  0.4853 -0.6440
30614SOL     OW92419   5.778   3.725   6.933 -0.3562  0.0510  0.5162
30614SOL    HW192420   5.831   3.661   6.885 -0.2822  0.2024  0.3942
30614SOL    HW292421   5.821   3.732   7.018  0.9748  1.5901 -0.2251
30615SOL     OW92422   0.088   5.388   5.771 -0.8185 -0.5401  0.8901
30615SOL    HW192423   0.179   5.356   5.770  0.6958  3.3051  0.8420
30615SOL    HW292424   0.062   5.391   5.679  0.4124  1.6868  0.5542
30616SOL     OW92425   7.243   8.339   3.169 -0.0972  0.2656 -0.1877
30616SOL    HW192426   7.252   8.250   3.204 -0.6134  1.0384  2.0883
30616SOL    HW292427   7.333   8.365   3.149  0.0644 -0.7506 -0.8814
30617SOL     OW92428   3.965   4.126   7.742  0.3974 -0.9062 -0.2292
30617SOL    HW192429   3.929   4.117   7.831 -0.6906 -1.7020 -0.7191
30617SOL    HW292430   3.923   4.055   7.693  1.8014 -1.1486 -1.1372
30618SOL     OW92431   9.702   2.432   1.038 -0.0076 -0.0914 -0.2490
30618SOL    HW192432   9.692   2.506   1.098  0.1205  0.6995 -1.1777
30618SOL    HW292433   9.741   2.470   0.959 -1.3650 -0.8617 -1.3399
30619SOL     OW92434   6.196   7.694   5.224 -0.6725 -0.2365 -0.0818
30619SOL    HW192435   6.185   7.768   5.284 -0.8462  0.7261 -1.2566
30619SOL    HW292436   6.132   7.711   5.154  0.7646 -0.3399 -1.4691
30620SOL     OW92437   7.851   7.433   6.846 -0.3419  0.1263  0.4906
30620SOL    HW192438   7.828   7.388   6.927 -0.0759  0.4628  0.7566
30620SOL    HW292439   7.770   7.433   6.795 -0.6499  0.3573  0.9713
30621SOL     OW92440   5.274   0.911   6.387  0.1265  0.0797 -0.2928
30621SOL    HW192441   5.229   0.872   6.312 -0.3091  2.7373 -1.5562
30621SOL    HW292442   5.225   0.881   6.464 -2.8041  1.3902 -1.4965
30622SOL     OW92443   8.408   1.369   7.251  0.2399  0.8027 -0.1332
30622SOL    HW192444   8.443   1.451   7.216 -0.5278  1.3256  0.2994
30622SOL    HW292445   8.423   1.305   7.182  1.6753  1.0848 -0.1293
30623SOL     OW92446   5.982   4.753   2.899  0.3192  0.2438  0.2218
30623SOL    HW192447   5.943   4.813   2.963  3.8106  1.5813  1.3414
30623SOL    HW292448   5.999   4.807   2.822 -1.5121 -0.7515 -0.9539
30624SOL     OW92449   7.720   6.921   2.590  0.4321  0.0619  0.2502
30624SOL    HW192450   7.673   7.002   2.606 -2.1584 -1.2938  0.0118
30624SOL    HW292451   7.810   6.940   2.617 -0.1688  2.8414  0.6001
30625SOL     OW92452   5.659   8.254   7.696 -0.4078  0.4811 -0.1416
30625SOL    HW192453   5.706   8.317   7.641 -0.7337  0.4122 -0.5036
30625SOL    HW292454   5.666   8.171   7.649  2.6472 -0.5154  1.7688
30626SOL     OW92455   5.199   5.918   5.712 -0.1651 -0.3311  0.3602
30626SOL    HW192456   5.245   6.001   5.715 -2.0101  0.7341  1.4806
30626SOL    HW292457   5.121   5.932   5.766 -0.8009 -2.6305  0.1585
30627SOL     OW92458   1.684   0.289   2.545 -0.1127  0.3145  0.9385
30627SOL    HW192459   1.594   0.265   2.568 -0.2731  1.6331  1.8138
30627SOL    HW292460   1.674   0.368   2.491  0.5341  0.7350  1.4252
30628SOL     OW92461   8.071   4.660   0.094 -0.0847  0.0222  0.1486
30628SOL    HW192462   8.063   4.586   0.154 -1.2238  1.2520  1.5836
30628SOL    HW292463   8.003   4.645   0.028 -0.2064 -0.2814  0.3420
30629SOL     OW92464   9.150   1.901   2.860 -0.2095  0.0285  0.0035
30629SOL    HW192465   9.163   1.852   2.779  2.0239 -0.4745  0.5929
30629SOL    HW292466   9.079   1.855   2.905 -1.7404  0.5452 -1.7864
30630SOL     OW92467   6.713   1.628   9.588  0.5945 -0.3344  0.0821
30630SOL    HW192468   6.713   1.724   9.589  1.4171 -0.3324  0.6775
30630SOL    HW292469   6.699   1.603   9.679  0.8517 -0.7738  0.0013
30631SOL     OW92470   4.434   3.379   9.405  0.0410  0.2081  0.1441
30631SOL    HW192471   4.432   3.322   9.482  0.0839  1.0905  0.8215
30631SOL    HW292472   4.521   3.419   9.407 -0.2266  0.8113  0.0846
30632SOL     OW92473   3.942   3.332   9.126 -0.0069  0.6288 -0.2906
30632SOL    HW192474   3.917   3.242   9.102 -0.6241  0.7316 -0.0314
30632SOL    HW292475   4.028   3.322   9.168  0.2090  0.2321 -0.8163
30633SOL     OW92476   0.851   6.581   2.940 -0.0225 -0.5424 -0.4139
30633SOL    HW192477   0.759   6.601   2.923  0.0026  0.6126  0.7022
30633SOL    HW292478   0.849   6.519   3.012  0.0621 -0.9058 -0.7223
30634SOL     OW92479   0.299   5.978   9.754 -0.1438  0.4124  0.1894
30634SOL    HW192480   0.327   5.910   9.692  1.1100  0.4597  0.6661
30634SOL    HW292481   0.282   6.054   9.699 -1.5640 -0.2697 -0.3501
30635SOL     OW92482   1.306   7.330   9.231 -0.5658 -0.1270 -0.1798
30635SOL    HW192483   1.321   7.411   9.182 -1.3480 -0.3165 -0.7470
30635SOL    HW292484   1.303   7.359   9.323  1.3889  0.1571 -0.1604
30636SOL     OW92485   0.853   4.709   7.116  0.7244  0.2997  0.5722
30636SOL    HW192486   0.911   4.719   7.040  1.3959 -1.3074  0.8226
30636SOL    HW292487   0.792   4.640   7.091 -2.2775  3.0459 -0.3177
30637SOL     OW92488   3.507   2.883   5.586 -0.4713  0.3705  0.4046
30637SOL    HW192489   3.491   2.957   5.644 -1.3952  1.4177 -1.1285
30637SOL    HW292490   3.503   2.806   5.644  0.6400  1.4686  2.0549
30638SOL     OW92491   3.152   1.610   8.979  0.7191  0.1395  0.2086
30638SOL    HW192492   3.172   1.693   8.936  0.7537  0.2352  0.4072
30638SOL    HW292493   3.083   1.571   8.926  1.4240 -0.1903 -0.4826
30639SOL     OW92494   1.491   5.602   0.125 -0.0353 -0.7376  0.8420
30639SOL    HW192495   1.524   5.689   0.105 -4.4776  0.7282 -1.6585
30639SOL    HW292496   1.530   5.545   0.058 -0.3107  0.3121 -0.2521
30640SOL     OW92497   8.133   9.284   5.276 -0.2657  0.3759  0.4753
30640SOL    HW192498   8.098   9.199   5.302 -1.3967  0.7249  0.1655
30640SOL    HW292499   8.084   9.347   5.329  0.7727  0.8329  0.9198
30641SOL     OW92500   1.537   6.873   1.750  0.2750  0.7632  0.6906
30641SOL    HW192501   1.474   6.846   1.684  0.5080 -2.8132  1.7249
30641SOL    HW292502   1.488   6.934   1.805 -1.4520  0.1490 -0.0640
30642SOL     OW92503   9.294   5.266   9.692  0.3080 -0.7685 -0.0360
30642SOL    HW192504   9.210   5.232   9.661 -0.8026  0.9076  0.9549
30642SOL    HW292505   9.287   5.361   9.680  2.9009 -0.7148 -1.8583
30643SOL     OW92506   2.030   2.228   9.631 -0.6081  0.7485 -0.3897
30643SOL    HW192507   1.969   2.218   9.704  0.2394 -0.0400  0.2220
30643SOL    HW292508   2.116   2.225   9.671 -0.1250  0.2697 -1.4393
30644SOL     OW92509   3.671   5.750   0.845  0.1208  0.6712 -0.1474
30644SOL    HW192510   3.626   5.819   0.894 -0.3048  0.3958 -0.1463
30644SOL    HW292511   3.642   5.763   0.754 -0.7274 -0.0971  0.0007
30645SOL     OW92512   9.606   7.501   8.427 -0.4807 -0.4511 -0.1669
30645SOL    HW192513   9.548   7.577   8.420 -0.3056 -0.3769 -0.9264
30645SOL    HW292514   9.561   7.432   8.378  0.1487 -0.3306 -0.9494
30646SOL     OW92515   2.128   2.309   8.497  0.0697 -0.4087 -0.0062
30646SOL    HW192516   2.065   2.380   8.506 -0.4951 -1.0531  1.3850
30646SOL    HW292517   2.180   2.312   8.577 -0.8322 -2.3285  0.7280
30647SOL     OW92518   6.225   6.700   2.784  0.4204  0.4521  0.1238
30647SOL    HW192519   6.222   6.620   2.837 -0.2624  0.9516  0.8586
30647SOL    HW292520   6.163   6.685   2.713 -0.1681  0.5507  0.6048
30648SOL     OW92521   5.028   8.889   6.156 -0.3051 -0.3086  0.2019
30648SOL    HW192522   4.986   8.878   6.071  0.0096  0.5590 -0.0728
30648SOL    HW292523   5.107   8.836   6.150 -0.2856 -0.2539 -0.0410
30649SOL     OW92524   2.513   2.253   8.646 -0.5917 -0.0732  0.2488
30649SOL    HW192525   2.455   2.259   8.722 -1.9648  3.7961 -0.8246
30649SOL    HW292526   2.584   2.196   8.674 -2.6292 -1.4211  3.2431
30650SOL     OW92527   9.377   2.848   4.207 -0.1268 -0.5024  0.0928
30650SOL    HW192528   9.382   2.943   4.202 -0.0338 -0.3866  1.8332
30650SOL    HW292529   9.369   2.819   4.116  1.1856  1.0794 -0.5588
30651SOL     OW92530   1.368   3.234   9.378  0.0804 -0.2368 -0.1654
30651SOL    HW192531   1.333   3.173   9.313  0.5667  0.4396 -1.0930
30651SOL    HW292532   1.309   3.309   9.375 -2.1111 -1.6221  2.8645
30652SOL     OW92533   9.496   3.286   8.261  0.0860  0.0446  0.0832
30652SOL    HW192534   9.436   3.254   8.327 -0.2665 -0.2562 -0.3768
30652SOL    HW292535   9.536   3.208   8.224  0.5271  0.2276  0.1662
30653SOL     OW92536   4.004   6.285   7.446  0.2758 -0.0528  0.2043
30653SOL    HW192537   4.021   6.191   7.456 -1.4948 -0.4524 -0.2135
30653SOL    HW292538   4.035   6.324   7.528 -1.2904 -1.3725  1.5032
30654SOL     OW92539   3.331   0.918   7.685  0.2095  0.9247 -0.0962
30654SOL    HW192540   3.364   0.829   7.699  2.5606  1.2793 -2.4719
30654SOL    HW292541   3.276   0.936   7.761 -0.9349 -2.7763  0.1461
30655SOL     OW92542   6.972   6.473   1.155  0.0120  0.3876  0.5574
30655SOL    HW192543   6.995   6.549   1.209 -0.7686  1.0835 -0.0687
30655SOL    HW292544   7.034   6.405   1.182  0.0664  0.9257  1.8455
30656SOL     OW92545   1.188   0.180   8.791 -0.0973 -0.2202 -0.1690
30656SOL    HW192546   1.194   0.275   8.802 -1.6128 -0.0129 -0.8760
30656SOL    HW292547   1.202   0.145   8.878 -0.0375  0.6834  0.1968
30657SOL     OW92548   6.501   2.131   2.440 -0.3612  0.1281 -0.3034
30657SOL    HW192549   6.505   2.184   2.360 -0.3702 -1.8733 -1.6931
30657SOL    HW292550   6.591   2.100   2.453 -0.2108  0.9811  0.8971
30658SOL     OW92551   0.955   4.769   4.252  0.1461 -0.1693 -0.1852
30658SOL    HW192552   0.964   4.839   4.316 -2.0286  0.0333 -0.0039
30658SOL    HW292553   1.020   4.788   4.185  0.2679  1.4553  0.3604
30659SOL     OW92554   4.578   7.751   1.833 -0.3427 -0.0289  0.2399
30659SOL    HW192555   4.669   7.722   1.840 -0.0067  1.0131  0.4308
30659SOL    HW292556   4.541   7.699   1.761  1.5625  2.2040 -2.6007
30660SOL     OW92557   5.306   1.108   7.106  0.3215  0.8316  0.3691
30660SOL    HW192558   5.345   1.030   7.144  0.3533  0.6321 -0.0649
30660SOL    HW292559   5.376   1.173   7.105  1.2430 -0.0828 -2.1196
30661SOL     OW92560   3.063   2.978   0.891 -0.0080 -0.1270  0.0777
30661SOL    HW192561   3.078   2.948   0.981  2.2448 -0.5521 -0.3625
30661SOL    HW292562   3.143   3.027   0.869 -1.6369  2.2884 -0.8242
30662SOL     OW92563   0.279   9.933   5.475  0.0680 -0.2468 -0.1089
30662SOL    HW192564   0.241  10.011   5.434 -1.7515  0.0359  1.8969
30662SOL    HW292565   0.304   9.877   5.402 -1.3821  0.9497 -1.6061
30663SOL     OW92566   8.852   0.802   8.064  0.3672  0.0647  0.3183
30663SOL    HW192567   8.800   0.879   8.089  0.8494  0.8440 -0.9781
30663SOL    HW292568   8.867   0.813   7.971  1.5834 -0.9374  0.3795
30664SOL     OW92569   1.645   2.484   6.247  0.7376  0.0636 -0.3054
30664SOL    HW192570   1.690   2.524   6.172  1.0659  0.1727 -0.0571
30664SOL    HW292571   1.646   2.553   6.314 -0.9839  0.5418 -0.7348
30665SOL     OW92572   9.111   6.519   7.600 -0.2947 -0.2341 -1.1495
30665SOL    HW192573   9.044   6.544   7.536 -1.7004 -0.1504  0.3031
30665SOL    HW292574   9.181   6.582   7.586 -1.9802  1.9422 -0.4197
30666SOL     OW92575   9.108   1.649   5.044 -0.1305 -0.1265  0.1535
30666SOL    HW192576   9.194   1.606   5.041 -0.2704 -0.4132  0.2129
30666SOL    HW292577   9.045   1.577   5.035 -0.3761  0.0283  0.6182
30667SOL     OW92578   9.022   1.302   7.020  0.1420 -0.7177  0.0685
30667SOL    HW192579   9.037   1.297   6.926  1.7364  1.6839  0.1146
30667SOL    HW292580   8.931   1.331   7.028 -0.2741 -1.7445 -0.6639
30668SOL     OW92581   1.813   4.050   4.017  0.3456  0.8436  0.1200
30668SOL    HW192582   1.887   4.007   4.060  0.4657 -0.0619 -0.9343
30668SOL    HW292583   1.822   4.142   4.038  1.7683  0.7381  0.0293
30669SOL     OW92584   8.793   3.631   6.562  0.0027 -0.5091  0.5729
30669SOL    HW192585   8.829   3.706   6.609  3.0754 -1.3253 -0.2507
30669SOL    HW292586   8.765   3.571   6.631 -0.1464  0.3237  1.2549
30670SOL     OW92587   3.764   5.307   4.986 -0.0641 -0.2783 -0.5057
30670SOL    HW192588   3.717   5.290   4.904 -0.5099 -0.6931 -0.1702
30670SOL    HW292589   3.771   5.221   5.027  2.1373 -0.4681 -1.1430
30671SOL     OW92590   3.489   2.444   6.147  0.1677  0.0890 -0.4197
30671SOL    HW192591   3.534   2.359   6.151  1.5937  0.8244  3.0061
30671SOL    HW292592   3.558   2.506   6.126  0.4708  0.9374  2.5373
30672SOL     OW92593   6.531   9.127   9.733  0.4683 -0.6543 -0.2357
30672SOL    HW192594   6.559   9.167   9.651  0.9802  1.8984  1.0893
30672SOL    HW292595   6.496   9.199   9.785 -0.4176 -2.2873  1.5923
30673SOL     OW92596   0.499   4.529   8.210 -0.5476 -0.0116 -0.1789
30673SOL    HW192597   0.462   4.616   8.228 -2.1005 -0.7845  0.5191
30673SOL    HW292598   0.443   4.492   8.142 -0.0352 -0.5545 -0.3149
30674SOL     OW92599   8.911   6.247   2.000  0.1953 -0.0071 -0.0751
30674SOL    HW192600   8.917   6.184   2.072  0.9918 -0.1372 -0.2521
30674SOL    HW292601   8.889   6.195   1.923 -0.4636  0.1080  0.0286
30675SOL     OW92602   7.792   2.173   0.250 -0.1328 -0.2409  0.3199
30675SOL    HW192603   7.720   2.235   0.249  1.0137  1.2071 -1.5460
30675SOL    HW292604   7.772   2.112   0.320 -1.9420  1.5224  1.4216
30676SOL     OW92605   3.081   1.061   4.510 -0.2570 -0.8356  0.1566
30676SOL    HW192606   3.064   0.987   4.569  0.4678 -1.6050 -0.5820
30676SOL    HW292607   3.167   1.094   4.538 -0.3994 -0.5216  0.2236
30677SOL     OW92608   0.177   5.654   1.466  0.2956 -0.4393  0.1747
30677SOL    HW192609   0.132   5.721   1.414 -1.0346 -1.9496 -0.7091
30677SOL    HW292610   0.166   5.682   1.557 -0.1782  0.5617 -0.1759
30678SOL     OW92611   0.604   4.948   4.712 -0.1469 -0.2140 -0.4341
30678SOL    HW192612   0.694   4.977   4.696  0.0029  0.5941  1.5802
30678SOL    HW292613   0.560   5.025   4.748 -1.8127 -0.4560 -1.8761
30679SOL     OW92614   7.262   2.160   6.652  0.2292  0.1069 -0.0875
30679SOL    HW192615   7.290   2.086   6.705  2.2573  1.1024  0.3106
30679SOL    HW292616   7.334   2.223   6.658 -1.0333  1.7323 -1.1551
30680SOL     OW92617   6.099   9.041   0.033 -0.0885  0.0536  0.0297
30680SOL    HW192618   6.064   9.045   0.122 -0.8876 -1.3450 -0.2118
30680SOL    HW292619   6.064   9.119  -0.010 -3.4340 -1.4979 -0.3553
30681SOL     OW92620   6.543   1.821   4.967  0.5976  0.0419 -0.0494
30681SOL    HW192621   6.485   1.879   4.918  0.8249 -0.7926 -1.3358
30681SOL    HW292622   6.613   1.879   4.998  0.5541  0.5620 -0.8863
30682SOL     OW92623   5.725   1.729   4.607 -0.1543  0.7861 -0.4055
30682SOL    HW192624   5.811   1.767   4.626 -0.4389  0.8600  0.8339
30682SOL    HW292625   5.725   1.646   4.655  0.1042 -0.3939 -2.3248
30683SOL     OW92626   0.378   4.903   1.779 -0.5020 -0.0315 -0.4330
30683SOL    HW192627   0.463   4.905   1.734 -1.1782  1.5703 -1.7572
30683SOL    HW292628   0.326   4.841   1.729 -0.1914 -0.9004  0.2903
30684SOL     OW92629   6.691   0.114   6.226  0.1287  0.2056 -0.2613
30684SOL    HW192630   6.749   0.179   6.186 -1.4604  0.8958 -1.5311
30684SOL    HW292631   6.667   0.055   6.154 -0.3567 -0.3654  0.3504
30685SOL     OW92632   4.827   8.706   6.737  0.5611 -0.6294 -0.1717
30685SOL    HW192633   4.885   8.719   6.812 -1.3645 -1.5892  1.6100
30685SOL    HW292634   4.875   8.648   6.678  1.7095 -0.7271  0.8308
30686SOL     OW92635   1.965   3.794   5.110 -0.1819 -0.6096 -0.1432
30686SOL    HW192636   2.036   3.791   5.173 -1.9790 -1.8491  2.0040
30686SOL    HW292637   1.949   3.702   5.088 -2.1885 -0.5536  0.8255
30687SOL     OW92638   3.631   4.285   2.653  0.3224 -0.0657  0.0881
30687SOL    HW192639   3.659   4.330   2.574  2.2589 -0.4398  0.5075
30687SOL    HW292640   3.561   4.226   2.624  1.9748 -1.2791 -1.6649
30688SOL     OW92641   2.705   5.925   1.523 -0.0367 -0.4109 -0.1820
30688SOL    HW192642   2.769   5.995   1.537  0.5109 -1.0269  0.4147
30688SOL    HW292643   2.729   5.857   1.585 -0.3965 -1.2538 -0.9470
30689SOL     OW92644   7.629   2.063   0.920  0.1992 -0.3005  0.0753
30689SOL    HW192645   7.661   2.153   0.919  0.8658 -0.5120  0.8696
30689SOL    HW292646   7.571   2.059   0.996  0.5193 -0.6479  0.3063
30690SOL     OW92647   6.734   2.973   1.526  0.0851  0.3135 -0.2882
30690SOL    HW192648   6.760   3.033   1.596 -0.8757  1.3331 -0.7758
30690SOL    HW292649   6.639   2.971   1.531  0.1058 -3.1571  1.3260
30691SOL     OW92650   2.054   8.561   8.149 -0.0228  0.4872 -0.2188
30691SOL    HW192651   2.142   8.548   8.184  0.3049  0.2271 -1.1127
30691SOL    HW292652   2.000   8.500   8.200 -0.3035  2.7844  2.4868
30692SOL     OW92653   7.218   6.833   5.320  0.4207  0.3948 -0.0217
30692SOL    HW192654   7.254   6.797   5.239  0.7152 -0.4633  0.4776
30692SOL    HW292655   7.228   6.763   5.384 -1.9196  0.1954  0.2016
30693SOL     OW92656   2.848   4.360   3.340 -0.6891  1.0426 -0.0020
30693SOL    HW192657   2.820   4.328   3.253 -0.6522  1.7555 -0.2840
30693SOL    HW292658   2.779   4.330   3.399  1.0936 -2.8370  0.4609
30694SOL     OW92659   1.592   9.322   4.134  0.0221  0.4817 -0.2482
30694SOL    HW192660   1.498   9.335   4.142 -0.0489  0.4232 -0.8919
30694SOL    HW292661   1.615   9.366   4.052  0.4309 -0.1136 -0.4619
30695SOL     OW92662   2.630   6.696   6.165 -0.6367 -0.4882 -0.4282
30695SOL    HW192663   2.570   6.652   6.105 -0.4760 -0.8238 -0.3479
30695SOL    HW292664   2.717   6.672   6.133 -0.5507 -0.4656 -0.2109
30696SOL     OW92665   2.412   2.379   1.515  0.8546  0.3864 -0.2010
30696SOL    HW192666   2.444   2.463   1.481 -0.9841  1.9337  1.6445
30696SOL    HW292667   2.335   2.402   1.567  0.3589 -2.4647  0.4751
30697SOL     OW92668   4.277   3.165   2.402  0.5689 -0.6956 -0.4012
30697SOL    HW192669   4.277   3.075   2.371  0.1856 -0.8744  0.1135
30697SOL    HW292670   4.261   3.159   2.496  1.1085 -0.1201 -0.2677
30698SOL     OW92671   3.535   9.244   8.117  0.4949 -0.1726  0.0034
30698SOL    HW192672   3.456   9.207   8.077  0.7458  0.2402 -0.9022
30698SOL    HW292673   3.599   9.172   8.115  0.2236 -0.4283  0.5023
30699SOL     OW92674   6.245   2.867   9.003  0.6276 -0.2215  0.0044
30699SOL    HW192675   6.287   2.908   8.928 -0.7986 -0.9848 -1.2616
30699SOL    HW292676   6.246   2.773   8.983 -0.3174 -0.3860  0.6378
30700SOL     OW92677   7.643   3.093   9.407  0.4791  0.5213 -0.6968
30700SOL    HW192678   7.615   3.038   9.334 -0.9985  0.2519  0.0344
30700SOL    HW292679   7.597   3.058   9.483  2.2765  0.5631  0.4551
30701SOL     OW92680   7.200   0.925   1.766  0.1947  0.0630 -0.5631
30701SOL    HW192681   7.186   0.832   1.749 -0.3834  0.0436  0.0050
30701SOL    HW292682   7.296   0.935   1.764  0.2487 -0.4752 -0.9449
30702SOL     OW92683   2.102   4.506   6.273  0.4168 -0.0141  0.1350
30702SOL    HW192684   2.007   4.501   6.282  0.3682 -1.4381 -0.8260
30702SOL    HW292685   2.116   4.562   6.198  0.2765 -0.6417 -0.3722
30703SOL     OW92686   0.733   3.636   0.333  0.2860  0.1965 -0.0063
30703SOL    HW192687   0.755   3.557   0.382  0.7043  1.6715  2.3775
30703SOL    HW292688   0.803   3.644   0.268  1.1075 -0.5492  0.7603
30704SOL     OW92689   7.745   4.107   6.972  0.1143 -0.4609 -0.5512
30704SOL    HW192690   7.826   4.062   6.949  0.2014 -0.3229 -0.5177
30704SOL    HW292691   7.708   4.054   7.042  0.4540 -0.2276 -0.1868
30705SOL     OW92692   9.950   2.419   1.897  0.3799 -0.2833  0.0961
30705SOL    HW192693  10.008   2.389   1.827 -0.6615 -3.3429  0.3498
30705SOL    HW292694   9.872   2.364   1.888 -1.3284  1.7455  1.4595
30706SOL     OW92695   4.196   5.259   0.352  0.7466 -0.0941 -0.4656
30706SOL    HW192696   4.109   5.254   0.391  0.6465  1.9895 -0.3085
30706SOL    HW292697   4.253   5.211   0.412 -0.1621 -0.9003 -0.2228
30707SOL     OW92698   7.637   6.901   8.774  0.2605  0.2872  0.2335
30707SOL    HW192699   7.716   6.949   8.749 -0.3179  1.5535  0.7274
30707SOL    HW292700   7.582   6.967   8.817 -0.0231 -1.1092  2.1528
30708SOL     OW92701   3.212   8.697   9.521  0.0506  0.1762 -0.9686
30708SOL    HW192702   3.163   8.655   9.591 -1.0480  1.4368 -0.9523
30708SOL    HW292703   3.300   8.659   9.528 -0.0353  0.2399  1.0627
30709SOL     OW92704   9.569   5.119   1.011  0.0154  0.3478  0.1695
30709SOL    HW192705   9.480   5.088   1.027  0.4752 -0.5675  1.0317
30709SOL    HW292706   9.596   5.074   0.930 -0.8169  1.7945 -0.9685
30710SOL     OW92707   3.469   8.601   7.477  0.5144  0.4598 -0.2521
30710SOL    HW192708   3.490   8.675   7.534  0.5176  0.9482 -0.8781
30710SOL    HW292709   3.554   8.573   7.442  0.5962 -0.2941  0.5234
30711SOL     OW92710   2.393   7.087   3.498  0.1320 -0.3769 -0.3767
30711SOL    HW192711   2.330   7.016   3.511  0.0728 -0.2547 -0.0004
30711SOL    HW292712   2.465   7.067   3.558 -0.8402  1.0081  1.3385
30712SOL     OW92713   7.498   5.911   2.819  0.3304  0.6624  0.1195
30712SOL    HW192714   7.529   5.820   2.821  2.3290  1.2460 -1.0584
30712SOL    HW292715   7.409   5.907   2.854 -0.6471 -2.1685 -2.2604
30713SOL     OW92716   4.607   6.646   7.875 -0.2268  0.0262 -0.1730
30713SOL    HW192717   4.633   6.654   7.967 -1.9793  1.6817  0.2343
30713SOL    HW292718   4.596   6.736   7.845  2.0927 -0.3522 -2.6227
30714SOL     OW92719   9.269   8.902   4.059 -0.2988  0.3599  0.2582
30714SOL    HW192720   9.247   8.993   4.037  2.1824  0.9163 -0.1544
30714SOL    HW292721   9.192   8.852   4.032 -0.6226  1.9943 -2.1730
30715SOL     OW92722   9.641   8.661   1.614  0.1545 -0.2632 -0.4772
30715SOL    HW192723   9.554   8.637   1.581 -0.0128 -0.7372  0.2580
30715SOL    HW292724   9.664   8.590   1.674  0.0677  0.9354  1.0498
30716SOL     OW92725   0.969   0.091   4.809  0.1276 -0.5700  0.3947
30716SOL    HW192726   0.998   0.173   4.768 -0.5211 -0.5395 -0.0212
30716SOL    HW292727   0.935   0.039   4.737 -1.1266 -0.4787  0.8935
30717SOL     OW92728   8.594   2.609   6.321 -0.1397 -0.5931  0.1233
30717SOL    HW192729   8.597   2.564   6.236 -0.1107 -0.9802  0.3249
30717SOL    HW292730   8.584   2.701   6.299 -2.0960 -0.8584 -0.2795
30718SOL     OW92731   9.242   8.422   2.118 -0.2507  0.4701  0.0495
30718SOL    HW192732   9.194   8.346   2.083 -0.1413  0.8479 -0.9343
30718SOL    HW292733   9.221   8.422   2.212 -1.4581  0.0995 -0.2021
30719SOL     OW92734   2.747   6.107   5.952 -0.4434  0.2333 -0.3401
30719SOL    HW192735   2.838   6.136   5.946  0.1427 -1.6930 -2.0883
30719SOL    HW292736   2.720   6.131   6.041  1.7004  1.0137  0.1673
30720SOL     OW92737   5.616   6.558   2.400  0.4475 -0.2450  0.0189
30720SOL    HW192738   5.680   6.615   2.441 -1.4862  1.0654  1.4058
30720SOL    HW292739   5.610   6.589   2.310  1.0818  0.2294  0.1356
30721SOL     OW92740   1.113   2.874   4.634 -0.1603  0.0862  0.5552
30721SOL    HW192741   1.053   2.940   4.599 -0.2860  0.8187  2.0559
30721SOL    HW292742   1.058   2.796   4.647  0.3400 -0.9635 -2.8011
30722SOL     OW92743   5.114   4.439   5.162 -0.5055 -0.1041 -0.2548
30722SOL    HW192744   5.082   4.378   5.229 -0.7028  1.2269  0.8975
30722SOL    HW292745   5.055   4.427   5.088 -0.7236 -1.0959  0.0626
30723SOL     OW92746   8.769   5.582   4.755  0.2088  0.1191 -0.0342
30723SOL    HW192747   8.690   5.620   4.716 -0.4201 -1.9433 -0.9251
30723SOL    HW292748   8.830   5.572   4.681  1.2453  1.4371  0.5965
30724SOL     OW92749   5.409   5.772   5.641  0.3343  0.3439  0.4183
30724SOL    HW192750   5.319   5.793   5.665  0.0393 -0.5444  0.1437
30724SOL    HW292751   5.463   5.822   5.702 -0.2709  2.6225 -0.8215
30725SOL     OW92752   3.515   5.529   7.229 -0.2810  0.5604  0.5068
30725SOL    HW192753   3.481   5.604   7.180  0.6543  1.1210  0.6878
30725SOL    HW292754   3.443   5.466   7.231 -0.5993  0.8455 -0.9339
30726SOL     OW92755   2.068   4.989   3.722 -0.6453  0.0736  0.3783
30726SOL    HW192756   1.986   4.949   3.750 -2.0800  2.1935 -0.5381
30726SOL    HW292757   2.112   4.920   3.672 -1.9888 -1.0224  0.6465
30727SOL     OW92758   0.563   0.942   0.162  0.3215 -0.0523  0.2373
30727SOL    HW192759   0.492   0.924   0.224  0.5318 -0.7978  0.2667
30727SOL    HW292760   0.632   0.981   0.215 -0.8173  2.6975 -0.1185
30728SOL     OW92761   1.083   8.304   5.236 -0.0640  0.5552 -0.3651
30728SOL    HW192762   1.145   8.267   5.300  0.4012  1.0550 -0.5156
30728SOL    HW292763   1.138   8.356   5.177 -0.6340  1.0143 -0.5019
30729SOL     OW92764   1.233   1.813   9.597  0.1465 -0.4599  0.0077
30729SOL    HW192765   1.288   1.811   9.676  0.6100  1.5669 -0.1978
30729SOL    HW292766   1.229   1.906   9.574 -1.8014 -0.7687 -1.1052
30730SOL     OW92767   1.909   6.832   9.277  0.2285 -0.0552 -0.3274
30730SOL    HW192768   1.917   6.742   9.307  1.5886  0.4085  0.8574
30730SOL    HW292769   1.921   6.885   9.357 -1.6418  1.1690 -0.8011
30731SOL     OW92770   4.021   4.426   5.389  0.1645 -0.1796  0.3123
30731SOL    HW192771   4.043   4.506   5.436 -0.6266 -0.3040  0.9152
30731SOL    HW292772   4.105   4.387   5.367  0.5507  0.5357  0.4960
30732SOL     OW92773   3.421   4.143   7.743 -0.6588  0.6300  0.3142
30732SOL    HW192774   3.471   4.062   7.757 -1.5358 -0.0382 -0.3339
30732SOL    HW292775   3.357   4.144   7.814 -0.6110  0.7943  0.3558
30733SOL     OW92776   3.120   9.228   1.731 -0.0467  0.0594 -0.1300
30733SOL    HW192777   3.107   9.134   1.740 -0.8274  0.1418 -0.2811
30733SOL    HW292778   3.209   9.237   1.697  0.4615 -0.5553  0.9888
30734SOL     OW92779   4.146   6.035   9.805 -0.2851 -0.4230  0.5372
30734SOL    HW192780   4.192   5.983   9.870 -0.1664 -0.4523  0.4315
30734SOL    HW292781   4.190   6.120   9.806 -0.4155 -0.3568  0.6410
30735SOL     OW92782   8.252   5.380   6.679 -0.0908 -0.0350  0.2928
30735SOL    HW192783   8.235   5.448   6.613 -0.4504  0.2740  0.6960
30735SOL    HW292784   8.316   5.322   6.637 -1.5686 -0.8165 -1.0022
30736SOL     OW92785   7.610   6.832   8.398  0.1614  0.6889 -0.1019
30736SOL    HW192786   7.691   6.795   8.363 -0.5663 -1.0791 -0.0569
30736SOL    HW292787   7.557   6.755   8.420 -2.3052  1.7592 -1.8902
30737SOL     OW92788   6.098   6.259   9.243  0.1550  0.5545 -0.0147
30737SOL    HW192789   6.019   6.288   9.289 -0.3856  0.2264 -0.7222
30737SOL    HW292790   6.116   6.173   9.280 -0.7203 -0.0435 -0.9221
30738SOL     OW92791   2.008   7.047   4.502  0.5226 -0.1654 -0.0864
30738SOL    HW192792   1.987   7.030   4.593 -0.1943 -0.2663 -0.2642
30738SOL    HW292793   2.096   7.010   4.490  0.1809 -1.1299  0.2780
30739SOL     OW92794   1.567   7.765   0.472 -0.6538  0.0099  0.2151
30739SOL    HW192795   1.647   7.803   0.435  0.1728 -0.2482  1.6507
30739SOL    HW292796   1.554   7.684   0.423  1.8752 -1.6520  2.0206
30740SOL     OW92797   6.205   6.027   9.366 -0.0771 -0.4858  0.2086
30740SOL    HW192798   6.256   6.002   9.289  2.3966  0.6970  1.3796
30740SOL    HW292799   6.237   5.971   9.436 -0.2266  0.4202  1.0194
30741SOL     OW92800   0.037   9.932   4.906 -0.4256 -0.3212  0.6408
30741SOL    HW192801  -0.040   9.982   4.880 -1.0261 -1.0001  1.0554
30741SOL    HW292802   0.006   9.841   4.911  0.5824 -0.7094  0.1170
30742SOL     OW92803   2.751   8.110   4.709  0.0391  0.4957 -0.6685
30742SOL    HW192804   2.766   8.016   4.721 -1.2591  0.0634 -2.0598
30742SOL    HW292805   2.837   8.150   4.721  1.0927 -1.1366 -2.2951
30743SOL     OW92806   1.939   0.302   2.689  0.2956 -1.1008  0.4060
30743SOL    HW192807   1.942   0.390   2.651 -2.0885  0.2490  3.0107
30743SOL    HW292808   1.854   0.267   2.662  0.0409 -1.4665  1.6207
30744SOL     OW92809   9.238   0.297   7.072 -0.0495  0.2839 -0.3141
30744SOL    HW192810   9.178   0.261   7.138 -0.0940  0.2702 -0.3612
30744SOL    HW292811   9.221   0.391   7.073 -1.5647  0.0695 -1.7883
30745SOL     OW92812   3.943   9.885   2.096 -0.5333  0.0576 -0.5452
30745SOL    HW192813   3.868   9.931   2.060  1.7507  2.0574 -3.1058
30745SOL    HW292814   3.953   9.808   2.040 -0.0689  0.3565 -0.8757
30746SOL     OW92815   5.107   7.897   5.170 -0.1348  0.4097 -0.3151
30746SOL    HW192816   5.147   7.845   5.100 -0.2091 -0.0804 -0.0012
30746SOL    HW292817   5.118   7.843   5.249 -1.0802  0.4390 -0.1555
30747SOL     OW92818   7.615   4.581   8.931 -0.3437  0.4132 -0.4146
30747SOL    HW192819   7.624   4.602   9.024  1.1859 -0.8193 -0.2409
30747SOL    HW292820   7.618   4.666   8.886  2.4933  0.8739  0.4557
30748SOL     OW92821   2.208   2.939   9.331 -0.6364  0.6921  0.2260
30748SOL    HW192822   2.299   2.919   9.309 -0.6417  0.2479  0.5879
30748SOL    HW292823   2.159   2.863   9.297 -0.8585  0.8788  0.1311
30749SOL     OW92824   3.805   0.471   5.089  0.0843 -0.4393 -0.7387
30749SOL    HW192825   3.856   0.448   5.012 -0.4193  0.3424 -1.3181
30749SOL    HW292826   3.742   0.536   5.058  0.6932  0.8414  0.5840
30750SOL     OW92827   7.929   5.266   1.191 -0.3151 -0.6781  0.2921
30750SOL    HW192828   7.902   5.303   1.275  3.8734  2.3903  0.5625
30750SOL    HW292829   7.876   5.313   1.126 -1.1907 -0.6195  1.0235
30751SOL     OW92830   9.423   8.236   3.875 -0.2585  0.3210  0.2444
30751SOL    HW192831   9.432   8.153   3.828 -0.6307  1.1758 -1.4003
30751SOL    HW292832   9.354   8.220   3.939 -0.6005 -0.5169 -0.3150
30752SOL     OW92833   1.299   8.310   0.742  0.1138 -0.3932 -0.2423
30752SOL    HW192834   1.274   8.281   0.829  0.6702  1.1930  0.4940
30752SOL    HW292835   1.216   8.329   0.698 -0.1837  2.0751  1.1785
30753SOL     OW92836   3.161   2.976   3.581  0.3577 -0.3999 -0.1566
30753SOL    HW192837   3.245   2.986   3.625  1.7392 -1.4889 -2.3580
30753SOL    HW292838   3.097   2.972   3.652  2.2252 -0.3115  1.6340
30754SOL     OW92839   7.628   4.395   7.037 -0.4384 -0.8521  0.2764
30754SOL    HW192840   7.554   4.335   7.034 -1.1997 -0.0891  2.3309
30754SOL    HW292841   7.689   4.355   7.100  0.2476 -0.7378 -0.2981
30755SOL     OW92842   0.351   5.432   6.936  0.7239 -0.7903  0.1871
30755SOL    HW192843   0.369   5.378   6.859  0.1106  0.0744 -0.5818
30755SOL    HW292844   0.313   5.371   6.999 -0.2935 -1.2307 -0.7954
30756SOL     OW92845   6.732   7.136   5.925  0.2768 -0.1077 -0.0735
30756SOL    HW192846   6.704   7.128   6.016  0.5463  1.1332  0.1370
30756SOL    HW292847   6.658   7.177   5.880 -0.2727 -1.6744 -0.6610
30757SOL     OW92848   7.728   4.351   3.152 -0.2174 -0.4658  0.4457
30757SOL    HW192849   7.757   4.305   3.073 -1.0920 -0.2444 -0.0201
30757SOL    HW292850   7.797   4.335   3.216 -0.1560 -1.8107  0.0718
30758SOL     OW92851   4.789   8.329   8.959  0.0497  0.1048  0.8616
30758SOL    HW192852   4.842   8.380   8.897 -1.3602 -0.5476 -0.9922
30758SOL    HW292853   4.844   8.319   9.036  2.3606 -0.0170 -0.7267
30759SOL     OW92854   6.813   5.354   1.467 -0.5050  0.5037  0.0049
30759SOL    HW192855   6.755   5.373   1.540 -0.8106 -0.3667  0.0034
30759SOL    HW292856   6.890   5.409   1.482  0.3533 -1.1274  2.1127
30760SOL     OW92857   7.548   7.103   7.838  0.0279 -0.1036 -0.5623
30760SOL    HW192858   7.553   7.156   7.758  0.6662 -0.7520 -0.9611
30760SOL    HW292859   7.583   7.018   7.812  1.1953 -0.0179  0.6572
30761SOL     OW92860   1.792   3.131   9.458 -0.0600 -0.1769 -0.2721
30761SOL    HW192861   1.781   3.045   9.498  1.7458 -1.6009 -2.5387
30761SOL    HW292862   1.873   3.164   9.496 -0.7430  0.5562  0.5834
30762SOL     OW92863   7.093   5.023   7.464  0.7556 -0.5999  0.0507
30762SOL    HW192864   7.058   5.102   7.505  2.0517 -0.5668  1.1542
30762SOL    HW292865   7.034   5.007   7.390 -0.3840  0.5637  0.6526
30763SOL     OW92866   7.180   2.717   0.255 -0.0460 -0.0473  0.4690
30763SOL    HW192867   7.152   2.789   0.310  1.7788 -0.2536  1.7501
30763SOL    HW292868   7.222   2.759   0.180 -2.1436  0.2235 -0.6241
30764SOL     OW92869   5.768   2.763   7.245  0.2367 -0.0888  0.1155
30764SOL    HW192870   5.694   2.709   7.216  1.3285 -0.6631 -1.7494
30764SOL    HW292871   5.845   2.708   7.232  1.1118  0.8872  0.9782
30765SOL     OW92872   1.443   8.824   2.794  0.1729  0.4128  0.5127
30765SOL    HW192873   1.398   8.904   2.767  0.6852  0.3544 -0.5944
30765SOL    HW292874   1.427   8.817   2.888  0.0979  1.7935  0.6157
30766SOL     OW92875   3.918   4.619   2.180 -0.6226 -0.5520 -0.0467
30766SOL    HW192876   3.893   4.666   2.259 -0.3746 -0.5250  0.0149
30766SOL    HW292877   3.880   4.532   2.190  0.6591 -1.0437  0.7888
30767SOL     OW92878   3.483   9.791   6.066 -0.3887  0.3759 -0.9046
30767SOL    HW192879   3.510   9.859   6.128  1.2989 -0.3118 -0.8308
30767SOL    HW292880   3.498   9.830   5.980 -1.2241  0.7592 -0.8839
30768SOL     OW92881   9.621   0.454   4.609 -0.1675  0.1517 -0.5572
30768SOL    HW192882   9.701   0.480   4.654  0.1396  1.2742 -1.7117
30768SOL    HW292883   9.642   0.369   4.570  0.1652  0.0390 -0.1393
30769SOL     OW92884   7.241   4.540   4.555 -0.0354  0.5364  0.0065
30769SOL    HW192885   7.278   4.488   4.627 -2.3954 -2.4031 -0.6888
30769SOL    HW292886   7.306   4.534   4.485 -0.1646 -1.5587 -0.0119
30770SOL     OW92887   6.519   6.368   0.534 -0.6448  0.3678  0.6928
30770SOL    HW192888   6.453   6.384   0.601 -0.1547  1.3287  0.9636
30770SOL    HW292889   6.589   6.429   0.554 -0.2295  0.2590 -0.3523
30771SOL     OW92890   4.606   7.822   0.969  0.1325 -0.0628 -0.1670
30771SOL    HW192891   4.576   7.785   1.052 -1.3814  0.3222 -0.5053
30771SOL    HW292892   4.594   7.751   0.906  3.0382 -0.9895  0.2071
30772SOL     OW92893   5.705   4.677   3.893  0.5153  0.0844 -0.3903
30772SOL    HW192894   5.707   4.629   3.975  1.0148 -1.5718 -1.3264
30772SOL    HW292895   5.736   4.765   3.915 -1.3986  0.3574  1.5646
30773SOL     OW92896   3.992   8.267   5.537  0.2185  0.0065  0.3677
30773SOL    HW192897   3.899   8.246   5.541  0.4410 -0.9213  1.7420
30773SOL    HW292898   4.026   8.242   5.624  1.9069 -0.5152 -0.3920
30774SOL     OW92899   8.507   4.569   7.806  0.1157  0.3438  0.2010
30774SOL    HW192900   8.485   4.533   7.891  0.8439  1.5076  0.9156
30774SOL    HW292901   8.426   4.609   7.775 -0.1977 -0.2399  0.2527
30775SOL     OW92902   6.295   8.665   9.365  0.9711  0.4037 -0.2165
30775SOL    HW192903   6.201   8.683   9.369  0.8062 -0.0935 -1.2116
30775SOL    HW292904   6.333   8.716   9.436 -0.1601 -0.1043  0.7904
30776SOL     OW92905   9.505   4.885   9.278  0.5820  0.2171 -0.7281
30776SOL    HW192906   9.415   4.896   9.307  0.5639  0.7921 -0.9967
30776SOL    HW292907   9.535   4.973   9.257  2.2128  0.4846  2.2887
30777SOL     OW92908   2.326   8.426   4.918  0.1750 -0.0829  1.0271
30777SOL    HW192909   2.381   8.499   4.889  0.5925 -0.0156  1.9398
30777SOL    HW292910   2.263   8.465   4.978 -0.3068 -0.3045  0.6687
30778SOL     OW92911   1.572   2.673   0.163  0.2483 -0.3129 -0.5341
30778SOL    HW192912   1.659   2.633   0.159  0.6838  0.5583 -0.0780
30778SOL    HW292913   1.539   2.649   0.250 -0.0773 -0.8647 -0.8099
30779SOL     OW92914   9.126   7.854   9.000  0.3005  0.0014  0.2525
30779SOL    HW192915   9.183   7.928   8.981  0.0287  0.1171 -0.1440
30779SOL    HW292916   9.182   7.791   9.045 -0.0346  1.4436  2.8859
30780SOL     OW92917   8.442   8.410   8.258 -0.6378 -0.5358 -0.5719
30780SOL    HW192918   8.359   8.373   8.288 -0.6937  1.0727  1.4321
30780SOL    HW292919   8.421   8.498   8.228  0.1959 -0.4766 -1.0296
30781SOL     OW92920   3.165   7.555   1.538 -0.0872 -0.2912 -0.3575
30781SOL    HW192921   3.194   7.463   1.539  0.5586 -0.1718 -2.4634
30781SOL    HW292922   3.150   7.576   1.630  1.3465 -2.0180  0.3438
30782SOL     OW92923   5.035   5.969   0.902 -0.2839  0.0200 -0.0950
30782SOL    HW192924   5.011   5.980   0.994 -0.4859 -1.7732  0.1001
30782SOL    HW292925   4.960   6.004   0.853 -1.7659 -2.1033  0.4941
30783SOL     OW92926   5.017   4.637   5.322  0.5387  0.1485  0.3581
30783SOL    HW192927   4.926   4.627   5.293  0.3578  0.3319  0.8391
30783SOL    HW292928   5.063   4.564   5.283  0.1552 -0.0131  0.2009
30784SOL     OW92929   8.450   9.903   9.027 -0.0101  0.3192 -0.0762
30784SOL    HW192930   8.486   9.919   9.114 -0.2975 -0.8725  0.2805
30784SOL    HW292931   8.519   9.930   8.967  0.2922  0.9074  0.5187
30785SOL     OW92932   1.494   1.078   5.155  0.3100 -0.5050  0.0683
30785SOL    HW192933   1.499   1.013   5.085  2.3855 -1.0524  0.6697
30785SOL    HW292934   1.573   1.065   5.207  0.4359  2.0283  0.6529
30786SOL     OW92935   2.651   5.011   4.615  0.9719 -0.0245 -0.4374
30786SOL    HW192936   2.607   4.958   4.681 -1.7069  0.1238 -1.9799
30786SOL    HW292937   2.685   4.947   4.552  1.2203 -0.0513 -0.2786
30787SOL     OW92938   1.435   5.564   7.531  0.1614  0.3249  0.1647
30787SOL    HW192939   1.525   5.597   7.530 -0.2942  1.7200 -2.7591
30787SOL    HW292940   1.385   5.633   7.574  0.3095 -0.0162  0.9035
30788SOL     OW92941   0.695   1.789   0.818 -0.0584 -0.4115 -0.2980
30788SOL    HW192942   0.698   1.864   0.758 -3.1262 -1.5691 -2.1414
30788SOL    HW292943   0.709   1.713   0.761 -0.1594 -1.4252  0.9941
30789SOL     OW92944   8.189   6.419   9.872  0.1584  0.4962 -0.4390
30789SOL    HW192945   8.212   6.383   9.787 -0.6529  0.4162 -0.6376
30789SOL    HW292946   8.111   6.370   9.898  0.3625  0.5625  0.3182
30790SOL     OW92947   3.995   6.593   5.317 -0.1809 -0.2819  0.0594
30790SOL    HW192948   3.913   6.566   5.358  0.0489 -1.1208 -0.0242
30790SOL    HW292949   3.975   6.596   5.224 -0.0621 -0.6818  0.0211
30791SOL     OW92950   0.400   7.181   4.232  0.1665 -0.3187  0.6196
30791SOL    HW192951   0.344   7.106   4.252 -2.2980  0.6436 -1.8501
30791SOL    HW292952   0.402   7.184   4.136  2.5098  1.1915  0.6348
30792SOL     OW92953   9.488   7.672   4.158  0.1411 -0.0821  0.0072
30792SOL    HW192954   9.456   7.747   4.209  0.7659 -0.4518  0.9692
30792SOL    HW292955   9.552   7.630   4.215  0.2942 -0.9628 -0.7923
30793SOL     OW92956   7.686   9.583   1.712  0.1959  0.4357 -0.0615
30793SOL    HW192957   7.688   9.640   1.635 -1.7190  0.3692 -0.2017
30793SOL    HW292958   7.658   9.498   1.678  1.3669 -0.1662  0.4174
30794SOL     OW92959   8.087   7.794   0.300  0.3437 -0.1139 -0.2722
30794SOL    HW192960   8.173   7.808   0.340  0.3601  0.0542 -0.3674
30794SOL    HW292961   8.046   7.881   0.299  0.1351 -0.2088 -0.1433
30795SOL     OW92962   6.930   8.085   4.809  0.5250  0.1280 -0.2038
30795SOL    HW192963   6.917   8.133   4.891 -1.7963  0.2177 -0.5677
30795SOL    HW292964   6.892   8.141   4.742 -1.1265 -1.5955 -0.8056
30796SOL     OW92965   3.399   4.259   8.997  0.7616 -0.0262 -0.0339
30796SOL    HW192966   3.449   4.229   9.072  1.1246  0.0139 -0.2597
30796SOL    HW292967   3.434   4.346   8.977  1.8769 -0.7284 -1.3204
30797SOL     OW92968   6.363   3.134   8.537 -0.4740 -0.0871 -0.3404
30797SOL    HW192969   6.454   3.114   8.559 -0.5311  0.2706  0.2562
30797SOL    HW292970   6.311   3.079   8.596 -0.6300  1.6797  1.2742
30798SOL     OW92971   9.513   5.399   2.801  0.3206  0.3175  0.4845
30798SOL    HW192972   9.607   5.405   2.786  0.7263 -1.4139  1.9824
30798SOL    HW292973   9.473   5.425   2.717  2.1579 -0.4601 -0.6828
30799SOL     OW92974   6.912   8.653   7.116  0.2617  0.1608 -0.0683
30799SOL    HW192975   6.944   8.563   7.113  0.6351  0.3091 -0.7546
30799SOL    HW292976   6.819   8.646   7.093 -0.1052 -0.2123  1.4080
30800SOL     OW92977   7.508   4.646   2.979 -0.0019  0.1137  0.2774
30800SOL    HW192978   7.533   4.725   2.930 -1.5885 -0.7448 -2.1273
30800SOL    HW292979   7.415   4.658   2.997 -0.1334 -0.9489  0.3663
30801SOL     OW92980   2.316   0.922   7.622 -0.2885  0.0926 -0.0856
30801SOL    HW192981   2.366   0.844   7.600 -0.9116 -0.3287 -0.0040
30801SOL    HW292982   2.326   0.931   7.717  0.7995  0.8222 -0.2413
30802SOL     OW92983   3.301   5.782   9.872 -0.4056  0.7585  0.2229
30802SOL    HW192984   3.396   5.783   9.886 -0.4603 -1.7439  1.3409
30802SOL    HW292985   3.264   5.796   9.960 -1.0278  0.0060  0.0930
30803SOL     OW92986   1.914   7.513   5.882 -0.3499 -0.1015 -0.6604
30803SOL    HW192987   1.842   7.573   5.898 -2.6370 -2.4955 -1.2864
30803SOL    HW292988   1.972   7.524   5.957 -1.4985  1.6949  0.0276
30804SOL     OW92989   8.922   7.167   1.602 -0.4712 -0.4506  0.3610
30804SOL    HW192990   8.885   7.231   1.541  1.3743 -0.8711 -1.3101
30804SOL    HW292991   8.904   7.082   1.562  0.2236 -0.7784  0.7322
30805SOL     OW92992   6.699   4.205   7.753  0.5982 -0.0740  0.2197
30805SOL    HW192993   6.732   4.245   7.833  1.4660  0.3533 -0.3363
30805SOL    HW292994   6.743   4.252   7.682 -0.8229  0.1507 -0.5505
30806SOL     OW92995   9.011   4.939   8.797  0.2624 -0.3794  0.5701
30806SOL    HW192996   9.039   5.026   8.826  0.8148 -0.2173 -0.3846
30806SOL    HW292997   9.071   4.918   8.725  1.8665 -2.6779  2.4430
30807SOL     OW92998   1.653   2.996   4.792  0.5590 -0.3160  0.7433
30807SOL    HW192999   1.616   2.962   4.711 -0.1902  0.4741  0.7399
30807SOL    HW293000   1.617   2.940   4.861  0.9166 -0.7681  0.5654
30808SOL     OW93001   9.911   0.369   1.730  0.2073 -0.2247 -0.1308
30808SOL    HW193002   9.854   0.437   1.691 -0.5374 -1.2979 -0.9872
30808SOL    HW293003   9.956   0.414   1.801 -0.3087  1.1614 -0.6302
30809SOL     OW93004   6.847   7.051   0.112 -0.1345 -0.1738  0.6054
30809SOL    HW193005   6.915   7.042   0.045  1.0087  0.7584  1.5984
30809SOL    HW293006   6.820   6.961   0.131 -1.8662 -0.4308 -2.3868
30810SOL     OW93007   6.279   7.181   0.255  0.5305 -0.3114 -0.7344
30810SOL    HW193008   6.244   7.220   0.335  0.4357 -2.7540  0.5186
30810SOL    HW293009   6.367   7.217   0.247  1.1240 -1.1284  1.3862
30811SOL     OW93010   8.951   5.276   7.383  0.3009  0.0118  0.2783
30811SOL    HW193011   9.036   5.243   7.411 -0.4897 -1.2154  1.3689
30811SOL    HW293012   8.938   5.239   7.296  0.0629 -1.4617  0.9039
30812SOL     OW93013   7.526   0.203   3.753 -0.7443 -0.2304 -0.0169
30812SOL    HW193014   7.470   0.173   3.825 -0.1866 -2.0038 -0.2795
30812SOL    HW293015   7.602   0.147   3.756  1.1954  2.2407  0.4222
30813SOL     OW93016   3.584   1.178   0.846 -0.9297  0.0846  0.1041
30813SOL    HW193017   3.659   1.124   0.871 -0.4154  0.9909  0.5379
30813SOL    HW293018   3.559   1.145   0.760  0.6060  0.4458 -0.5066
30814SOL     OW93019   3.188   1.857   5.417  0.3752 -0.8878  0.4087
30814SOL    HW193020   3.118   1.793   5.405 -0.0306 -0.4392  0.3234
30814SOL    HW293021   3.173   1.892   5.505  0.3540 -0.6315  0.3060
30815SOL     OW93022   7.874   5.940   3.583  0.2705  0.0936  0.4972
30815SOL    HW193023   7.797   5.906   3.628  0.2699 -2.7735 -1.4426
30815SOL    HW293024   7.937   5.869   3.587  1.5579  1.1105 -0.9204
30816SOL     OW93025   5.044   5.492   7.334 -0.0273  0.5307 -0.4377
30816SOL    HW193026   4.976   5.485   7.401  1.6968 -1.3902  1.2951
30816SOL    HW293027   5.100   5.564   7.363 -0.1538  0.7394 -0.7059
30817SOL     OW93028   7.912   6.425   0.695 -0.2532  0.3756  0.6907
30817SOL    HW193029   7.961   6.403   0.774 -0.0121  0.4631  0.5652
30817SOL    HW293030   7.960   6.498   0.656  0.3114 -0.4476 -0.1793
30818SOL     OW93031   4.258   2.208   3.252 -0.2678 -0.2318  0.6960
30818SOL    HW193032   4.295   2.292   3.280 -0.5488  0.1398 -0.0391
30818SOL    HW293033   4.191   2.231   3.188 -0.0573 -1.0421  0.1751
30819SOL     OW93034   7.634   9.061   5.053  0.2613  0.2005  0.9547
30819SOL    HW193035   7.560   9.040   4.995  1.1283 -0.2925 -0.0149
30819SOL    HW293036   7.638   9.156   5.053 -0.4193  0.2334  1.0720
30820SOL     OW93037   0.731   7.249   8.966 -0.0139 -0.4118 -0.0210
30820SOL    HW193038   0.824   7.265   8.978  0.0616 -1.0714  0.3090
30820SOL    HW293039   0.691   7.336   8.969  0.8024  0.0953 -2.2182
30821SOL     OW93040   4.116   5.584   3.130  0.3716  0.4935 -0.2767
30821SOL    HW193041   4.196   5.550   3.089  0.8417  2.1578 -0.8111
30821SOL    HW293042   4.078   5.508   3.175  1.1294 -0.8276 -1.7634
30822SOL     OW93043   4.005   1.057   3.624 -0.2065  0.2658  0.2490
30822SOL    HW193044   4.046   1.079   3.540 -1.1768  0.0278 -0.3063
30822SOL    HW293045   4.011   1.137   3.676  0.2739  0.4604 -0.0994
30823SOL     OW93046   6.433   7.646   1.166  0.0587 -0.2008 -0.2427
30823SOL    HW193047   6.388   7.729   1.180  0.4495  0.0838 -0.6397
30823SOL    HW293048   6.434   7.634   1.071  0.7191 -0.2539 -0.2365
30824SOL     OW93049   3.792   1.204   6.870 -0.0128  0.0813 -0.3090
30824SOL    HW193050   3.845   1.144   6.818  0.4767 -0.1131  0.3977
30824SOL    HW293051   3.839   1.211   6.954 -1.2886 -0.3913  0.4691
30825SOL     OW93052   7.886   0.196   3.515  0.1026 -0.4731 -0.0740
30825SOL    HW193053   7.877   0.141   3.593  1.6824 -0.7660 -0.0723
30825SOL    HW293054   7.797   0.227   3.498 -0.9166 -3.1788 -0.2112
30826SOL     OW93055   3.264   3.445   1.662 -0.2150  0.5800 -0.3524
30826SOL    HW193056   3.317   3.462   1.740 -0.8261  0.0534  0.1953
30826SOL    HW293057   3.183   3.408   1.696 -1.1093  1.7260 -1.1313
30827SOL     OW93058   9.363   3.035   3.818 -0.6562  0.2061  0.0815
30827SOL    HW193059   9.432   3.062   3.879 -1.0753  0.1012  0.5975
30827SOL    HW293060   9.412   3.003   3.741 -0.1401  0.9876  0.0708
30828SOL     OW93061   7.600   9.577   0.663  0.0861  0.0360 -0.1179
30828SOL    HW193062   7.592   9.631   0.741 -0.2567  0.8865 -0.7221
30828SOL    HW293063   7.693   9.556   0.658  0.5601  2.0194 -0.7714
30829SOL     OW93064   9.845   9.454   1.799 -0.4019  0.1334 -0.6340
30829SOL    HW193065   9.839   9.386   1.733 -0.2767 -1.1350  0.6097
30829SOL    HW293066   9.937   9.455   1.826 -0.4669  0.5647 -0.4096
30830SOL     OW93067   9.647   4.399   0.383 -0.4074  0.4723  0.4070
30830SOL    HW193068   9.587   4.412   0.309 -0.1275  0.9572  0.2605
30830SOL    HW293069   9.701   4.324   0.356 -1.9068 -0.9501  1.1810
30831SOL     OW93070   3.164   2.484   3.713  0.2712 -0.4834  0.2605
30831SOL    HW193071   3.123   2.462   3.629 -1.8765 -0.4075  1.2289
30831SOL    HW293072   3.258   2.480   3.695 -0.1196 -0.3204 -2.1769
30832SOL     OW93073   6.015   6.748   7.422 -0.2483 -0.1755 -0.0624
30832SOL    HW193074   5.992   6.735   7.514 -0.8993 -1.5611 -0.3872
30832SOL    HW293075   6.110   6.756   7.422 -0.2315 -0.2995  0.7165
30833SOL     OW93076   5.625   8.888   7.770  0.2756 -0.2896  0.0358
30833SOL    HW193077   5.640   8.982   7.764  1.1041 -0.3069  1.4735
30833SOL    HW293078   5.689   8.857   7.834 -2.1063 -1.3161  2.0950
30834SOL     OW93079   6.744   2.512   7.506 -0.8682  0.4128 -0.3507
30834SOL    HW193080   6.770   2.567   7.580 -1.1336 -0.3846  0.3547
30834SOL    HW293081   6.744   2.571   7.431  1.5215  0.7826 -0.1353
30835SOL     OW93082   2.796   9.296   9.707  0.1824 -0.2230  0.8948
30835SOL    HW193083   2.737   9.238   9.660  1.0410 -0.6967  0.3708
30835SOL    HW293084   2.862   9.321   9.642 -0.5988  2.0166  0.8505
30836SOL     OW93085   8.169   1.435   8.052  0.6923  0.0332  0.1310
30836SOL    HW193086   8.091   1.383   8.035  1.1720 -0.1789 -1.6359
30836SOL    HW293087   8.176   1.438   8.147  0.0075 -2.1857  0.2958
30837SOL     OW93088   6.332   0.869   7.761  0.2916  0.5203  0.4074
30837SOL    HW193089   6.417   0.886   7.801  2.1965  1.7659 -3.6129
30837SOL    HW293090   6.346   0.789   7.709 -1.5105 -0.1253  0.8504
30838SOL     OW93091   3.195   5.084   2.483 -0.3672 -0.1510  0.1783
30838SOL    HW193092   3.255   5.141   2.530  0.1926 -0.5970  0.0139
30838SOL    HW293093   3.110   5.128   2.489  0.1411  0.9378 -0.3369
30839SOL     OW93094   2.241   1.410   7.489 -0.1735  0.4349 -0.4802
30839SOL    HW193095   2.182   1.350   7.444  0.7439  1.0388 -2.6271
30839SOL    HW293096   2.312   1.354   7.521 -1.2770 -0.1276  1.1215
30840SOL     OW93097   6.172   5.199   6.071  0.1263 -0.1313 -0.3983
30840SOL    HW193098   6.250   5.254   6.068 -0.5631  0.8140 -1.3304
30840SOL    HW293099   6.110   5.248   6.126  0.5480 -1.4116  1.3321
30841SOL     OW93100   8.677   7.046   5.991 -0.1026 -0.5111 -0.3346
30841SOL    HW193101   8.617   7.047   6.066  1.4451 -2.1619  1.0139
30841SOL    HW293102   8.685   6.954   5.968  2.2751 -0.4223 -0.1159
30842SOL     OW93103   5.992   8.811   1.773 -0.3010 -0.2976 -0.4050
30842SOL    HW193104   6.070   8.762   1.800  0.1233 -0.0141 -1.0856
30842SOL    HW293105   6.024   8.899   1.753 -0.6200 -0.4214 -1.5642
30843SOL     OW93106   4.720   0.400   2.289 -0.1221 -0.4196 -0.3584
30843SOL    HW193107   4.652   0.441   2.236  1.3910  1.7767 -0.7310
30843SOL    HW293108   4.732   0.314   2.250 -2.9470 -1.1017  0.0167
30844SOL     OW93109   8.307   1.552   0.265 -0.2886  0.0873  0.4130
30844SOL    HW193110   8.294   1.574   0.173 -2.6791 -0.6109  0.5375
30844SOL    HW293111   8.301   1.636   0.311 -1.5342  0.1627  0.1394
30845SOL     OW93112   3.100   6.849   1.519  0.0632 -0.3750 -0.0424
30845SOL    HW193113   3.030   6.805   1.472  1.8962 -0.6157 -2.7820
30845SOL    HW293114   3.099   6.809   1.606 -2.9584 -0.5207 -0.0385
30846SOL     OW93115   9.758   2.471   7.782 -0.5838 -0.1800  0.1559
30846SOL    HW193116   9.677   2.421   7.778 -1.7305  1.5385  0.6132
30846SOL    HW293117   9.796   2.450   7.868 -0.3627 -1.2399 -0.1960
30847SOL     OW93118   7.636   9.703   5.583 -0.1230 -0.4587 -0.4409
30847SOL    HW193119   7.700   9.772   5.598 -1.5136  0.5718  1.2895
30847SOL    HW293120   7.648   9.643   5.657 -1.8947  0.4194  0.6294
30848SOL     OW93121   9.544   4.494   0.748  0.3926 -0.2379 -0.1759
30848SOL    HW193122   9.532   4.449   0.831 -0.1892  2.3882  1.2950
30848SOL    HW293123   9.621   4.454   0.709  0.3551 -1.9250  1.3658
30849SOL     OW93124   8.334   2.990   9.447  0.1328  0.4962 -0.0474
30849SOL    HW193125   8.277   2.988   9.369  1.7418 -0.9883 -1.2745
30849SOL    HW293126   8.292   2.929   9.508 -1.1221  1.6374  0.2914
30850SOL     OW93127   2.591   1.261   9.252  1.0525  0.1224  0.1015
30850SOL    HW193128   2.577   1.312   9.332 -1.3820  0.1257 -0.2669
30850SOL    HW293129   2.593   1.170   9.282 -3.1925 -0.2121  0.0180
30851SOL     OW93130   7.561   3.878   3.191 -0.1097 -0.5676 -0.0682
30851SOL    HW193131   7.550   3.795   3.146 -2.3370 -0.6997  0.5996
30851SOL    HW293132   7.523   3.943   3.131  0.2131 -0.2506  0.0700
30852SOL     OW93133   5.222   2.956   3.780 -0.5670 -0.3829 -0.2759
30852SOL    HW193134   5.154   2.958   3.713 -2.3675 -0.7822  1.4327
30852SOL    HW293135   5.177   2.926   3.859  1.3088  0.6340  1.2762
30853SOL     OW93136   6.242   6.600   0.319 -0.0108  0.1372 -0.0924
30853SOL    HW193137   6.167   6.646   0.280  0.6904 -0.8010 -2.8362
30853SOL    HW293138   6.203   6.528   0.369 -0.9854  1.6441  1.4178
30854SOL     OW93139   7.059   3.148   6.396 -0.0658  0.1970 -0.4573
30854SOL    HW193140   7.016   3.230   6.421  0.9799  0.3055  1.1518
30854SOL    HW293141   7.138   3.145   6.449  1.0329 -0.8482 -2.0664
30855SOL     OW93142   5.765   9.023   3.454  0.3453 -0.3900 -0.6326
30855SOL    HW193143   5.843   8.976   3.485 -0.2511 -1.1289 -0.2403
30855SOL    HW293144   5.693   8.986   3.505 -0.4021 -0.3899 -1.6687
30856SOL     OW93145   8.243   1.804   9.008  0.0871  0.1600 -0.2234
30856SOL    HW193146   8.281   1.887   9.039  0.3767 -0.5192  1.3639
30856SOL    HW293147   8.206   1.825   8.923 -1.3009  2.3611  0.8318
30857SOL     OW93148   8.619   8.396   3.158 -0.0505 -0.2107 -0.1924
30857SOL    HW193149   8.584   8.308   3.172 -0.5422 -0.1934 -1.2140
30857SOL    HW293150   8.714   8.383   3.149 -0.2050 -0.7499 -1.1591
30858SOL     OW93151   8.266   1.250   1.829  0.2969  0.1625  0.3256
30858SOL    HW193152   8.227   1.183   1.885  2.4113 -0.8048  0.7288
30858SOL    HW293153   8.195   1.275   1.770 -0.6229 -2.3234  0.2469
30859SOL     OW93154   9.807   4.456   8.498  0.2923 -0.3003 -0.6711
30859SOL    HW193155   9.747   4.410   8.439 -0.4835 -0.6180  0.3397
30859SOL    HW293156   9.784   4.425   8.585  2.6529 -1.2514 -0.3140
30860SOL     OW93157   7.742   2.641   8.862 -0.4751  0.4497 -0.0109
30860SOL    HW193158   7.816   2.652   8.922 -0.3811  1.6891 -0.3217
30860SOL    HW293159   7.714   2.551   8.874 -0.9051  0.8475  2.3992
30861SOL     OW93160   7.168   8.284   2.512 -0.1922  0.3736 -0.7070
30861SOL    HW193161   7.191   8.371   2.479 -1.4331 -0.1941 -3.3203
30861SOL    HW293162   7.211   8.223   2.452  0.5965 -0.8735  1.0341
30862SOL     OW93163   0.091   6.376   0.302 -0.2418  0.1544 -0.3762
30862SOL    HW193164   0.142   6.434   0.246 -0.1561  0.7053  0.2528
30862SOL    HW293165   0.156   6.315   0.339 -0.4027 -0.6804 -1.4191
30863SOL     OW93166   7.873   8.106   4.666  0.1774  0.2838 -0.3640
30863SOL    HW193167   7.895   8.173   4.732 -1.5245 -0.6908  1.3052
30863SOL    HW293168   7.942   8.041   4.675 -0.2549 -0.0416  0.8115
30864SOL     OW93169   2.645   5.920   0.624  0.0147  0.0137  0.3210
30864SOL    HW193170   2.579   5.862   0.586 -0.8673  0.6380  0.8583
30864SOL    HW293171   2.715   5.923   0.559 -1.0242  0.2960 -0.8193
30865SOL     OW93172   1.268   1.443   3.814 -0.5158 -0.7493 -0.3188
30865SOL    HW193173   1.221   1.359   3.806 -1.5106 -0.3405  0.8798
30865SOL    HW293174   1.198   1.508   3.818  0.2575  0.2361 -1.8533
30866SOL     OW93175   1.551   0.612   3.847  0.0183  0.3853  0.6521
30866SOL    HW193176   1.486   0.617   3.776 -0.5377  1.1986  1.2002
30866SOL    HW293177   1.615   0.548   3.816  0.2359  1.3005 -0.9610
30867SOL     OW93178   5.205   8.463   0.204 -0.5402  0.3665 -0.0978
30867SOL    HW193179   5.247   8.450   0.289 -2.6183  0.9520  1.1017
30867SOL    HW293180   5.255   8.409   0.143  1.6966  0.8097  1.2611
30868SOL     OW93181   2.257   6.739   7.836  0.1573 -0.2376  0.4520
30868SOL    HW193182   2.278   6.832   7.835 -0.4073 -0.1143 -0.0132
30868SOL    HW293183   2.175   6.732   7.787  0.3356 -1.0072  0.2521
30869SOL     OW93184   2.507   9.052   6.773 -0.2489 -0.0959 -0.2843
30869SOL    HW193185   2.500   9.119   6.841  0.8466  0.3188 -0.5634
30869SOL    HW293186   2.596   9.016   6.783  0.0991  0.2746 -1.7604
30870SOL     OW93187   0.734   1.513   0.096  0.6775 -0.0251  0.2405
30870SOL    HW193188   0.721   1.497   0.189 -0.7275 -1.0576 -0.0844
30870SOL    HW293189   0.732   1.608   0.087  0.3581  0.0679  1.2072
30871SOL     OW93190   6.977   6.677   0.979  0.2626 -0.2207 -0.2157
30871SOL    HW193191   6.975   6.584   1.000  0.7404 -1.0370 -3.3653
30871SOL    HW293192   7.058   6.709   1.020  0.1673 -1.1772  0.7774
30872SOL     OW93193   8.683   4.180   5.034 -0.3170 -0.1936 -0.6206
30872SOL    HW193194   8.694   4.096   5.078  0.3824  0.0985 -0.2123
30872SOL    HW293195   8.755   4.183   4.970 -1.0897 -0.4421 -1.5296
30873SOL     OW93196   7.531   7.553   8.323 -0.1212 -0.4927  0.1871
30873SOL    HW193197   7.585   7.627   8.295 -0.1536 -0.6559 -0.3155
30873SOL    HW293198   7.560   7.536   8.413 -0.2314  0.2327  0.3687
30874SOL     OW93199   6.842   0.418   3.849 -0.0993 -0.1122 -0.0015
30874SOL    HW193200   6.756   0.460   3.845  0.1058  0.2265 -1.8910
30874SOL    HW293201   6.896   0.479   3.899 -0.4294  0.7062 -0.6247
30875SOL     OW93202   7.648   7.625   7.202 -0.0822  0.0748  0.6559
30875SOL    HW193203   7.564   7.581   7.216  0.5794 -1.8968 -1.1757
30875SOL    HW293204   7.712   7.572   7.248  0.5256 -0.0372 -0.2895
30876SOL     OW93205   8.538   5.965   0.551 -0.0117 -0.3360  0.2516
30876SOL    HW193206   8.455   6.004   0.524 -0.4266  0.2464  2.2390
30876SOL    HW293207   8.602   6.035   0.544 -0.1254 -0.1763  0.7702
30877SOL     OW93208   7.839   5.770   0.417 -0.7025 -0.0148 -0.3894
30877SOL    HW193209   7.790   5.835   0.366  0.5796  0.5867 -0.9082
30877SOL    HW293210   7.929   5.778   0.385  0.3101  0.8138  2.3659
30878SOL     OW93211   7.995   2.248   0.422 -0.1268 -0.0014 -0.4028
30878SOL    HW193212   7.962   2.223   0.336 -2.4374  1.3408  0.0211
30878SOL    HW293213   7.995   2.167   0.472  0.8454 -0.7137 -1.4870
30879SOL     OW93214   6.821   2.014   4.757 -0.5509 -0.2697  0.2673
30879SOL    HW193215   6.887   2.082   4.745 -0.1798 -0.7387 -0.4218
30879SOL    HW293216   6.871   1.936   4.784 -1.0135 -0.1691  1.4669
30880SOL     OW93217   8.122   3.203   6.804 -0.6003 -0.4845  0.0324
30880SOL    HW193218   8.134   3.110   6.823 -2.6712 -0.4204  2.0642
30880SOL    HW293219   8.129   3.246   6.889 -1.7605  0.9478 -0.5537
30881SOL     OW93220   5.042   6.154   9.346  0.4731 -0.2634 -0.6733
30881SOL    HW193221   5.024   6.087   9.412 -0.0058  0.1609 -0.3648
30881SOL    HW293222   5.026   6.237   9.391  1.0296  0.0584 -1.0634
30882SOL     OW93223   6.553   3.209   0.772 -0.2319  0.1800  0.4673
30882SOL    HW193224   6.534   3.302   0.776  0.8611  0.4724 -0.5356
30882SOL    HW293225   6.479   3.171   0.723 -0.0077  0.7496 -0.3406
30883SOL     OW93226   7.095   5.730   3.108 -0.1033 -0.2374  0.5008
30883SOL    HW193227   7.074   5.644   3.144 -0.6003 -0.7006 -0.8100
30883SOL    HW293228   7.012   5.763   3.075  0.0407  0.8673  1.2322
30884SOL     OW93229   7.365   9.339   6.082 -0.3572  0.3416 -1.2889
30884SOL    HW193230   7.339   9.249   6.064 -2.3896  0.3685  1.0347
30884SOL    HW293231   7.316   9.391   6.018 -0.6806 -0.0715 -1.3792
30885SOL     OW93232   9.301   4.141   1.824  0.2758  0.5957  0.1000
30885SOL    HW193233   9.211   4.126   1.854 -2.1375  4.7083 -3.8039
30885SOL    HW293234   9.345   4.181   1.899 -2.5571  2.2532  1.0503
30886SOL     OW93235   7.905   0.403   1.023 -0.2986  0.0560  0.4424
30886SOL    HW193236   7.938   0.447   1.101 -0.6922 -1.6688  1.6528
30886SOL    HW293237   7.969   0.423   0.954  1.5618 -0.5689  1.9010
30887SOL     OW93238   6.072   5.903   4.631 -0.3088  0.0298  0.7061
30887SOL    HW193239   5.993   5.919   4.683 -0.2162 -4.5665  2.7598
30887SOL    HW293240   6.144   5.920   4.691 -0.0584 -1.4316  0.8689
30888SOL     OW93241   2.635   1.315   4.265 -0.6955  0.7483 -0.1540
30888SOL    HW193242   2.689   1.355   4.333 -1.3298 -1.0835  1.5149
30888SOL    HW293243   2.545   1.333   4.292 -1.0655 -2.6411  1.3659
30889SOL     OW93244   8.433   1.424   1.990  0.2382  0.1172  0.5976
30889SOL    HW193245   8.377   1.490   2.031  1.9294  1.7991  0.3127
30889SOL    HW293246   8.374   1.376   1.933 -1.2326  0.7533  1.5046
30890SOL     OW93247   4.799   3.530   8.220 -0.2564 -0.1066 -0.4537
30890SOL    HW193248   4.782   3.495   8.133 -1.1579  1.2370 -0.8555
30890SOL    HW293249   4.774   3.458   8.279 -1.1725 -0.4857 -1.2612
30891SOL     OW93250   5.427   8.289   7.002 -0.0618  0.1226  0.6580
30891SOL    HW193251   5.416   8.363   7.062 -1.5773  1.9825 -1.7247
30891SOL    HW293252   5.471   8.326   6.926 -0.0787 -1.6495 -0.2638
30892SOL     OW93253   1.867   1.349   0.700  0.1755 -0.3556 -0.4992
30892SOL    HW193254   1.793   1.310   0.653 -0.9929  0.3070  0.7317
30892SOL    HW293255   1.926   1.379   0.630 -1.0925 -0.1861 -1.5412
30893SOL     OW93256   7.821   4.597   8.180  0.1282 -0.2748 -0.2853
30893SOL    HW193257   7.858   4.685   8.189 -0.0245 -0.0762 -1.4020
30893SOL    HW293258   7.897   4.540   8.168  0.2293 -0.2974  0.4673
30894SOL     OW93259   8.017   9.041   5.019  0.0968  0.2146  0.1385
30894SOL    HW193260   8.036   9.129   4.986 -0.5016 -0.3400 -1.8308
30894SOL    HW293261   8.048   8.982   4.950 -1.1686 -1.0423  0.5901
30895SOL     OW93262   4.187   2.534   5.639 -0.6799  0.5395  0.2871
30895SOL    HW193263   4.199   2.627   5.624 -0.8550  0.6883  1.0449
30895SOL    HW293264   4.190   2.495   5.551  0.8193  1.0909  0.0661
30896SOL     OW93265   0.080   8.400   2.794 -0.3415 -0.7282  0.3053
30896SOL    HW193266   0.102   8.453   2.870  0.3709 -0.5934  0.0187
30896SOL    HW293267  -0.004   8.360   2.815 -0.9673  0.6141  0.4721
30897SOL     OW93268   5.405   3.087   9.399  0.8926  0.7596  0.4612
30897SOL    HW193269   5.497   3.097   9.426  1.5781 -1.1516 -0.8838
30897SOL    HW293270   5.355   3.091   9.481  2.4129 -0.3547  1.5018
30898SOL     OW93271   4.741   4.110   1.024  0.3284 -0.0233 -0.4965
30898SOL    HW193272   4.775   4.034   1.070  0.5633  0.2684 -0.1843
30898SOL    HW293273   4.814   4.171   1.020 -0.0867  0.5231 -0.0006
30899SOL     OW93274   0.226   7.729   6.320  0.0952  0.0127  0.0543
30899SOL    HW193275   0.193   7.798   6.262  1.1854 -0.9610 -1.7781
30899SOL    HW293276   0.235   7.773   6.405  2.1820  2.5899 -1.3518
30900SOL     OW93277   1.684   3.563   6.056  0.0681 -0.2732 -0.2024
30900SOL    HW193278   1.748   3.627   6.025 -0.5528 -0.0005 -0.9462
30900SOL    HW293279   1.735   3.502   6.110  0.7911  0.4284 -0.0814
30901SOL     OW93280   4.356   4.451   8.178  0.2497  0.2072  0.5727
30901SOL    HW193281   4.424   4.386   8.161 -0.3322 -0.2746  0.0523
30901SOL    HW293282   4.397   4.513   8.238  0.6180 -0.9911  1.6179
30902SOL     OW93283   9.931   9.706   3.383 -0.4107  0.4829 -0.0260
30902SOL    HW193284   9.836   9.706   3.371 -0.4403  0.8949  0.2029
30902SOL    HW293285   9.951   9.791   3.422  0.1642  0.7871 -0.9514
30903SOL     OW93286   7.225   3.506   2.614  0.1428 -0.2303 -0.2907
30903SOL    HW193287   7.172   3.503   2.535 -0.8379  0.7708  0.3100
30903SOL    HW293288   7.275   3.424   2.612  0.0189 -0.2982 -1.8431
30904SOL     OW93289   3.390   7.504   4.506  0.1615 -1.1305  0.1918
30904SOL    HW193290   3.485   7.502   4.508  0.2003  0.2687  0.3985
30904SOL    HW293291   3.364   7.463   4.589  0.6915  1.5089  1.7757
30905SOL     OW93292   3.180   6.233   9.627  0.6135 -0.4548 -0.2243
30905SOL    HW193293   3.251   6.296   9.614 -0.0846  0.1074 -1.4146
30905SOL    HW293294   3.224   6.150   9.642  1.5360 -0.0818 -0.7973
30906SOL     OW93295   7.094   4.789  -0.000  0.2369  1.1153 -0.1772
30906SOL    HW193296   7.033   4.855   0.033 -1.3794 -0.1860 -0.4098
30906SOL    HW293297   7.070   4.709   0.047  0.9545  0.2946 -1.1663
30907SOL     OW93298   2.352   3.054   2.461  0.0574 -0.2993 -0.0768
30907SOL    HW193299   2.399   3.051   2.545  1.3592  1.3362 -0.6935
30907SOL    HW293300   2.409   3.005   2.401  2.4340  3.6107 -1.3990
30908SOL     OW93301   2.485   1.561   0.192  0.7725  0.0219  0.1042
30908SOL    HW193302   2.437   1.505   0.132 -0.6948  0.5302  0.7656
30908SOL    HW293303   2.508   1.638   0.139  0.0865  0.1653  0.0123
30909SOL     OW93304   7.648   8.608   3.486 -0.1468 -0.3871 -0.0089
30909SOL    HW193305   7.553   8.593   3.487 -0.2833  0.4176 -0.0968
30909SOL    HW293306   7.661   8.678   3.422  0.2378  1.1146  1.6046
30910SOL     OW93307   2.353   3.988   2.111  0.4743  0.2085 -0.4221
30910SOL    HW193308   2.264   4.011   2.085  0.0972  0.2827  0.8973
30910SOL    HW293309   2.396   4.071   2.131 -0.1646  0.0229  2.0285
30911SOL     OW93310   8.823   8.119   5.039 -0.1337 -0.1638 -0.4803
30911SOL    HW193311   8.838   8.124   4.944  1.2216  0.6793 -0.2564
30911SOL    HW293312   8.905   8.083   5.074 -0.0679  0.8894  0.5026
30912SOL     OW93313   7.929   9.565   8.431  0.0629 -0.2809  0.4704
30912SOL    HW193314   7.972   9.562   8.516 -0.5892  0.2251  0.8217
30912SOL    HW293315   7.948   9.479   8.392 -0.1321 -0.7532  1.3724
30913SOL     OW93316   1.599   5.368   4.283  1.5259 -0.3640  0.5514
30913SOL    HW193317   1.518   5.420   4.284  1.6170 -0.0905 -1.5183
30913SOL    HW293318   1.621   5.357   4.376  0.0219  0.9592  1.1279
30914SOL     OW93319   0.029   8.579   8.647 -0.1643  0.6006  0.0139
30914SOL    HW193320   0.055   8.557   8.736  0.8382 -0.6465 -0.5551
30914SOL    HW293321  -0.032   8.651   8.657  1.3735  1.7632  1.6088
30915SOL     OW93322   7.966   2.825   7.527 -0.0479 -0.2903 -0.0681
30915SOL    HW193323   8.006   2.739   7.542  0.8318  0.0859 -0.1742
30915SOL    HW293324   8.034   2.887   7.553 -0.3629  0.3740 -0.8133
30916SOL     OW93325   9.601   6.911   6.586 -0.0047  0.0785  0.2670
30916SOL    HW193326   9.534   6.857   6.626  1.1316 -0.9222  0.8768
30916SOL    HW293327   9.682   6.862   6.597  1.0795  1.8704  0.8146
30917SOL     OW93328   7.570   8.388   1.025  0.3626 -0.3909  0.1057
30917SOL    HW193329   7.476   8.377   1.035  0.4283 -0.5809  0.5391
30917SOL    HW293330   7.583   8.400   0.931 -0.0757 -0.5097  0.0274
30918SOL     OW93331   3.316   5.844   0.526 -0.4145  0.0801  0.4887
30918SOL    HW193332   3.390   5.871   0.581 -0.3146 -0.3621  0.5696
30918SOL    HW293333   3.241   5.842   0.586 -0.2036 -0.9209  0.7287
30919SOL     OW93334   3.698   6.244   7.419 -0.0300 -0.7113 -0.9648
30919SOL    HW193335   3.717   6.162   7.374  0.1858 -0.4308 -1.4047
30919SOL    HW293336   3.780   6.292   7.417 -0.0666 -0.6174 -0.4162
30920SOL     OW93337   9.083   9.869   7.539  0.1374 -0.0344 -0.7742
30920SOL    HW193338   9.029   9.799   7.501 -0.9210 -2.6228  4.4990
30920SOL    HW293339   9.173   9.843   7.520 -0.3127 -1.5977 -0.9311
30921SOL     OW93340   7.870   4.913   6.869 -0.4720  0.5286  0.0333
30921SOL    HW193341   7.789   4.964   6.863 -1.3942 -0.6491  1.6024
30921SOL    HW293342   7.936   4.975   6.898 -1.1753  1.1812  0.2711
30922SOL     OW93343   8.005   0.884   0.302 -0.4404  0.5532  0.4789
30922SOL    HW193344   8.011   0.824   0.228 -1.5477  0.3263  0.5601
30922SOL    HW293345   8.095   0.891   0.335 -0.3425 -1.4362  0.7590
30923SOL     OW93346   6.891   7.003   0.710 -0.3779  0.3076  0.0673
30923SOL    HW193347   6.895   6.927   0.652 -0.4840  0.7717 -0.5485
30923SOL    HW293348   6.879   6.966   0.798  1.0671 -0.4656 -0.0346
30924SOL     OW93349   0.124   8.469   0.063 -0.0433 -0.5117  0.4633
30924SOL    HW193350   0.188   8.536   0.037  0.5808 -0.2329  2.5647
30924SOL    HW293351   0.164   8.425   0.137 -2.1911 -0.4849  1.7119
30925SOL     OW93352   0.085   6.004   8.037 -0.6998 -0.0016  0.4793
30925SOL    HW193353   0.107   5.996   7.945  0.9006 -0.7967  0.8867
30925SOL    HW293354   0.080   5.914   8.069  0.1634  0.2714  1.4455
30926SOL     OW93355   3.259   8.470   3.781 -0.2188  0.4708 -0.0876
30926SOL    HW193356   3.233   8.410   3.850  0.7801  1.3183  1.0575
30926SOL    HW293357   3.354   8.462   3.776 -0.2388  0.6821 -1.1302
30927SOL     OW93358   3.129   6.726   9.113  0.2129 -0.3885  0.5108
30927SOL    HW193359   3.133   6.818   9.089 -2.0134 -0.2013  0.6055
30927SOL    HW293360   3.220   6.697   9.118  0.9010  1.3330 -1.2694
30928SOL     OW93361   8.631   9.001   7.493 -0.0272 -0.0116  0.5992
30928SOL    HW193362   8.645   9.092   7.466  2.4020 -0.2494  0.8414
30928SOL    HW293363   8.718   8.970   7.518 -0.0700 -3.4465 -2.6735
30929SOL     OW93364   0.206   3.737   7.164  0.0221  0.0578 -0.1490
30929SOL    HW193365   0.154   3.795   7.108  2.7550  1.6275 -1.2668
30929SOL    HW293366   0.149   3.661   7.180 -2.4471  1.5058 -1.4465
30930SOL     OW93367   4.936   0.887   9.749 -0.3423  0.2084  0.0509
30930SOL    HW193368   4.905   0.824   9.815  2.1928  0.6106  1.7943
30930SOL    HW293369   5.006   0.840   9.702 -1.3339  0.3345 -1.6134
30931SOL     OW93370   0.805   0.391   2.522 -0.4003 -0.1566  0.1558
30931SOL    HW193371   0.827   0.469   2.470  0.7933 -0.6378 -0.0832
30931SOL    HW293372   0.774   0.328   2.458 -3.9354  0.9273  0.6037
30932SOL     OW93373   5.412   6.120   5.679  0.0970 -0.1902  0.1731
30932SOL    HW193374   5.455   6.092   5.598  3.9519  0.9181  1.6276
30932SOL    HW293375   5.398   6.214   5.667  0.1039 -0.1346  0.5802
30933SOL     OW93376   5.352   2.973   4.760  0.3825 -0.1677 -0.2592
30933SOL    HW193377   5.358   3.059   4.801 -2.3528  0.7685 -1.6071
30933SOL    HW293378   5.264   2.970   4.722  0.2832 -3.6505 -0.1105
30934SOL     OW93379   3.411   1.092   1.456 -0.3472  0.5638 -0.5342
30934SOL    HW193380   3.448   1.098   1.544 -0.7994 -0.8851 -0.2070
30934SOL    HW293381   3.425   1.178   1.417  2.2130  0.4704  0.0072
30935SOL     OW93382   4.130   3.727   6.367 -0.2336 -0.6562  0.2199
30935SOL    HW193383   4.114   3.734   6.272 -0.3081 -1.3970  0.1694
30935SOL    HW293384   4.074   3.654   6.395 -2.3800  1.2930  1.3570
30936SOL     OW93385   6.387   9.517   9.358 -0.0097  0.8865 -0.3483
30936SOL    HW193386   6.467   9.534   9.408 -0.2508 -0.6610  0.6303
30936SOL    HW293387   6.356   9.604   9.332  1.5217  1.5619 -0.0177
30937SOL     OW93388   6.662   0.344   9.183  0.5652 -0.4416 -0.4462
30937SOL    HW193389   6.574   0.322   9.212 -1.0241  0.5873 -3.9447
30937SOL    HW293390   6.656   0.436   9.157  1.6016 -1.2734 -4.0822
30938SOL     OW93391   1.212   3.262   5.731  0.3734  0.0564  0.0169
30938SOL    HW193392   1.283   3.287   5.790 -0.0740  2.4272 -0.3519
30938SOL    HW293393   1.137   3.247   5.788  0.0266  2.0300  0.1491
30939SOL     OW93394   8.960   7.846   3.105  0.2631 -0.2395 -0.0233
30939SOL    HW193395   8.893   7.914   3.114 -0.0125 -0.7015  2.0747
30939SOL    HW293396   9.042   7.894   3.098 -0.1154  0.3138 -0.7566
30940SOL     OW93397   6.841   1.690   5.489 -0.3225  0.0918 -0.4981
30940SOL    HW193398   6.755   1.658   5.516 -0.6469  1.4573  0.1718
30940SOL    HW293399   6.822   1.764   5.431  0.2801  2.7371  2.3990
30941SOL     OW93400   6.342   3.742   3.674  0.2900 -0.5045  0.0260
30941SOL    HW193401   6.419   3.752   3.730  0.3673 -0.2605 -0.1191
30941SOL    HW293402   6.365   3.671   3.614 -0.1856 -1.4604  0.9398
30942SOL     OW93403   0.735   3.570   6.180  0.4336  0.7612  0.1766
30942SOL    HW193404   0.666   3.528   6.127  1.3239  1.2829 -1.4807
30942SOL    HW293405   0.804   3.591   6.117  0.4542  3.8338  1.0412
30943SOL     OW93406   9.522   9.397   7.961  0.0698 -0.8134 -0.3006
30943SOL    HW193407   9.445   9.341   7.954 -0.4447 -0.1235 -0.2217
30943SOL    HW293408   9.590   9.341   7.999 -0.5230 -1.2957  0.0505
30944SOL     OW93409   0.900   3.489   2.165  0.3968  0.0152 -0.6016
30944SOL    HW193410   0.877   3.407   2.122 -3.2220  0.2517  0.4925
30944SOL    HW293411   0.944   3.462   2.246  0.0234 -0.8214 -0.6666
30945SOL     OW93412   5.482   0.933   3.461 -0.4183 -0.0428 -0.2378
30945SOL    HW193413   5.474   0.892   3.547 -0.3594  1.6032  0.6003
30945SOL    HW293414   5.412   0.894   3.409  0.7766 -2.5345 -0.1167
30946SOL     OW93415   5.362   8.165   7.323  0.2706  0.4144  0.3406
30946SOL    HW193416   5.285   8.150   7.378  0.2488  0.3828  0.3011
30946SOL    HW293417   5.356   8.257   7.299 -0.7733 -0.0143 -1.2168
30947SOL     OW93418   7.683   6.791   4.086 -0.3686  0.2397  0.0186
30947SOL    HW193419   7.689   6.711   4.138 -0.6220 -0.7944 -1.4737
30947SOL    HW293420   7.602   6.781   4.035 -0.3881  1.4395 -0.2180
30948SOL     OW93421   5.817   9.958   7.664  0.3413  0.1759  0.6658
30948SOL    HW193422   5.888   9.925   7.610  0.9182  1.8874  0.2986
30948SOL    HW293423   5.848   9.948   7.754  0.2465 -0.7936  0.5958
30949SOL     OW93424   1.498   1.163   6.086  0.0389 -0.0878 -0.0799
30949SOL    HW193425   1.456   1.211   6.158 -0.6528 -0.3464 -0.3080
30949SOL    HW293426   1.585   1.204   6.078 -0.2911  0.6785  0.1712
30950SOL     OW93427   4.487   3.108   6.155  0.6515 -0.1407  0.6483
30950SOL    HW193428   4.476   3.117   6.061  1.8914  0.6793  0.5693
30950SOL    HW293429   4.520   3.018   6.167  0.6745 -0.1800  0.2903
30951SOL     OW93430   3.069   0.890   0.998  0.5578 -0.0072  0.3547
30951SOL    HW193431   3.041   0.833   1.070 -1.4123  0.9849  0.4621
30951SOL    HW293432   3.152   0.926   1.027  0.1338 -0.1496  1.8553
30952SOL     OW93433   5.097   7.804   9.578  0.1246 -0.2963 -0.3925
30952SOL    HW193434   5.106   7.736   9.512  2.6966 -0.1920 -0.2321
30952SOL    HW293435   5.081   7.757   9.660 -2.3639 -0.4506 -0.8940
30953SOL     OW93436   5.046   6.353   3.515  0.5557  0.1177 -0.0305
30953SOL    HW193437   4.999   6.375   3.595 -0.3633  0.0294 -0.5278
30953SOL    HW293438   5.133   6.390   3.527  1.5622 -2.6609  2.3917
30954SOL     OW93439   4.696   2.666   1.650  0.0876 -0.7877  0.1905
30954SOL    HW193440   4.647   2.692   1.572  0.3298 -1.5927 -0.2397
30954SOL    HW293441   4.634   2.614   1.701  0.7674 -2.7678 -0.8878
30955SOL     OW93442   1.739   2.393   7.758 -0.2437 -0.0277 -0.1265
30955SOL    HW193443   1.738   2.314   7.812  1.2509  0.9484  1.4612
30955SOL    HW293444   1.787   2.368   7.680 -0.3765 -0.8726  0.0569
30956SOL     OW93445   1.004   0.190   5.394  0.1280 -0.2447 -0.4052
30956SOL    HW193446   1.040   0.222   5.312  0.4835  0.2149 -0.0761
30956SOL    HW293447   0.919   0.234   5.402  0.0750 -0.3203 -0.5405
30957SOL     OW93448   3.179   7.047   1.118 -0.1180 -0.3300 -0.3096
30957SOL    HW193449   3.141   6.966   1.151  0.8450 -0.5553  0.2938
30957SOL    HW293450   3.117   7.078   1.052 -0.3849 -1.6768 -0.7177
30958SOL     OW93451   2.624   0.982   3.614  0.4221  0.3959 -0.4848
30958SOL    HW193452   2.572   0.909   3.647  1.3884 -0.2746 -0.3863
30958SOL    HW293453   2.703   0.940   3.579  2.0710  1.5340  1.6595
30959SOL     OW93454   9.853   1.165   6.038  0.1700  0.6507 -0.1418
30959SOL    HW193455   9.938   1.141   6.075 -0.9633 -2.6895  0.6216
30959SOL    HW293456   9.810   1.082   6.019 -4.4627  1.8705  3.0379
30960SOL     OW93457   9.309   4.116   9.599 -0.4481 -0.1852  0.0255
30960SOL    HW193458   9.256   4.051   9.644 -0.4977 -0.9514 -1.1048
30960SOL    HW293459   9.247   4.161   9.541 -0.1624 -0.0152 -0.1499
30961SOL     OW93460   5.424   3.752   3.985 -0.2200  0.0076  0.3986
30961SOL    HW193461   5.373   3.728   4.062  0.8971  1.2852  1.5816
30961SOL    HW293462   5.514   3.754   4.016  0.6689 -2.4186 -1.6897
30962SOL     OW93463   5.297   7.006   9.046 -0.0333 -0.5523  0.4760
30962SOL    HW193464   5.258   6.981   8.962 -1.5452 -0.1594  1.0098
30962SOL    HW293465   5.293   7.102   9.046  1.6214 -0.4700  0.2649
30963SOL     OW93466   9.047   9.175   1.114  0.4984  0.2673  0.6678
30963SOL    HW193467   9.129   9.191   1.067 -1.5196 -1.2641 -3.9207
30963SOL    HW293468   8.992   9.250   1.092 -0.5850 -0.5675  0.4809
30964SOL     OW93469   8.590   4.726   6.487  0.3969 -0.2610 -0.2064
30964SOL    HW193470   8.558   4.754   6.573  0.3073 -1.3327  0.1145
30964SOL    HW293471   8.514   4.685   6.445  0.6899 -0.5754 -0.4280
30965SOL     OW93472   0.466   3.083   3.199 -0.1977 -0.1112  0.4840
30965SOL    HW193473   0.535   3.023   3.228 -0.4990 -0.9380 -0.4465
30965SOL    HW293474   0.395   3.026   3.169  0.2349  0.6136 -2.1853
30966SOL     OW93475   8.371   8.680   8.567  0.2381 -0.2762 -0.1351
30966SOL    HW193476   8.436   8.724   8.513  1.6303 -0.4219  1.3406
30966SOL    HW293477   8.374   8.588   8.538 -0.1860 -0.0587 -0.8809
30967SOL     OW93478   3.014   3.758   1.752 -0.6125 -0.4247 -0.1686
30967SOL    HW193479   3.007   3.741   1.846  0.6748 -0.1515  0.0052
30967SOL    HW293480   3.108   3.753   1.734 -0.8275 -0.3223 -1.4154
30968SOL     OW93481   2.219   0.685   3.335  0.3923  0.2714  0.1507
30968SOL    HW193482   2.217   0.591   3.318 -5.3480 -0.1718  1.3680
30968SOL    HW293483   2.210   0.693   3.430  0.4001  2.0423  0.0381
30969SOL     OW93484   8.078   6.459   4.820 -1.0902 -0.2186 -0.0634
30969SOL    HW193485   8.027   6.433   4.896 -1.6654 -0.4533 -0.5195
30969SOL    HW293486   8.014   6.461   4.748 -0.3119 -1.2888 -0.8176
30970SOL     OW93487   3.367   2.583   9.130 -0.0386  0.3009  0.3585
30970SOL    HW193488   3.369   2.659   9.072 -1.0033  0.6973  0.8257
30970SOL    HW293489   3.458   2.553   9.132  0.2472  1.0660 -0.3201
30971SOL     OW93490   4.709   3.404   2.323 -0.0163  0.3475  0.2861
30971SOL    HW193491   4.645   3.333   2.326  2.6011 -2.2149  2.8964
30971SOL    HW293492   4.781   3.370   2.270  0.2507  2.1403 -0.5674
30972SOL     OW93493   1.263   2.381   1.770 -0.2891 -0.3321 -0.8058
30972SOL    HW193494   1.230   2.335   1.692  0.3702  1.3020 -2.1114
30972SOL    HW293495   1.199   2.450   1.786 -0.3894 -0.6221  0.0927
30973SOL     OW93496   5.118   2.163   1.175  0.2908  0.5690 -0.1929
30973SOL    HW193497   5.033   2.157   1.218  0.0201  0.5009 -0.7312
30973SOL    HW293498   5.104   2.125   1.088  0.9989  0.0714 -0.0994
30974SOL     OW93499   9.372   5.901   8.699  0.0894 -0.5045 -0.0657
30974SOL    HW193500   9.389   5.806   8.696 -1.4354 -0.7799 -0.3300
30974SOL    HW293501   9.317   5.918   8.623  0.0774  0.5490  0.1741
30975SOL     OW93502   2.328   5.704   3.384 -0.0942  0.2282  0.7253
30975SOL    HW193503   2.237   5.716   3.355  0.4956  0.9874 -0.9312
30975SOL    HW293504   2.341   5.610   3.382 -0.8605  0.1046  1.0523
30976SOL     OW93505   2.560   2.491   2.539 -0.1592 -0.2700  0.2079
30976SOL    HW193506   2.563   2.473   2.633  1.6999 -0.4266  0.1606
30976SOL    HW293507   2.649   2.522   2.517 -0.9627  1.2175 -1.2266
30977SOL     OW93508   2.048   0.750   3.078  0.0836  0.2914  0.3228
30977SOL    HW193509   2.067   0.744   3.171  1.5158 -0.4399 -0.0001
30977SOL    HW293510   2.126   0.790   3.040  0.0945 -0.6989 -0.7464
30978SOL     OW93511   8.010   8.406   9.928  0.0877  0.3763 -0.4040
30978SOL    HW193512   7.932   8.364   9.892 -1.3548  2.9003 -0.4591
30978SOL    HW293513   8.001   8.498   9.904  3.2922  0.7531 -0.7024
30979SOL     OW93514   2.535   5.306   8.025  0.6622 -0.4259 -0.4587
30979SOL    HW193515   2.510   5.340   8.111 -1.0187 -0.7508 -0.7752
30979SOL    HW293516   2.627   5.281   8.034  0.3999 -0.8724  1.3770
30980SOL     OW93517   0.375   5.203   3.009 -0.1188 -0.2820  0.0304
30980SOL    HW193518   0.318   5.212   3.085 -0.8992  0.4280 -0.6253
30980SOL    HW293519   0.330   5.141   2.952  1.1586 -1.9560  0.7513
30981SOL     OW93520   2.246   8.118   8.828  0.3873  0.4363  0.3452
30981SOL    HW193521   2.328   8.098   8.782  0.2136  1.2556 -0.3405
30981SOL    HW293522   2.274   8.163   8.908  0.6706 -0.6633  0.8871
30982SOL     OW93523   1.021   5.345   0.633  0.7322 -0.2581 -0.2964
30982SOL    HW193524   1.064   5.426   0.662 -1.4185  0.1599  2.2345
30982SOL    HW293525   0.934   5.374   0.605 -0.2414 -1.6558  1.0870
30983SOL     OW93526   8.374   3.306   2.368 -0.3246 -0.6096  0.0871
30983SOL    HW193527   8.389   3.219   2.331  0.3009 -0.1209 -0.8645
30983SOL    HW293528   8.435   3.313   2.441 -1.0522 -1.3164  0.7816
30984SOL     OW93529   3.585   4.862   8.121  0.0292 -0.0591  0.7195
30984SOL    HW193530   3.647   4.800   8.160 -0.0779  0.4956  1.8269
30984SOL    HW293531   3.518   4.874   8.188 -1.2573 -0.5780 -0.4252
30985SOL     OW93532   5.645   6.178   8.135 -0.2010 -0.1988 -0.1330
30985SOL    HW193533   5.622   6.146   8.048  1.0733 -3.8073  0.6905
30985SOL    HW293534   5.569   6.157   8.189  0.9824 -2.9531  0.5978
30986SOL     OW93535   0.078   0.813   7.194  0.9449  0.3611  0.0701
30986SOL    HW193536   0.122   0.766   7.124  0.5685 -2.8286  1.7825
30986SOL    HW293537   0.133   0.890   7.209  3.9680 -1.5434 -0.2930
30987SOL     OW93538   0.424   9.890   8.811  0.1290 -0.9066  0.0465
30987SOL    HW193539   0.510   9.879   8.852  0.5101 -0.4292 -0.6045
30987SOL    HW293540   0.440   9.952   8.740 -0.4920 -1.8026 -0.8956
30988SOL     OW93541   9.529   1.427   9.438  0.0819  0.1617 -0.0614
30988SOL    HW193542   9.590   1.424   9.364  1.1068 -2.5123  0.7589
30988SOL    HW293543   9.569   1.487   9.500  1.9947 -1.5339  0.4568
30989SOL     OW93544   8.900   6.736   6.188  0.1875 -0.5102 -0.4206
30989SOL    HW193545   8.945   6.667   6.138  0.1359 -0.9377  0.1029
30989SOL    HW293546   8.921   6.715   6.279  0.6328  0.4995 -0.2821
30990SOL     OW93547   1.709   3.392   4.518  0.0010 -0.0059  0.3457
30990SOL    HW193548   1.748   3.350   4.594  1.1825  0.4433  0.0082
30990SOL    HW293549   1.621   3.356   4.513  0.9741 -2.4972  0.0358
30991SOL     OW93550   0.441   8.739   6.694 -0.5323 -0.8115 -0.5690
30991SOL    HW193551   0.480   8.690   6.621  0.3088 -1.5601  0.3550
30991SOL    HW293552   0.509   8.742   6.760 -0.2313  2.3900 -0.8648
30992SOL     OW93553   4.290   3.865   0.165 -0.1614  0.0655  0.7690
30992SOL    HW193554   4.363   3.804   0.156  0.4568  0.9197 -0.3101
30992SOL    HW293555   4.331   3.952   0.161 -1.1832  0.5524  0.5687
30993SOL     OW93556   3.686   7.966   8.126  0.7459  0.0775 -0.2519
30993SOL    HW193557   3.697   7.996   8.216 -1.3284 -1.8756  0.7403
30993SOL    HW293558   3.711   7.873   8.128 -0.2624 -0.2485 -1.4384
30994SOL     OW93559   2.855   7.297   4.486  0.0556  0.2858  0.3495
30994SOL    HW193560   2.835   7.216   4.439 -1.7039  1.5199 -1.1889
30994SOL    HW293561   2.949   7.293   4.502  0.3113 -1.2414 -1.2645
30995SOL     OW93562   0.923   9.928   7.970  0.6241  0.0843  0.1496
30995SOL    HW193563   1.011   9.904   7.941  0.5858 -0.2328  0.2929
30995SOL    HW293564   0.935   9.956   8.061  0.1993 -2.5074  1.0820
30996SOL     OW93565   2.811   5.904   2.898  0.1036  0.3156 -0.1588
30996SOL    HW193566   2.742   5.952   2.851  0.5004  1.3501  0.2767
30996SOL    HW293567   2.763   5.845   2.956 -0.5269  2.3845  1.5750
30997SOL     OW93568   6.733   0.444   5.910  0.7040  0.2793  0.2764
30997SOL    HW193569   6.758   0.511   5.846 -0.2369 -1.3618 -1.9369
30997SOL    HW293570   6.647   0.473   5.942  1.0414  0.9527  0.5923
30998SOL     OW93571   5.381   0.564   2.941  0.5726  0.3651 -0.5600
30998SOL    HW193572   5.369   0.571   2.846 -1.8424  1.3453 -0.2539
30998SOL    HW293573   5.476   0.554   2.952  1.0772  1.5338 -3.0038
30999SOL     OW93574   2.622   5.996   7.738 -0.0621 -0.9476  0.2099
30999SOL    HW193575   2.539   5.954   7.759 -0.9405  0.6005 -0.0122
30999SOL    HW293576   2.639   5.971   7.647 -2.0246  1.2889 -0.8978
31000SOL     OW93577   2.653   1.674   2.766  0.8363  0.1622  0.1943
31000SOL    HW193578   2.637   1.661   2.672  1.7941 -0.5464  0.1187
31000SOL    HW293579   2.626   1.764   2.783  0.9158  0.3806 -0.8167
31001SOL     OW93580   4.905   5.102   1.055 -0.4549 -0.6233  0.4904
31001SOL    HW193581   4.951   5.101   0.971 -0.2239  0.2481  0.5963
31001SOL    HW293582   4.963   5.151   1.113 -0.4134 -1.5833  1.2893
31002SOL     OW93583   4.435   2.851   9.799  0.4585  0.6296 -0.2220
31002SOL    HW193584   4.340   2.860   9.796  0.4977  1.1539 -0.0461
31002SOL    HW293585   4.455   2.839   9.892  0.5567  0.4637 -0.2659
31003SOL     OW93586   8.699   7.985   8.483 -0.5756 -0.1662  0.3506
31003SOL    HW193587   8.706   7.969   8.388  0.2980  1.5353  0.0903
31003SOL    HW293588   8.609   8.016   8.495 -0.6956 -0.4068  0.0930
31004SOL     OW93589   6.392   4.741   8.872  0.2082  0.6593  0.1449
31004SOL    HW193590   6.311   4.733   8.823 -0.0396  2.0865  0.2623
31004SOL    HW293591   6.458   4.700   8.816 -0.4318  0.3000 -0.3627
31005SOL     OW93592   2.023   0.308   5.150  0.0657  0.1974 -0.5800
31005SOL    HW193593   2.073   0.232   5.122 -1.5354 -0.4401 -1.8925
31005SOL    HW293594   1.964   0.275   5.218  0.5119  0.6672  0.0579
31006SOL     OW93595   3.059   3.621   9.251 -0.5301 -0.1158  0.3339
31006SOL    HW193596   3.138   3.615   9.197 -0.1652  0.6520  0.7696
31006SOL    HW293597   3.090   3.653   9.336 -1.4112  1.0978  0.2210
31007SOL     OW93598   6.662   1.972   7.066  0.0711  0.3432 -0.9856
31007SOL    HW193599   6.654   2.057   7.109 -1.1855  0.3523 -1.2042
31007SOL    HW293600   6.674   1.910   7.138  1.2954  0.7165 -0.8400
31008SOL     OW93601   3.192   7.280   6.244 -0.0411 -0.4714 -0.0752
31008SOL    HW193602   3.220   7.202   6.292  0.6438  0.1532  0.5775
31008SOL    HW293603   3.125   7.319   6.300 -0.4267 -0.6240 -0.4303
31009SOL     OW93604   8.140   7.715   5.255  0.8565 -0.0153  0.0850
31009SOL    HW193605   8.067   7.724   5.194  1.4404  0.9666 -0.5021
31009SOL    HW293606   8.100   7.695   5.339 -0.1901  1.6436  0.0226
31010SOL     OW93607   6.307   2.394   6.107 -0.1538 -0.0439  0.3468
31010SOL    HW193608   6.340   2.385   6.017  0.8691  1.6626  0.5030
31010SOL    HW293609   6.385   2.410   6.160 -0.9548  1.4239  1.1479
31011SOL     OW93610   6.137   2.085   1.141 -0.7113 -0.6607  0.4183
31011SOL    HW193611   6.044   2.080   1.163 -1.4788  1.4907 -1.7803
31011SOL    HW293612   6.162   2.174   1.166  0.3838 -0.7808 -0.1953
31012SOL     OW93613   5.290   5.032   9.422 -0.0257 -0.4610 -0.1888
31012SOL    HW193614   5.313   5.070   9.507  1.5744 -2.3305  0.2703
31012SOL    HW293615   5.374   5.002   9.386 -1.0525 -2.4298 -1.0527
31013SOL     OW93616   1.444   7.361   3.870 -0.0148 -0.6840 -0.3864
31013SOL    HW193617   1.392   7.325   3.799 -0.5563 -1.0881  0.1993
31013SOL    HW293618   1.529   7.317   3.862  0.5583  0.6209 -1.8717
31014SOL     OW93619   1.441   7.432   9.616 -0.8218  0.4379 -0.0720
31014SOL    HW193620   1.410   7.512   9.658 -2.2482  0.1364 -0.5037
31014SOL    HW293621   1.362   7.388   9.586 -0.2025 -1.9773  1.5970
31015SOL     OW93622   7.335   6.558   9.478  0.2041 -0.4682 -0.3335
31015SOL    HW193623   7.378   6.473   9.474 -1.0057 -1.0688 -0.8235
31015SOL    HW293624   7.269   6.549   9.547 -0.9147 -0.4134 -1.3614
31016SOL     OW93625   1.786   7.506   3.339 -0.0127  0.4758 -0.0554
31016SOL    HW193626   1.879   7.484   3.333 -0.2128 -0.1121 -1.5509
31016SOL    HW293627   1.776   7.548   3.424  1.4109 -0.4463  0.5984
31017SOL     OW93628   8.430   2.809   6.997  0.1413  0.1070 -0.5095
31017SOL    HW193629   8.476   2.855   6.927  1.9321  0.5956  0.9039
31017SOL    HW293630   8.498   2.789   7.061 -1.4813  0.0938  1.3153
31018SOL     OW93631   9.625   0.897   4.348 -0.2589 -0.0454 -0.3649
31018SOL    HW193632   9.639   0.825   4.286 -0.8791 -0.9175  0.4550
31018SOL    HW293633   9.547   0.870   4.398  0.5702  0.3142  1.1915
31019SOL     OW93634   2.969   0.315   5.007  1.0001 -0.6509  0.1998
31019SOL    HW193635   3.030   0.242   5.001  0.6996 -0.8204 -0.9416
31019SOL    HW293636   3.024   0.392   5.021  1.3072 -1.1030  1.6622
31020SOL     OW93637   7.636   8.121   7.787 -0.0704  0.1734 -0.5807
31020SOL    HW193638   7.638   8.186   7.716  0.4695 -0.7504 -1.4477
31020SOL    HW293639   7.547   8.126   7.822 -0.3719  0.5931 -1.3791
31021SOL     OW93640   3.682   4.022   2.507  0.1587 -0.3110 -0.0733
31021SOL    HW193641   3.756   4.078   2.486 -1.2192  0.5288 -3.5126
31021SOL    HW293642   3.718   3.954   2.564  3.0526  1.1895  0.0660
31022SOL     OW93643   6.245   8.247   6.605 -0.0375  0.2718  0.4595
31022SOL    HW193644   6.245   8.342   6.617 -1.4812  0.1677  1.6360
31022SOL    HW293645   6.329   8.228   6.563  0.9121  1.9124  1.5018
31023SOL     OW93646   2.877   6.953   3.877  0.0652  0.1665  0.1053
31023SOL    HW193647   2.894   6.859   3.883 -1.5857 -0.3411 -2.1470
31023SOL    HW293648   2.798   6.967   3.929 -2.1478 -0.5387 -2.8362
31024SOL     OW93649   4.751   6.522   0.631  0.2660  0.4085  0.2248
31024SOL    HW193650   4.796   6.567   0.560  0.3919 -0.4399 -0.2467
31024SOL    HW293651   4.822   6.486   0.685  0.1671  0.0703  0.1334
31025SOL     OW93652   2.155   9.641   7.044 -0.0515 -0.3446  0.0588
31025SOL    HW193653   2.141   9.573   7.110  0.6898  0.5806  1.1950
31025SOL    HW293654   2.231   9.689   7.075 -0.3372  0.7820 -0.9339
31026SOL     OW93655   3.432   5.020   9.851 -0.2662 -0.5423  0.2814
31026SOL    HW193656   3.426   4.937   9.900 -0.3439 -1.7069 -1.6043
31026SOL    HW293657   3.394   5.000   9.765  1.2454  0.9655 -0.7982
31027SOL     OW93658   5.189   2.168   4.973  0.4998  0.5388 -0.0073
31027SOL    HW193659   5.257   2.221   4.931 -0.6011  0.2679 -2.2903
31027SOL    HW293660   5.143   2.230   5.030  1.0031  1.3700 -0.4794
31028SOL     OW93661   0.958   1.046   3.428  0.2618 -0.2080  0.4172
31028SOL    HW193662   1.030   0.984   3.417  0.4202  0.1517 -0.6659
31028SOL    HW293663   0.879   0.993   3.418  0.3948 -0.3375  0.0366
31029SOL     OW93664   1.621   9.590   0.364  0.2673  0.0680  0.5457
31029SOL    HW193665   1.630   9.679   0.397 -3.0993  0.2303  1.3923
31029SOL    HW293666   1.658   9.535   0.433  0.9726  0.7481  0.7152
31030SOL     OW93667   0.251   2.363   9.283  0.1901  0.0586 -0.1838
31030SOL    HW193668   0.209   2.318   9.357 -2.1878 -1.5449 -2.3565
31030SOL    HW293669   0.234   2.306   9.208  0.4927  2.7271 -2.4099
31031SOL     OW93670   9.515   2.108   0.416  0.2638  0.0846  0.0072
31031SOL    HW193671   9.461   2.043   0.369 -1.9042  2.7204 -1.4442
31031SOL    HW293672   9.461   2.134   0.490  0.2462  1.5412 -0.4932
31032SOL     OW93673   4.083   5.412   2.305  0.2109 -0.4452  0.1161
31032SOL    HW193674   4.044   5.434   2.390  0.6952  1.0152  0.0014
31032SOL    HW293675   4.075   5.493   2.254  0.8522 -0.9901 -0.8734
31033SOL     OW93676   8.642   9.442   8.311 -0.4546 -0.5521 -0.0625
31033SOL    HW193677   8.596   9.445   8.228 -1.6219 -1.9012  0.4872
31033SOL    HW293678   8.713   9.506   8.302 -1.8720  0.9307 -1.2733
31034SOL     OW93679   5.604   9.308   6.683 -0.0066 -0.2289  0.4908
31034SOL    HW193680   5.655   9.364   6.742 -0.2278 -0.3501  0.7986
31034SOL    HW293681   5.670   9.267   6.627  0.1964 -0.0197  0.5716
31035SOL     OW93682   3.816   7.521   6.578  0.1601 -0.7010  0.5009
31035SOL    HW193683   3.724   7.521   6.603  0.6301 -1.1398  2.4567
31035SOL    HW293684   3.820   7.468   6.499 -1.3320 -0.2091  0.0798
31036SOL     OW93685   2.696   9.942   0.477 -0.4362 -0.5533 -0.2399
31036SOL    HW193686   2.606   9.956   0.506 -0.4514  1.0394 -0.9271
31036SOL    HW293687   2.693   9.859   0.428 -1.3664 -0.8708  0.3262
31037SOL     OW93688   9.370   5.789   3.592 -0.4183  0.0546 -0.4267
31037SOL    HW193689   9.444   5.757   3.541  0.8524  1.2051  0.5972
31037SOL    HW293690   9.305   5.719   3.588  1.5958 -1.9988  0.4547
31038SOL     OW93691   2.953   4.625   4.554 -0.3344  0.2825  0.5828
31038SOL    HW193692   2.995   4.540   4.546 -1.3003 -0.1987  0.5045
31038SOL    HW293693   2.945   4.639   4.648  0.3945  0.5971  0.6136
31039SOL     OW93694   2.695   8.111   3.383 -0.1371 -0.4838 -0.5067
31039SOL    HW193695   2.729   8.026   3.412 -0.1240 -0.1890  0.3749
31039SOL    HW293696   2.702   8.167   3.460 -1.4706 -0.0729 -0.6550
31040SOL     OW93697   6.495   4.838   1.992 -0.1881 -0.2760  0.1073
31040SOL    HW193698   6.503   4.868   1.901 -0.3923 -3.2137 -0.9713
31040SOL    HW293699   6.560   4.769   2.001  1.3508  1.3510  2.9457
31041SOL     OW93700   7.752   3.742   2.629 -0.1254 -0.5559  0.5837
31041SOL    HW193701   7.795   3.738   2.544 -0.3769 -0.2027  0.4374
31041SOL    HW293702   7.671   3.693   2.619 -0.6820  0.3976  0.2973
31042SOL     OW93703   3.796   5.696   0.025  0.0200  0.6456  0.1447
31042SOL    HW193704   3.860   5.629   0.000 -0.4537 -0.0078  0.6762
31042SOL    HW293705   3.838   5.778  -0.001  0.7922  0.1826 -0.1270
31043SOL     OW93706   4.820   6.280   7.814 -0.3178  0.7076  0.3159
31043SOL    HW193707   4.740   6.243   7.852  0.1038 -2.4675 -1.4937
31043SOL    HW293708   4.891   6.247   7.869 -0.0899  1.3373  0.4043
31044SOL     OW93709   6.721   8.576   7.531  0.0771 -0.1598 -0.3667
31044SOL    HW193710   6.647   8.536   7.577 -0.2913  0.4114 -0.4497
31044SOL    HW293711   6.786   8.505   7.524 -0.3709 -0.6062 -0.1033
31045SOL     OW93712   3.655   6.097   9.960  0.3735  0.7347  0.3976
31045SOL    HW193713   3.629   6.135   9.876 -0.5424  1.2252  0.8988
31045SOL    HW293714   3.746   6.070   9.946 -0.3805 -1.1640 -1.4589
31046SOL     OW93715   1.573   2.043   6.149  0.2733 -0.0705 -0.3161
31046SOL    HW193716   1.533   1.991   6.079  0.3769 -1.1557  0.4028
31046SOL    HW293717   1.648   1.991   6.177  1.6779  1.4969 -1.0198
31047SOL     OW93718   0.553   6.061   8.908  0.0770  0.4258 -0.2879
31047SOL    HW193719   0.560   6.156   8.901  5.1895  0.4283  0.7203
31047SOL    HW293720   0.530   6.045   9.000  0.6866  0.7209 -0.0800
31048SOL     OW93721   6.526   3.971   4.991  0.3839  0.5685  1.0241
31048SOL    HW193722   6.434   3.953   4.971  0.4697 -0.0049  1.1184
31048SOL    HW293723   6.529   3.978   5.086  1.0449 -3.3128  1.4407
31049SOL     OW93724   1.406   9.433   6.383 -0.1690  0.8850 -0.0977
31049SOL    HW193725   1.489   9.476   6.367 -0.5500  1.8903  0.5591
31049SOL    HW293726   1.381   9.397   6.298  0.0988  2.0579 -0.6900
31050SOL     OW93727   8.968   5.562   4.478  0.0193 -0.2819  0.3389
31050SOL    HW193728   8.963   5.507   4.401 -1.4001  0.6759 -0.3139
31050SOL    HW293729   9.061   5.571   4.497  0.3238 -1.6424 -0.4271
31051SOL     OW93730   2.351   6.240   6.123  0.1601  0.2812  0.1884
31051SOL    HW193731   2.342   6.295   6.045 -0.2848 -0.0553 -0.0022
31051SOL    HW293732   2.276   6.181   6.120  1.5560 -1.5822 -0.6098
31052SOL     OW93733   1.559   2.384   2.773  0.4599  0.3285  0.8213
31052SOL    HW193734   1.500   2.309   2.769  2.3953 -1.2260 -1.0465
31052SOL    HW293735   1.622   2.362   2.841  1.6156 -0.2808 -0.3934
31053SOL     OW93736   9.062   8.826   0.936  0.3283  0.7515 -0.5913
31053SOL    HW193737   9.012   8.899   0.899  1.0553  1.4720 -0.1855
31053SOL    HW293738   8.997   8.756   0.947  0.3329 -0.1458 -4.7088
31054SOL     OW93739   0.469   7.487   6.678  0.3023  0.2130  0.3549
31054SOL    HW193740   0.405   7.444   6.735 -0.5218 -0.4076 -0.9773
31054SOL    HW293741   0.552   7.443   6.698 -0.0573 -0.2950  0.7582
31055SOL     OW93742   4.549   0.995   8.934 -0.5841  0.2665  0.8233
31055SOL    HW193743   4.638   1.025   8.952 -0.8302  1.2883  0.3660
31055SOL    HW293744   4.503   1.004   9.017 -1.1706  3.0503  0.2938
31056SOL     OW93745   3.052   7.777   0.416 -0.0425 -0.1334  0.2465
31056SOL    HW193746   3.124   7.836   0.393 -0.2252  0.1986  0.5275
31056SOL    HW293747   3.077   7.741   0.501 -0.1250 -0.1497  0.2640
31057SOL     OW93748   8.130   1.028   8.719 -0.0683  0.0043 -1.0821
31057SOL    HW193749   8.205   1.006   8.774 -0.5755  1.6075  0.3397
31057SOL    HW293750   8.121   0.953   8.660  2.3178 -0.4614 -0.9644
31058SOL     OW93751   1.042   1.641   8.830 -0.8512  0.1204 -0.1930
31058SOL    HW193752   0.977   1.590   8.878 -0.7312  1.0460  1.0086
31058SOL    HW293753   0.997   1.723   8.809  0.1653  1.1656  1.4850
31059SOL     OW93754   5.626   2.161   7.156 -0.9556  0.0700  0.2337
31059SOL    HW193755   5.582   2.238   7.119 -0.0201  0.1207 -0.8296
31059SOL    HW293756   5.603   2.089   7.096  2.1745  0.5311 -1.7643
31060SOL     OW93757   4.727   0.808   0.109 -0.3207 -0.1460 -0.2939
31060SOL    HW193758   4.726   0.898   0.140  1.2722 -0.0098 -0.5743
31060SOL    HW293759   4.715   0.755   0.188  1.6348  0.2597  0.3270
31061SOL     OW93760   0.115   0.969   4.481 -0.2628  0.0828  0.2449
31061SOL    HW193761   0.156   1.052   4.503 -1.9532  1.0291  0.0377
31061SOL    HW293762   0.162   0.903   4.532  1.7804  0.9995 -0.3546
31062SOL     OW93763   5.800   3.883   8.551 -0.1139  0.0875 -0.5393
31062SOL    HW193764   5.878   3.939   8.549 -0.2340  0.2367 -2.0946
31062SOL    HW293765   5.763   3.896   8.638  2.1297 -0.7497  0.6340
31063SOL     OW93766   9.194   6.081   8.900  0.1662  0.3526 -0.5290
31063SOL    HW193767   9.277   6.122   8.926 -0.3086  0.7101  0.4830
31063SOL    HW293768   9.220   6.010   8.841  1.0706  1.5034 -1.5834
31064SOL     OW93769   2.086   9.024   2.198  0.0228 -0.2345 -0.1996
31064SOL    HW193770   2.017   9.077   2.158 -0.1427 -1.2403 -1.3030
31064SOL    HW293771   2.039   8.951   2.239  0.4653 -1.7798 -2.2865
31065SOL     OW93772   8.750   2.194   4.400 -0.0140 -0.0293  0.3912
31065SOL    HW193773   8.682   2.215   4.463 -0.1181  1.7708 -0.2677
31065SOL    HW293774   8.781   2.279   4.368  0.8414 -0.8537 -1.1199
31066SOL     OW93775   4.074   8.160   5.763  0.5533 -0.3467 -0.1509
31066SOL    HW193776   4.147   8.119   5.809  0.4227 -0.2387  0.1495
31066SOL    HW293777   4.024   8.086   5.728  0.4798 -0.4319  0.1394
31067SOL     OW93778   9.334   1.904   6.747  0.3688  0.0068  0.0746
31067SOL    HW193779   9.400   1.943   6.804  2.1688  0.1333 -1.9654
31067SOL    HW293780   9.369   1.817   6.725  0.1769  0.2857 -1.4579
31068SOL     OW93781   7.526   3.366   1.470  0.2438  0.6213 -0.0383
31068SOL    HW193782   7.599   3.349   1.411 -0.6007  0.1124 -0.9785
31068SOL    HW293783   7.449   3.368   1.413 -0.6370 -0.1224  1.0649
31069SOL     OW93784   1.570   8.709   1.976  0.6724 -0.2470  0.0398
31069SOL    HW193785   1.557   8.679   2.066 -0.1340 -0.0508 -0.0072
31069SOL    HW293786   1.665   8.718   1.968  0.7438 -0.0868  0.9300
31070SOL     OW93787   0.385   2.788   6.428 -0.1445 -0.4151  0.0878
31070SOL    HW193788   0.301   2.820   6.395 -0.2529  0.9310  1.5689
31070SOL    HW293789   0.450   2.849   6.394  0.2599 -1.4352 -1.0277
31071SOL     OW93790   7.395   0.442   5.015  0.3567 -0.3698  0.0145
31071SOL    HW193791   7.392   0.439   4.919  1.5956 -0.8329 -0.0351
31071SOL    HW293792   7.389   0.350   5.041  1.5003 -0.3836  0.2937
31072SOL     OW93793   2.513   1.219   4.802 -0.2662 -0.1365 -0.4461
31072SOL    HW193794   2.438   1.162   4.819 -0.4263  0.5474  1.3809
31072SOL    HW293795   2.582   1.160   4.773 -1.0810 -0.9621 -0.7540
31073SOL     OW93796   2.887   8.692   6.751  0.6515  0.4710 -0.0069
31073SOL    HW193797   2.898   8.642   6.832  1.5677 -0.0227 -0.4176
31073SOL    HW293798   2.961   8.665   6.696  0.5833  1.5173 -0.6373
31074SOL     OW93799   5.749   5.758   1.413  0.1575 -0.1713  0.0601
31074SOL    HW193800   5.653   5.761   1.416  0.1943  0.5033  1.1427
31074SOL    HW293801   5.770   5.747   1.320 -0.9669 -0.4939 -0.1693
31075SOL     OW93802   7.371   5.401   6.009 -0.1075  0.2598  0.5448
31075SOL    HW193803   7.351   5.449   5.929 -1.0108 -1.0560 -0.0678
31075SOL    HW293804   7.314   5.324   6.005  2.3548 -1.6805  0.7137
31076SOL     OW93805   2.902   6.867   9.843 -0.1293  0.0196  0.2519
31076SOL    HW193806   2.858   6.811   9.907 -0.8882 -0.0290 -0.3025
31076SOL    HW293807   2.875   6.956   9.865  0.7164  0.1348  0.8526
31077SOL     OW93808   6.527   0.498   4.326  0.0464 -0.1682  0.1265
31077SOL    HW193809   6.622   0.502   4.335  0.1520  1.9181 -1.2906
31077SOL    HW293810   6.513   0.448   4.245  0.0044  0.6798 -0.3971
31078SOL     OW93811   2.588   1.764   9.372 -0.2939 -0.2120  0.6201
31078SOL    HW193812   2.534   1.734   9.299  0.2547 -0.2614  0.2346
31078SOL    HW293813   2.525   1.798   9.436 -0.7827 -0.3143  0.1938
31079SOL     OW93814   7.060   5.637   9.713 -0.2492 -0.2188 -0.1097
31079SOL    HW193815   7.083   5.567   9.774  0.0873  0.4626  0.5681
31079SOL    HW293816   6.978   5.673   9.747  1.6904  2.5513  2.1737
31080SOL     OW93817   2.668   9.575   7.571 -0.6824 -0.2003  0.1260
31080SOL    HW193818   2.669   9.620   7.486 -1.0969 -1.1359 -0.3940
31080SOL    HW293819   2.722   9.629   7.627  0.3777 -0.0506 -1.0003
31081SOL     OW93820   0.442   0.694   2.391 -0.1365 -0.4002 -0.1070
31081SOL    HW193821   0.477   0.623   2.444  0.0944 -0.1828  0.0345
31081SOL    HW293822   0.354   0.708   2.424  0.5407  0.7748  1.2682
31082SOL     OW93823   0.490   2.493   0.680 -0.4111 -0.0509  0.0994
31082SOL    HW193824   0.559   2.485   0.746 -0.5621  0.4717  0.3221
31082SOL    HW293825   0.532   2.542   0.608 -0.5437  0.2690  0.2359
31083SOL     OW93826   4.876   6.391   5.155 -0.5126  0.2623  0.2548
31083SOL    HW193827   4.862   6.296   5.164  1.1386 -0.0530 -0.2050
31083SOL    HW293828   4.868   6.407   5.061  0.7565  0.2945  0.1430
31084SOL     OW93829   9.884   7.016   2.035 -0.3082  0.0901  0.2079
31084SOL    HW193830   9.929   7.085   2.083  1.5840 -0.5702 -0.5008
31084SOL    HW293831   9.798   7.052   2.015  0.3589  1.9557  0.4812
31085SOL     OW93832   8.608   6.417   7.615 -0.0812  0.0510  0.3074
31085SOL    HW193833   8.548   6.397   7.687  2.0304  0.1470  2.1889
31085SOL    HW293834   8.682   6.359   7.628  0.4898  0.2557 -1.6919
31086SOL     OW93835   4.961   6.278   2.737  0.9747  0.3579  0.2341
31086SOL    HW193836   4.962   6.300   2.643 -0.5769  2.2087  0.5684
31086SOL    HW293837   5.052   6.284   2.764  1.7282 -2.0492 -1.4850
31087SOL     OW93838   5.272   9.738   2.578 -0.6631 -0.4362  0.1299
31087SOL    HW193839   5.234   9.743   2.666 -0.1527 -0.3249  0.3477
31087SOL    HW293840   5.322   9.656   2.578 -1.2547 -0.8021 -0.2986
31088SOL     OW93841   0.389   3.148   1.942  0.5099 -0.1827 -0.4810
31088SOL    HW193842   0.340   3.215   1.893 -0.2169  0.1567  0.6767
31088SOL    HW293843   0.402   3.078   1.878 -0.6068  0.1569 -1.1172
31089SOL     OW93844   6.780   6.023   6.694 -0.0868  0.0566 -0.3746
31089SOL    HW193845   6.746   6.090   6.754 -0.1297 -0.4946  0.2278
31089SOL    HW293846   6.865   5.999   6.731  0.6557  0.9015 -1.4680
31090SOL     OW93847   5.527   2.747   5.451 -1.0439 -0.2586 -0.1964
31090SOL    HW193848   5.577   2.786   5.379 -0.5625  1.3908  0.9590
31090SOL    HW293849   5.594   2.714   5.511 -1.3605  0.3815  0.5311
31091SOL     OW93850   6.224   4.943   6.198 -0.0767 -0.2467  0.0696
31091SOL    HW193851   6.319   4.957   6.197 -0.1545  0.5822  1.4443
31091SOL    HW293852   6.188   5.016   6.148  0.0683 -1.5343 -2.0146
31092SOL     OW93853   0.198   1.440   3.378  0.0936 -0.3066  0.1384
31092SOL    HW193854   0.212   1.534   3.368 -0.9270 -0.0678  0.8029
31092SOL    HW293855   0.245   1.416   3.458 -0.7318 -0.0824  0.7113
31093SOL     OW93856   3.339   1.156   8.943  0.5475 -0.1587 -0.1460
31093SOL    HW193857   3.365   1.153   9.035  0.0211  1.4105  0.0773
31093SOL    HW293858   3.257   1.204   8.942  0.9710  0.5992 -1.5269
31094SOL     OW93859   8.461   6.302   3.746  0.0758 -0.0232 -0.2411
31094SOL    HW193860   8.448   6.336   3.835  1.2952  0.5921 -0.2728
31094SOL    HW293861   8.475   6.381   3.693 -1.8734 -0.2943 -1.2361
31095SOL     OW93862   9.308   8.673   3.643  0.4240  0.1134 -0.6861
31095SOL    HW193863   9.364   8.644   3.715 -0.9533  0.3213  0.5296
31095SOL    HW293864   9.287   8.593   3.595 -0.9213 -0.5240  0.8620
31096SOL     OW93865   3.849   0.758   0.162 -0.1139  0.4455  0.2181
31096SOL    HW193866   3.865   0.852   0.174  1.5634  0.3835 -1.0382
31096SOL    HW293867   3.799   0.753   0.080 -1.0070  0.2764  0.7658
31097SOL     OW93868   1.344   3.635   0.946 -0.0594 -0.1312 -0.2509
31097SOL    HW193869   1.403   3.587   1.003  0.5095 -0.6153 -1.2290
31097SOL    HW293870   1.257   3.601   0.968 -0.1943  1.4313  2.0572
31098SOL     OW93871   2.942   3.614   1.380 -0.5688  0.2634 -0.2154
31098SOL    HW193872   2.969   3.525   1.356 -0.3849  0.0864  0.6145
31098SOL    HW293873   2.997   3.671   1.328 -2.2667 -0.0749 -2.5351
31099SOL     OW93874   7.095   0.532   0.281 -0.2827  0.1273  0.4428
31099SOL    HW193875   7.154   0.467   0.319  0.6837 -0.3984 -1.7717
31099SOL    HW293876   7.139   0.615   0.294 -0.2720  0.0296  1.0259
31100SOL     OW93877   1.451   6.628   1.159  0.1390 -0.0354  0.6557
31100SOL    HW193878   1.507   6.663   1.228  1.2717 -2.2510  0.9657
31100SOL    HW293879   1.506   6.630   1.081  0.3546 -1.2600  0.7435
31101SOL     OW93880   3.491   1.930   7.472  0.4674 -0.0241 -0.3331
31101SOL    HW193881   3.556   1.860   7.480 -1.0918 -1.4772  0.2824
31101SOL    HW293882   3.520   1.997   7.534  0.5866 -1.3027  1.0376
31102SOL     OW93883   6.079   8.556   7.113  0.0334 -0.0496 -0.6945
31102SOL    HW193884   6.001   8.579   7.162 -0.3181  1.2361 -1.8251
31102SOL    HW293885   6.149   8.558   7.178 -1.1145 -3.6265  0.9059
31103SOL     OW93886   5.581   9.323   0.034  0.2204  0.7984  0.4577
31103SOL    HW193887   5.505   9.274   0.004  0.3568  0.4309  0.7035
31103SOL    HW293888   5.655   9.283  -0.011  0.4755 -0.0358  1.5802
31104SOL     OW93889   9.109   5.958   0.100 -0.4362 -0.0075 -0.3733
31104SOL    HW193890   9.073   6.024   0.159 -3.4679 -0.6940 -1.3028
31104SOL    HW293891   9.161   6.008   0.037 -0.1809  1.1141  0.6813
31105SOL     OW93892   4.901   8.782   3.036  0.5551 -0.1033  0.4287
31105SOL    HW193893   4.833   8.814   3.096  1.5947  0.0891  1.5491
31105SOL    HW293894   4.901   8.687   3.049  1.9483  0.0618  2.1197
31106SOL     OW93895   3.111   1.858   3.379 -0.4391 -0.1117 -0.2026
31106SOL    HW193896   3.095   1.866   3.473  1.1390 -3.5291  0.4952
31106SOL    HW293897   3.188   1.912   3.362 -1.6035  1.7513  0.0329
31107SOL     OW93898   1.219   4.121   8.160 -0.2200  0.3994  0.0470
31107SOL    HW193899   1.298   4.172   8.146  1.0870 -1.4725  0.1133
31107SOL    HW293900   1.201   4.081   8.075 -0.7216  0.3197  0.1886
31108SOL     OW93901   3.564   6.920   8.518  0.3747  0.2936  0.7590
31108SOL    HW193902   3.567   6.851   8.584  0.4402  1.2766  1.8136
31108SOL    HW293903   3.477   6.914   8.480  1.0926 -1.7604 -0.7380
31109SOL     OW93904   2.510   5.715   7.324  0.4927  0.5712  0.0094
31109SOL    HW193905   2.474   5.641   7.372  0.6439  0.6841  0.2972
31109SOL    HW293906   2.442   5.737   7.260  0.6525 -0.1222 -0.4053
31110SOL     OW93907   1.157   1.505   4.662 -0.1185 -0.7284  0.2689
31110SOL    HW193908   1.251   1.507   4.674 -0.2198 -0.8457  1.1405
31110SOL    HW293909   1.138   1.578   4.603  0.4500 -0.3458  0.5568
31111SOL     OW93910   1.986   5.650   6.961  0.0832 -0.6930 -0.2141
31111SOL    HW193911   1.905   5.616   6.999 -1.1044 -0.1343 -2.0953
31111SOL    HW293912   1.982   5.625   6.868  0.4976  2.0401 -1.0626
31112SOL     OW93913   6.892   6.110   4.048 -0.0734 -0.1360 -0.4765
31112SOL    HW193914   6.874   6.180   4.111  0.8442  0.6026 -1.0263
31112SOL    HW293915   6.954   6.053   4.093  0.0803  0.0361 -0.4713
31113SOL     OW93916   7.564   4.131   4.573 -0.2210 -0.1138  0.4727
31113SOL    HW193917   7.595   4.122   4.483 -1.4305 -0.2770  0.0615
31113SOL    HW293918   7.644   4.134   4.626  0.4937 -0.1418 -0.5904
31114SOL     OW93919   6.268   3.291   4.231 -0.4303  0.6786 -0.1533
31114SOL    HW193920   6.213   3.355   4.184  0.7924  2.2579  0.4831
31114SOL    HW293921   6.217   3.210   4.228 -1.3743  1.2579 -2.3133
31115SOL     OW93922   8.545   9.248   0.793 -0.1959  0.2372  0.6801
31115SOL    HW193923   8.632   9.208   0.790  0.2334  1.1601  0.4918
31115SOL    HW293924   8.525   9.257   0.886 -0.0478  0.1108  0.7236
31116SOL     OW93925   9.626   6.604   9.576  0.2455 -0.1521 -0.1824
31116SOL    HW193926   9.646   6.687   9.532  0.5555 -0.0295  0.1894
31116SOL    HW293927   9.709   6.556   9.575  0.4395  0.1371  0.8887
31117SOL     OW93928   0.639   9.414   9.867 -0.6266  0.5753 -0.2228
31117SOL    HW193929   0.592   9.331   9.858  1.0714 -0.5400  0.5965
31117SOL    HW293930   0.662   9.418   9.960  1.1763  0.8794 -0.6554
31118SOL     OW93931   9.449   7.985   3.756  0.4160 -0.4436 -0.1195
31118SOL    HW193932   9.515   8.011   3.691 -1.8375  2.0527 -1.6165
31118SOL    HW293933   9.412   7.904   3.720 -0.2141  0.4468 -1.5758
31119SOL     OW93934   8.700   8.242   4.107 -0.8840 -0.2921  0.0580
31119SOL    HW193935   8.720   8.225   4.015  0.6351  1.3639  0.0224
31119SOL    HW293936   8.669   8.333   4.108  1.4050  0.5414  1.4199
31120SOL     OW93937   6.711   5.021   6.999  0.2339 -0.6788 -0.1193
31120SOL    HW193938   6.718   4.927   7.016 -0.1993 -0.8778 -1.0122
31120SOL    HW293939   6.617   5.037   6.993  0.3008 -0.1570  0.1488
31121SOL     OW93940   0.247   6.271   6.099 -0.1299 -0.1648  0.2155
31121SOL    HW193941   0.256   6.176   6.106 -2.0081 -0.3345  0.7170
31121SOL    HW293942   0.215   6.299   6.185 -2.2613  0.5527 -0.7420
31122SOL     OW93943   6.299   5.762   0.035 -0.6154 -0.2647  0.4623
31122SOL    HW193944   6.210   5.734   0.057 -0.5920 -0.6816  0.0294
31122SOL    HW293945   6.308   5.744  -0.058  0.8378 -2.7693  1.0010
31123SOL     OW93946   5.778   8.020   1.815  0.2295 -0.0110  0.2024
31123SOL    HW193947   5.771   7.993   1.907  2.5204 -0.7307  0.2180
31123SOL    HW293948   5.717   7.963   1.769  0.0524 -0.5769  1.1042
31124SOL     OW93949   7.059   2.589   9.408 -0.4332  0.1764 -0.1261
31124SOL    HW193950   7.093   2.515   9.358 -0.7667 -0.5700  0.7383
31124SOL    HW293951   6.982   2.619   9.359  0.0666  0.3671 -0.8127
31125SOL     OW93952   8.368   8.175   2.809  0.2531 -0.3259 -0.4747
31125SOL    HW193953   8.413   8.259   2.799  1.1076 -0.6589  0.3863
31125SOL    HW293954   8.430   8.121   2.858 -1.9642 -0.0206  3.0506
31126SOL     OW93955   9.527   3.043   8.129 -0.1494  0.0686 -0.1834
31126SOL    HW193956   9.466   3.058   8.057 -0.4972 -2.0970 -0.3905
31126SOL    HW293957   9.614   3.051   8.089 -0.3331 -0.2032 -0.6409
31127SOL     OW93958   0.580   1.126   3.660 -0.0941 -0.2503 -0.1621
31127SOL    HW193959   0.545   1.103   3.746  1.5010  1.0788  0.9094
31127SOL    HW293960   0.675   1.116   3.668  0.0847 -0.2083 -1.8028
31128SOL     OW93961   3.382   3.385   5.315  0.6360 -0.2733 -0.5400
31128SOL    HW193962   3.465   3.340   5.327 -0.4813 -1.9877  1.4711
31128SOL    HW293963   3.343   3.343   5.239  0.5164 -1.3167  0.0738
31129SOL     OW93964   6.386   7.880   0.899  0.7909  0.7276  1.3018
31129SOL    HW193965   6.472   7.916   0.877  0.4423  0.6044 -0.3998
31129SOL    HW293966   6.327   7.923   0.837 -0.2809  0.3310  2.0343
31130SOL     OW93967   0.260   8.237   3.315 -0.1728 -0.0658  0.3505
31130SOL    HW193968   0.309   8.319   3.303 -0.8406  0.8219  2.9581
31130SOL    HW293969   0.326   8.173   3.343 -0.0665  0.4012  1.2025
31131SOL     OW93970   3.873   6.059   6.495 -0.1715 -0.0578  0.4637
31131SOL    HW193971   3.925   5.984   6.464 -0.1890 -0.6090  1.7258
31131SOL    HW293972   3.935   6.131   6.499 -0.2079  0.0994 -1.0156
31132SOL     OW93973   4.776   2.985   5.906  0.4348 -0.0632  0.4284
31132SOL    HW193974   4.838   2.979   5.834 -0.5730 -0.3961 -0.4361
31132SOL    HW293975   4.763   3.078   5.920 -0.5930  0.0303 -0.9427
31133SOL     OW93976   7.809   7.005   1.484  0.3222  0.1132  0.8382
31133SOL    HW193977   7.832   7.044   1.400  0.3115 -1.2817  0.1666
31133SOL    HW293978   7.743   7.065   1.521 -0.1416  0.4152 -0.4315
31134SOL     OW93979   4.191   1.075   0.173  0.1997  0.3799  0.6245
31134SOL    HW193980   4.271   1.087   0.122 -0.5152 -0.7647 -0.8251
31134SOL    HW293981   4.129   1.136   0.135  0.0707  0.5141  1.0488
31135SOL     OW93982   8.085   2.536   7.016  0.1335  0.3125  0.8056
31135SOL    HW193983   8.163   2.516   6.965 -0.6087 -0.4918 -0.0313
31135SOL    HW293984   8.055   2.451   7.049  0.0227  0.6989  1.7570
31136SOL     OW93985   9.668   0.412   9.653 -0.0915 -0.3073 -0.5333
31136SOL    HW193986   9.724   0.370   9.718 -0.0680  0.3329 -0.1354
31136SOL    HW293987   9.607   0.465   9.704  1.9021  2.7293 -1.0549
31137SOL     OW93988   2.196   0.586   0.358  0.5833 -0.7313  0.3451
31137SOL    HW193989   2.255   0.657   0.384  0.1239 -0.2941  0.2133
31137SOL    HW293990   2.125   0.590   0.421 -0.2064 -0.0908 -0.5521
31138SOL     OW93991   0.649   3.661   9.195  0.4111  0.1879  0.5843
31138SOL    HW193992   0.693   3.684   9.113  0.2606 -0.2287  0.3846
31138SOL    HW293993   0.614   3.573   9.180  0.2293  0.1799  1.0340
31139SOL     OW93994   1.906   1.570   5.683  1.2338  0.2037  0.4180
31139SOL    HW193995   1.819   1.592   5.715  1.5843  2.1891  0.1649
31139SOL    HW293996   1.922   1.632   5.611  2.0457 -1.4942 -0.9430
31140SOL     OW93997   5.725   8.705   5.282 -0.1054 -0.2697  0.0155
31140SOL    HW193998   5.703   8.798   5.285 -0.6717 -0.4217  0.7863
31140SOL    HW293999   5.753   8.684   5.371  0.7305 -0.6761 -0.3298
31141SOL     OW94000   6.111   8.544   1.949  0.0415  0.1268  0.0415
31141SOL    HW194001   6.066   8.625   1.972  2.5838  1.9204 -0.9250
31141SOL    HW294002   6.176   8.531   2.018 -0.1744 -1.0141  0.0640
31142SOL     OW94003   1.481   7.995   6.311  0.0992  0.4360  0.2762
31142SOL    HW194004   1.507   8.024   6.224 -1.2331  1.0651  0.0578
31142SOL    HW294005   1.488   8.073   6.366  0.0549  0.2648  0.5277
31143SOL     OW94006   9.745   3.182   5.210 -0.1217 -0.0589 -0.4774
31143SOL    HW194007   9.730   3.256   5.268  1.5145  0.6692 -0.9419
31143SOL    HW294008   9.797   3.217   5.138  0.7025 -1.6450 -0.7070
31144SOL     OW94009   1.888   6.269   6.657 -0.0228  0.1384 -0.0542
31144SOL    HW194010   1.928   6.260   6.570 -1.7771 -0.0167 -0.8854
31144SOL    HW294011   1.884   6.363   6.672 -0.1232  0.1792 -0.3364
31145SOL     OW94012   0.046   0.194   6.090  0.2048 -0.3537  0.0425
31145SOL    HW194013   0.113   0.253   6.057  1.0420 -1.7484 -0.8159
31145SOL    HW294014   0.088   0.109   6.096 -1.5744 -1.3620 -0.8931
31146SOL     OW94015   2.341   3.242   1.774  0.5077  0.0538  0.0580
31146SOL    HW194016   2.427   3.276   1.798  0.0954  2.2799 -1.3178
31146SOL    HW294017   2.279   3.294   1.826 -0.0581 -0.8404  0.3012
31147SOL     OW94018   9.505   8.865   8.731 -0.0828  0.1035 -0.2521
31147SOL    HW194019   9.455   8.890   8.653  0.9221 -0.0166 -0.9516
31147SOL    HW294020   9.549   8.945   8.759  0.3082 -0.0644 -0.3774
31148SOL     OW94021   2.931   4.442   2.480  0.5793 -0.9084  0.0174
31148SOL    HW194022   2.999   4.509   2.487  1.3036 -1.3637 -1.9710
31148SOL    HW294023   2.854   4.483   2.519  0.9049  1.2773 -1.4368
31149SOL     OW94024   8.630   6.154   6.765  0.1337 -0.7502 -0.3232
31149SOL    HW194025   8.547   6.163   6.812  0.1894 -1.7976 -0.0179
31149SOL    HW294026   8.693   6.129   6.831  0.3776 -1.4544 -0.8141
31150SOL     OW94027   8.685   1.108   4.679 -0.2208 -0.5867 -0.0037
31150SOL    HW194028   8.692   1.148   4.766 -0.5085  0.8049 -0.5904
31150SOL    HW294029   8.592   1.114   4.657  0.1004  0.7904 -1.1469
31151SOL     OW94030   8.775   9.102   8.253  0.8404 -0.2924 -0.3261
31151SOL    HW194031   8.844   9.165   8.273  0.1765  0.1327  0.6835
31151SOL    HW294032   8.716   9.105   8.328 -0.1787 -0.7924 -1.0697
31152SOL     OW94033   3.411   5.618   2.489  0.7265  0.5354  0.2868
31152SOL    HW194034   3.439   5.626   2.398 -1.5741 -0.5798 -0.5899
31152SOL    HW294035   3.474   5.557   2.527  0.8636 -0.1575 -0.9835
31153SOL     OW94036   6.115   6.272   8.003  0.0297  0.0522  0.1819
31153SOL    HW194037   6.134   6.230   8.087  1.5293 -1.2260 -0.7324
31153SOL    HW294038   6.022   6.295   8.008 -0.1876 -0.9986  1.7719
31154SOL     OW94039   9.559   8.582   4.253 -0.0347 -0.3584  0.9248
31154SOL    HW194040   9.607   8.505   4.284  2.0616  0.3632 -0.3337
31154SOL    HW294041   9.506   8.549   4.180  3.9165 -0.1012 -2.4010
31155SOL     OW94042   7.613   8.305   1.321 -0.6500  0.5952 -0.2294
31155SOL    HW194043   7.574   8.313   1.234  0.8452  1.1884 -0.8809
31155SOL    HW294044   7.704   8.282   1.304 -0.0424  1.8274  1.1235
31156SOL     OW94045   2.409   5.875   3.170  0.2026  0.2496 -0.3567
31156SOL    HW194046   2.371   5.800   3.215 -0.6920  1.0293  0.2135
31156SOL    HW294047   2.373   5.871   3.081  0.3176 -0.1068 -0.3871
31157SOL     OW94048   5.784   0.439   2.053 -0.3151 -0.2449  0.0946
31157SOL    HW194049   5.694   0.449   2.086  0.6040  1.8473  2.2722
31157SOL    HW294050   5.825   0.376   2.113 -0.0971 -0.5786 -0.4010
31158SOL     OW94051   6.689   8.389   4.957 -0.3556 -0.0638 -0.5248
31158SOL    HW194052   6.619   8.446   4.990 -0.7111  0.1156 -1.5416
31158SOL    HW294053   6.769   8.429   4.989 -0.6916  0.0359  0.2070
31159SOL     OW94054   6.131   7.555   2.829  0.6165  0.4692 -0.5042
31159SOL    HW194055   6.186   7.621   2.871  0.9528 -0.9351  1.3957
31159SOL    HW294056   6.189   7.514   2.764  1.2101  0.3241  0.1025
31160SOL     OW94057   1.766   9.904   8.420 -0.3272  0.2722 -0.3929
31160SOL    HW194058   1.675   9.913   8.392 -0.9931 -2.0074  0.7752
31160SOL    HW294059   1.762   9.907   8.516  0.3633 -2.6496 -0.1860
31161SOL     OW94060   7.006   8.579   5.807 -0.2819 -0.1858 -0.2539
31161SOL    HW194061   6.949   8.654   5.791 -1.8026 -1.5561 -1.6484
31161SOL    HW294062   6.950   8.517   5.855  1.0201 -0.3683  1.1006
31162SOL     OW94063   8.161   2.906   4.869  0.1117  0.3572  0.0299
31162SOL    HW194064   8.116   2.900   4.953 -1.6732  2.9334 -0.6147
31162SOL    HW294065   8.156   2.818   4.832 -0.3514 -0.4793  1.9393
31163SOL     OW94066   9.787   7.127   1.651 -0.0794  0.0289  0.1523
31163SOL    HW194067   9.752   7.040   1.672  0.4918 -0.2721 -0.1277
31163SOL    HW294068   9.710   7.179   1.630 -0.4423 -0.3637  0.4888
31164SOL     OW94069   8.698   1.249   4.148 -0.1890  0.1957  0.2093
31164SOL    HW194070   8.739   1.197   4.217  0.4123  0.6578  0.2074
31164SOL    HW294071   8.759   1.321   4.132 -1.1387  1.0781  0.4115
31165SOL     OW94072   4.280   9.549   9.653  0.1547 -0.2833  2.0920
31165SOL    HW194073   4.333   9.605   9.597 -0.3957 -1.5474  0.2319
31165SOL    HW294074   4.341   9.484   9.687 -0.3438 -3.2940 -2.0194
31166SOL     OW94075   4.456   7.957   4.795  0.6118 -0.0910 -0.0679
31166SOL    HW194076   4.425   8.032   4.745 -0.3856  0.1752  0.9125
31166SOL    HW294077   4.547   7.977   4.816  0.2798  0.9662  0.4074
31167SOL     OW94078   0.378   3.337   7.609 -0.4020  0.3754 -0.1581
31167SOL    HW194079   0.437   3.325   7.535  1.7664  1.6968  1.2429
31167SOL    HW294080   0.366   3.432   7.615  1.2407  0.5109  2.3908
31168SOL     OW94081   5.413   9.322   9.358  0.5595  0.5184 -0.5774
31168SOL    HW194082   5.355   9.331   9.433 -0.5046  0.3863 -1.3761
31168SOL    HW294083   5.469   9.247   9.381 -0.8257 -0.5558 -0.5858
31169SOL     OW94084   9.150   1.463   6.282  0.5267  0.2027  0.1234
31169SOL    HW194085   9.187   1.403   6.218 -0.2534 -0.7908  0.5734
31169SOL    HW294086   9.216   1.466   6.352 -0.2055 -1.6330  0.9669
31170SOL     OW94087   4.180   8.639   9.938  0.1472 -0.5098 -0.2558
31170SOL    HW194088   4.153   8.674  10.023 -0.8167 -1.6726 -0.0680
31170SOL    HW294089   4.264   8.596   9.956  1.7281  2.1797 -0.6289
31171SOL     OW94090   3.700   6.438   8.736 -0.1757  0.2877  0.2517
31171SOL    HW194091   3.687   6.527   8.704  1.6868  0.7305  0.6203
31171SOL    HW294092   3.715   6.447   8.830 -0.0820 -0.4222  0.3146
31172SOL     OW94093   1.333   1.627   7.347  0.2662 -0.2223  0.3587
31172SOL    HW194094   1.253   1.674   7.325  0.7320  0.6804  0.5494
31172SOL    HW294095   1.397   1.657   7.282 -0.0397 -2.4373 -1.0675
31173SOL     OW94096   7.045   4.482   0.872 -0.4281  0.4628  0.2788
31173SOL    HW194097   7.004   4.494   0.958  2.2293 -1.1653  1.9158
31173SOL    HW294098   7.033   4.388   0.853  1.4268  0.1989  0.2632
31174SOL     OW94099   9.755   6.034   4.626  0.1036  0.1122  0.9700
31174SOL    HW194100   9.709   6.032   4.542 -0.2825 -1.7858  1.1689
31174SOL    HW294101   9.717   6.109   4.672 -0.2209  0.7290 -0.2493
31175SOL     OW94102   7.567   3.102   3.532 -0.3686 -0.4926  0.7511
31175SOL    HW194103   7.590   3.116   3.624 -1.2832  2.2579  0.6585
31175SOL    HW294104   7.476   3.071   3.534 -1.0386  1.3320  0.8035
31176SOL     OW94105   3.126   2.414   2.157  0.0592  0.2710 -0.0913
31176SOL    HW194106   3.184   2.490   2.156  1.8689 -1.0322  0.5935
31176SOL    HW294107   3.108   2.396   2.065 -0.9911  1.9127 -0.2479
31177SOL     OW94108   5.102   9.965   6.235  0.4159 -0.0176 -0.6426
31177SOL    HW194109   5.121   9.875   6.208 -1.0404 -0.5795  0.0714
31177SOL    HW294110   5.185   9.998   6.269  0.9866 -1.0749 -0.9684
31178SOL     OW94111   9.502   2.788   0.305  0.4629  0.5541 -0.4899
31178SOL    HW194112   9.527   2.866   0.255 -0.5627  1.3030  0.1169
31178SOL    HW294113   9.492   2.820   0.395  1.3256 -0.5643  0.0185
31179SOL     OW94114   1.652   8.879   1.178  0.0566  0.0739  0.1883
31179SOL    HW194115   1.684   8.870   1.088  1.6021  0.5735  0.6677
31179SOL    HW294116   1.724   8.920   1.226 -1.1253  0.7875  1.4378
31180SOL     OW94117   7.081   3.609   9.863  0.3481 -0.0231 -0.0719
31180SOL    HW194118   7.063   3.637   9.953 -0.4990 -0.3121 -0.1450
31180SOL    HW294119   7.120   3.686   9.822 -2.3487  1.2617 -0.3880
31181SOL     OW94120   0.428   6.810   8.158  0.2719 -0.0091 -0.3301
31181SOL    HW194121   0.356   6.755   8.188  1.3232 -1.3544 -0.1711
31181SOL    HW294122   0.427   6.886   8.217 -0.6607 -0.2738  0.0093
31182SOL     OW94123   9.432   3.588   3.950 -0.1992  1.1737 -0.4650
31182SOL    HW194124   9.422   3.667   3.896 -1.1841  1.4374  0.0765
31182SOL    HW294125   9.343   3.556   3.961  0.2815 -0.7423 -1.7121
31183SOL     OW94126   6.442   0.619   8.570 -0.0317 -0.3210 -0.1417
31183SOL    HW194127   6.409   0.677   8.502  1.3770 -1.5891 -2.0177
31183SOL    HW294128   6.516   0.666   8.609 -1.9200  1.1844  1.9080
31184SOL     OW94129   5.034   5.105   2.959 -0.1984 -0.1972  0.0141
31184SOL    HW194130   5.030   5.169   2.888  0.2347 -0.6683 -0.4515
31184SOL    HW294131   5.098   5.040   2.929  1.6256  0.6953  1.7615
31185SOL     OW94132   4.351   7.661   4.653  0.1331 -0.2167  0.1882
31185SOL    HW194133   4.446   7.649   4.643  0.2151  1.1860 -1.0352
31185SOL    HW294134   4.342   7.699   4.741  0.7942  0.3489  0.0271
31186SOL     OW94135   9.065   3.430   0.931 -0.1738 -0.0650 -0.5249
31186SOL    HW194136   9.000   3.367   0.898  0.1178 -0.7522  0.1825
31186SOL    HW294137   9.013   3.495   0.979 -0.3416 -0.6731  0.1350
31187SOL     OW94138   9.070   2.057   1.612  0.9454  0.2292  1.2152
31187SOL    HW194139   9.005   2.121   1.584  0.9362 -0.2168  0.1761
31187SOL    HW294140   9.036   2.024   1.695 -0.9738 -1.0770  0.0048
31188SOL     OW94141   1.550   2.832   7.874 -0.0528  0.2055  0.1041
31188SOL    HW194142   1.478   2.769   7.871 -1.2078  1.4533  0.4771
31188SOL    HW294143   1.629   2.780   7.860 -0.9596 -1.3218  0.4751
31189SOL     OW94144   4.771   9.474   4.097  0.0851 -0.2050 -0.1610
31189SOL    HW194145   4.731   9.394   4.062 -0.7100  0.7335 -1.4846
31189SOL    HW294146   4.748   9.473   4.190 -0.5645 -1.1334 -0.3103
31190SOL     OW94147   4.405   1.864   6.622  0.1167  0.5909 -0.1037
31190SOL    HW194148   4.480   1.890   6.569 -1.8652  2.0257 -2.3517
31190SOL    HW294149   4.341   1.831   6.560 -1.0102 -1.0632  1.8029
31191SOL     OW94150   3.440   2.264   3.833 -0.3102 -0.1672  0.3316
31191SOL    HW194151   3.461   2.212   3.756  0.1792 -0.5052  0.6793
31191SOL    HW294152   3.525   2.297   3.863 -0.5474  0.3452  0.4606
31192SOL     OW94153   1.561   8.817   4.324 -0.2034 -0.9947  0.0361
31192SOL    HW194154   1.627   8.749   4.342 -0.1938 -1.0334 -0.1403
31192SOL    HW294155   1.536   8.802   4.232  1.3701  0.5864 -0.6936
31193SOL     OW94156   2.990   0.576   2.704  0.4814 -0.2150  0.1517
31193SOL    HW194157   3.079   0.559   2.675  0.6328  1.3760 -0.4232
31193SOL    HW294158   2.985   0.671   2.711 -1.0082 -0.3080  0.7295
31194SOL     OW94159   7.613   3.894   7.681  0.0786 -0.3330  0.1240
31194SOL    HW194160   7.535   3.876   7.629 -0.1993 -0.2937  0.5243
31194SOL    HW294161   7.674   3.823   7.659  0.5354  0.4695 -1.3630
31195SOL     OW94162   5.974   6.695   1.768  0.2576 -0.4084  0.3537
31195SOL    HW194163   5.932   6.762   1.715 -0.5565 -0.6077  0.7377
31195SOL    HW294164   6.052   6.670   1.718  0.3665  0.5452  0.0298
31196SOL     OW94165   8.465   2.079   1.764 -0.3104 -0.3924 -0.0502
31196SOL    HW194166   8.480   2.127   1.683  0.3700  1.3242  1.0350
31196SOL    HW294167   8.512   1.996   1.753 -0.0145 -0.0639 -1.2865
31197SOL     OW94168   0.143   1.462   3.064  0.0257  0.1539 -0.2936
31197SOL    HW194169   0.187   1.449   3.147 -0.2246  0.0423 -0.1787
31197SOL    HW294170   0.202   1.423   2.999 -0.0209 -0.2154 -0.1150
31198SOL     OW94171   2.311   8.770   3.211 -0.6377 -0.1942  0.4258
31198SOL    HW194172   2.267   8.689   3.183 -0.6557 -0.4076  1.0603
31198SOL    HW294173   2.247   8.814   3.267 -0.7739  0.4537 -0.2188
31199SOL     OW94174   6.853   9.956   9.444 -0.5079  0.4336  0.3739
31199SOL    HW194175   6.845  10.030   9.384  1.1565 -0.0404 -0.5165
31199SOL    HW294176   6.765   9.921   9.452 -0.8218  0.7017 -1.5779
31200SOL     OW94177   9.636   6.934   9.115  0.2029 -0.4479 -0.3570
31200SOL    HW194178   9.712   6.887   9.079  0.0340 -0.2012 -1.0500
31200SOL    HW294179   9.640   7.020   9.074  0.5649  0.1985  0.9851
31201SOL     OW94180   8.912   4.505   2.939  0.2786 -0.1268 -0.4020
31201SOL    HW194181   8.880   4.579   2.888  2.1008  0.4665 -0.7686
31201SOL    HW294182   8.842   4.440   2.935 -0.2758  0.5363 -2.3027
31202SOL     OW94183   0.526   4.235   9.183  0.0189 -0.1749  0.0728
31202SOL    HW194184   0.525   4.141   9.167  1.0836 -0.0597 -0.7904
31202SOL    HW294185   0.461   4.249   9.251  0.3328 -1.6286  0.6981
31203SOL     OW94186   2.578   6.751   1.135 -0.0854 -0.0300  0.5112
31203SOL    HW194187   2.569   6.834   1.182  3.3484  0.7159  0.0872
31203SOL    HW294188   2.583   6.776   1.043 -0.5206 -0.8970  0.2405
31204SOL     OW94189   1.455   0.502   8.369 -0.1443 -0.2092  0.2097
31204SOL    HW194190   1.421   0.493   8.458 -1.4005 -1.8377 -0.3825
31204SOL    HW294191   1.428   0.590   8.342 -1.2934 -0.3570  0.8289
31205SOL     OW94192   4.006   2.216   4.587 -0.2790 -0.0604  0.1125
31205SOL    HW194193   3.927   2.172   4.554 -0.5541 -0.5198  1.3213
31205SOL    HW294194   4.077   2.182   4.532 -0.5834 -1.5283  0.5650
31206SOL     OW94195   6.462   8.460   9.267  0.1040  0.3412 -0.3577
31206SOL    HW194196   6.383   8.510   9.291 -0.6938 -0.5830 -1.0175
31206SOL    HW294197   6.519   8.525   9.226 -1.0835  0.6664 -1.5677
31207SOL     OW94198   3.567   6.939   4.586 -0.3791 -0.0324  0.4836
31207SOL    HW194199   3.581   7.031   4.562 -3.6072  0.2170 -0.8986
31207SOL    HW294200   3.608   6.889   4.516  0.7830  0.3154  0.8868
31208SOL     OW94201   2.516   5.065   8.925  0.4185 -0.3919  0.0522
31208SOL    HW194202   2.436   5.100   8.885  1.8564  0.1651 -2.5432
31208SOL    HW294203   2.587   5.114   8.883  2.2949 -3.1800 -0.2797
31209SOL     OW94204   0.350   4.906   4.078  0.6484 -0.2083 -0.2088
31209SOL    HW194205   0.442   4.895   4.054  0.6152 -0.3410 -0.2749
31209SOL    HW294206   0.315   4.817   4.079  0.3658 -0.1069 -0.8037
31210SOL     OW94207   3.093   9.378   0.506 -0.4286 -0.0142  0.2627
31210SOL    HW194208   3.123   9.469   0.504  1.6373 -0.6662 -0.3141
31210SOL    HW294209   3.081   9.355   0.414 -0.6388 -0.4362  0.3945
31211SOL     OW94210   4.885   9.853   8.854 -0.7241 -0.5571 -0.0704
31211SOL    HW194211   4.963   9.812   8.891 -0.0631 -1.8272 -2.7028
31211SOL    HW294212   4.812   9.802   8.891 -0.2174 -0.7224  0.7388
31212SOL     OW94213   6.483   7.404   1.257  0.3504 -0.3067  0.1847
31212SOL    HW194214   6.390   7.381   1.262 -0.0114  0.9546 -0.4167
31212SOL    HW294215   6.485   7.490   1.216  1.7069  0.2997  1.4011
31213SOL     OW94216   6.234   3.710   5.921 -0.3696 -0.0664 -0.1966
31213SOL    HW194217   6.160   3.741   5.870 -0.1099  0.7844 -0.0602
31213SOL    HW294218   6.229   3.757   6.004  0.3437  0.0260 -0.1969
31214SOL     OW94219   0.587   9.154   7.686  0.3956 -0.9266 -0.1773
31214SOL    HW194220   0.588   9.228   7.747  0.8659 -1.5263  0.5628
31214SOL    HW294221   0.679   9.125   7.682  0.6455 -0.0596 -2.2404
31215SOL     OW94222   1.816   2.171   5.986 -0.0866  0.0922  0.3934
31215SOL    HW194223   1.799   2.263   6.007 -0.4568 -0.0231  0.5964
31215SOL    HW294224   1.761   2.122   6.047 -1.8309 -0.2579 -1.3790
31216SOL     OW94225   9.381   8.845   2.913 -0.6276  0.2447  0.0128
31216SOL    HW194226   9.465   8.849   2.960 -0.6254 -0.4808  0.0886
31216SOL    HW294227   9.318   8.818   2.979 -1.0754  1.5128  0.1292
31217SOL     OW94228   6.171   5.175   5.137  0.2695  0.1172 -0.1054
31217SOL    HW194229   6.252   5.223   5.154 -0.5336  1.3177  0.4650
31217SOL    HW294230   6.145   5.142   5.223  0.1587 -0.2839 -0.2904
31218SOL     OW94231   2.343   1.504   6.763  0.2212 -0.2325  0.4242
31218SOL    HW194232   2.344   1.476   6.854  0.4136 -0.6783  0.2907
31218SOL    HW294233   2.436   1.507   6.738  0.1379 -1.0384 -0.0240
31219SOL     OW94234   4.116   5.063   9.933 -0.7557  0.2302 -0.2140
31219SOL    HW194235   4.185   5.118   9.897 -0.8055  1.1783  1.0807
31219SOL    HW294236   4.162   5.002   9.992 -0.9802  0.7594  0.5282
31220SOL     OW94237   5.770   5.281   2.172 -0.4659 -0.4219 -0.1416
31220SOL    HW194238   5.792   5.339   2.245  2.0174 -1.8365  0.3394
31220SOL    HW294239   5.721   5.209   2.212 -1.1309 -0.0365 -0.2644
31221SOL     OW94240   4.885   7.443   8.154 -0.2128  0.6137 -0.7695
31221SOL    HW194241   4.901   7.428   8.060 -1.0080 -1.2378 -0.6497
31221SOL    HW294242   4.793   7.468   8.159 -0.5391 -0.5642 -0.4082
31222SOL     OW94243   1.164   8.404   0.099  0.4481 -0.0575  0.6472
31222SOL    HW194244   1.103   8.411   0.025 -0.0205 -1.3398  0.8973
31222SOL    HW294245   1.149   8.484   0.149 -0.2352  0.1604  0.1169
31223SOL     OW94246   5.310   8.440   4.671  0.1715 -0.1574 -0.2263
31223SOL    HW194247   5.365   8.479   4.739 -1.4352 -1.3484  1.9051
31223SOL    HW294248   5.247   8.386   4.720 -1.4771 -0.5859 -2.6560
31224SOL     OW94249   0.940   5.826   6.670 -0.2666  0.1539 -0.4139
31224SOL    HW194250   0.913   5.735   6.658 -2.3560  0.1559  2.9845
31224SOL    HW294251   1.023   5.820   6.717 -0.5709 -0.0231  0.1071
31225SOL     OW94252   8.121   7.301   2.978 -0.3753  0.2296 -0.7549
31225SOL    HW194253   8.151   7.282   2.889  0.3493 -0.8868 -0.2954
31225SOL    HW294254   8.037   7.254   2.985  0.0583 -0.5265 -0.5318
31226SOL     OW94255   1.221   8.743   2.081  0.0029  0.0052 -0.2531
31226SOL    HW194256   1.305   8.701   2.101  0.1301 -0.1526 -1.0723
31226SOL    HW294257   1.157   8.672   2.082 -0.2148  0.1952  0.8250
31227SOL     OW94258   8.275   0.738   5.293  0.0224 -0.1751  0.2670
31227SOL    HW194259   8.299   0.692   5.374 -0.5858 -0.6604  0.1772
31227SOL    HW294260   8.312   0.683   5.224  0.3507  0.1250  0.1978
31228SOL     OW94261   0.799   8.577   1.357 -0.3888 -0.9268  0.0532
31228SOL    HW194262   0.749   8.613   1.284  0.9877 -1.1178 -1.0018
31228SOL    HW294263   0.876   8.632   1.364 -0.9829 -0.2455  2.0827
31229SOL     OW94264   8.103   3.402   0.574  0.2602 -0.1087 -0.2767
31229SOL    HW194265   8.183   3.443   0.540  0.7986  0.0987  1.1883
31229SOL    HW294266   8.096   3.433   0.664  0.2951 -2.6161  0.6805
31230SOL     OW94267   6.134   9.132   8.203 -0.3147  0.7271  0.2903
31230SOL    HW194268   6.213   9.165   8.161  0.2856 -0.6707  0.2580
31230SOL    HW294269   6.150   9.142   8.297 -0.1411  0.5385  0.2805
31231SOL     OW94270   9.296   2.116   6.255 -0.2367  0.2537 -0.9734
31231SOL    HW194271   9.215   2.078   6.221 -2.0800  3.6872 -0.9310
31231SOL    HW294272   9.308   2.076   6.341  0.6416 -3.4429 -2.6372
31232SOL     OW94273   2.839   4.479   4.317 -0.1786 -0.1035 -0.7027
31232SOL    HW194274   2.756   4.518   4.291  0.5245  1.0399 -1.3252
31232SOL    HW294275   2.880   4.545   4.372  0.5140 -0.4716 -0.7674
31233SOL     OW94276   5.924   4.090   5.356 -0.1274 -0.1732 -0.4692
31233SOL    HW194277   5.964   4.005   5.342 -0.0525 -0.2430  0.1474
31233SOL    HW294278   5.887   4.113   5.271 -1.0296 -1.2820 -0.4003
31234SOL     OW94279   6.619   3.911   9.926 -0.1178  0.6143 -0.3230
31234SOL    HW194280   6.576   3.994   9.911 -0.7745  0.1938 -0.8066
31234SOL    HW294281   6.560   3.863   9.985  0.8332  0.9478  0.9668
31235SOL     OW94282   9.112   2.052   6.750 -0.4096 -0.1454  0.2767
31235SOL    HW194283   9.200   2.014   6.742 -1.0043 -1.5105 -0.1126
31235SOL    HW294284   9.115   2.131   6.696  0.7447  0.1583  0.7498
31236SOL     OW94285   9.720   6.696   4.358 -0.2428  0.1935  0.5317
31236SOL    HW194286   9.665   6.758   4.406 -1.3709 -0.5142  0.1760
31236SOL    HW294287   9.676   6.683   4.275 -0.1016 -1.1889  0.6521
31237SOL     OW94288   4.157   8.705   9.688 -0.2421 -0.2124  0.5812
31237SOL    HW194289   4.143   8.675   9.778  0.3399  0.1278  0.7842
31237SOL    HW294290   4.107   8.642   9.635 -1.7045  0.3627  1.2094
31238SOL     OW94291   1.373   3.157   4.158  0.2984 -0.1796  0.1276
31238SOL    HW194292   1.385   3.073   4.114 -0.3625 -0.9380  1.3169
31238SOL    HW294293   1.394   3.138   4.250  0.8605  1.1431  0.2830
31239SOL     OW94294   6.451   9.671   8.377  0.3136 -0.1193  0.0827
31239SOL    HW194295   6.410   9.624   8.450 -1.2157  0.6937 -0.1934
31239SOL    HW294296   6.472   9.757   8.413 -2.0923  0.9387 -0.8057
31240SOL     OW94297   4.375   6.589   8.174  0.2258 -0.1262  0.1478
31240SOL    HW194298   4.470   6.603   8.164  0.2823 -1.4350 -1.5080
31240SOL    HW294299   4.357   6.511   8.122 -2.0634  1.0869 -0.9913
31241SOL     OW94300   3.728   1.786   3.143  0.0938  0.2059  0.1268
31241SOL    HW194301   3.752   1.866   3.190 -1.0075  0.1822  0.7450
31241SOL    HW294302   3.717   1.815   3.052 -0.7000  0.8515  0.4170
31242SOL     OW94303   5.970   9.441   2.642 -0.5843  0.1886  0.3383
31242SOL    HW194304   6.059   9.466   2.616 -0.4865 -1.1037 -0.6134
31242SOL    HW294305   5.927   9.417   2.560 -1.6618  0.3014  0.8586
31243SOL     OW94306   6.810   8.492   2.492 -0.2185 -0.5429 -0.3412
31243SOL    HW194307   6.828   8.494   2.586 -0.6691  0.7820 -0.2682
31243SOL    HW294308   6.869   8.424   2.458 -0.2106 -1.1925  0.9191
31244SOL     OW94309   8.062   7.189   4.727 -0.2613  0.1522  0.2102
31244SOL    HW194310   8.011   7.261   4.764 -2.0067 -1.7421  1.7385
31244SOL    HW294311   8.117   7.159   4.799  0.5043 -0.0013 -0.4287
31245SOL     OW94312   9.145   9.238   2.196  0.2156  0.0183  0.4155
31245SOL    HW194313   9.099   9.163   2.158  0.8653 -0.2217  0.0782
31245SOL    HW294314   9.092   9.314   2.172  0.6379 -0.1224 -1.0268
31246SOL     OW94315   7.595   7.855   8.973  0.7050 -0.2236  0.1504
31246SOL    HW194316   7.504   7.865   8.998  0.2964 -1.2464 -0.8343
31246SOL    HW294317   7.600   7.889   8.883  1.2346 -0.3960  0.1080
31247SOL     OW94318   2.834   7.478   6.173 -0.1393 -0.2954  0.3328
31247SOL    HW194319   2.743   7.506   6.159  0.6547  2.1185 -0.4300
31247SOL    HW294320   2.865   7.534   6.244  1.5559  0.9748 -1.3146
31248SOL     OW94321   0.182   1.917   3.986 -0.1043 -0.0285  0.0455
31248SOL    HW194322   0.168   1.998   4.036  0.0829  1.0108 -1.4873
31248SOL    HW294323   0.232   1.946   3.909  0.8417 -1.7909 -0.0472
31249SOL     OW94324   7.303   2.039   2.417 -0.2225 -0.0913 -0.0966
31249SOL    HW194325   7.382   2.062   2.466  0.4140 -2.7974  0.3142
31249SOL    HW294326   7.303   1.944   2.415 -1.0520 -0.1617 -4.1120
31250SOL     OW94327   4.997   7.145   9.629 -0.1183 -0.0032 -0.3549
31250SOL    HW194328   4.906   7.119   9.642 -0.1568  1.0048  1.8289
31250SOL    HW294329   4.993   7.221   9.571 -0.4114 -1.4388 -2.3188
31251SOL     OW94330   7.328   9.393   5.554 -0.1186  0.2302 -0.1731
31251SOL    HW194331   7.415   9.354   5.557 -0.9721 -1.7054  1.8915
31251SOL    HW294332   7.300   9.382   5.462  2.2731  2.2177 -1.2430
31252SOL     OW94333   4.922   7.265   7.448  0.0406 -1.0766 -0.1251
31252SOL    HW194334   4.874   7.347   7.442  1.4672 -0.0967  0.9756
31252SOL    HW294335   4.884   7.220   7.524 -1.1292 -1.7351 -1.0733
31253SOL     OW94336   5.998   1.344   9.776 -0.1251  0.2242 -0.1040
31253SOL    HW194337   5.957   1.316   9.694 -2.4788  1.6111  0.4782
31253SOL    HW294338   6.030   1.432   9.758  1.4327 -0.3281 -0.1421
31254SOL     OW94339   3.195   9.609   2.640 -0.2544  0.0894  0.2281
31254SOL    HW194340   3.270   9.551   2.657 -0.2419 -0.7932 -2.4016
31254SOL    HW294341   3.142   9.561   2.576 -2.0529  1.5585  0.5506
31255SOL     OW94342   1.031   9.400   4.146  0.5978  0.3826 -0.0100
31255SOL    HW194343   1.010   9.491   4.126  2.1009  0.5220 -1.0974
31255SOL    HW294344   1.045   9.399   4.241 -3.6000  0.3352  0.8407
31256SOL     OW94345   7.119   5.472   6.573  0.0427 -0.6732  0.8438
31256SOL    HW194346   7.200   5.447   6.617  1.7837  0.0954 -1.7687
31256SOL    HW294347   7.103   5.403   6.509 -1.7958 -1.1580  1.7462
31257SOL     OW94348   8.678   8.157   3.602  0.1825 -0.0374 -0.1404
31257SOL    HW194349   8.593   8.117   3.584  0.5794 -0.5139 -1.0295
31257SOL    HW294350   8.741   8.095   3.566  1.0655 -0.9393  2.7694
31258SOL     OW94351   4.916   7.138   7.203  0.3343 -0.2961  0.4929
31258SOL    HW194352   4.898   7.155   7.295  0.3084 -1.5095  0.7306
31258SOL    HW294353   4.880   7.214   7.157  0.8687  0.6091  1.5158
31259SOL     OW94354   0.166   6.732   1.794 -0.1338 -0.0661 -0.5326
31259SOL    HW194355   0.167   6.827   1.811  0.4073 -0.0128 -0.8392
31259SOL    HW294356   0.078   6.704   1.820 -0.0026  0.3620  0.3811
31260SOL     OW94357   8.516   5.596   4.563 -0.9440 -0.2734  0.4418
31260SOL    HW194358   8.568   5.523   4.530 -0.7616  0.4203 -0.8688
31260SOL    HW294359   8.559   5.674   4.527 -0.6101  0.5703  2.5042
31261SOL     OW94360   4.125   6.454   4.881 -0.5368 -1.0219  0.0552
31261SOL    HW194361   4.144   6.398   4.957 -0.4312  0.0118  0.8220
31261SOL    HW294362   4.207   6.458   4.833 -0.3125 -0.8759  0.4431
31262SOL     OW94363   7.748   8.374   3.826 -0.2859  0.1059 -0.3451
31262SOL    HW194364   7.804   8.312   3.873 -1.1452 -0.2929  0.1704
31262SOL    HW294365   7.747   8.453   3.880  0.5733  0.4884 -0.8580
31263SOL     OW94366   8.887   8.683   1.677  0.3518  0.5617 -0.3070
31263SOL    HW194367   8.888   8.739   1.754  0.9931  0.6874 -0.3954
31263SOL    HW294368   8.938   8.730   1.612  0.4303  0.1315 -0.5663
31264SOL     OW94369   1.224   2.667   8.156 -0.1636 -0.1205  0.4812
31264SOL    HW194370   1.262   2.681   8.243  1.0668 -0.3343 -0.0074
31264SOL    HW294371   1.252   2.579   8.131  0.1104  0.2158 -0.4331
31265SOL     OW94372   6.050   9.615   8.796  0.4114  0.2347  0.1636
31265SOL    HW194373   6.074   9.689   8.740 -1.3190 -0.4987 -1.6510
31265SOL    HW294374   6.038   9.542   8.735 -1.3921 -0.6491  1.4908
31266SOL     OW94375   8.381   9.221   1.046  0.0551  0.4092 -0.2607
31266SOL    HW194376   8.341   9.248   1.129 -1.8281  0.9549 -1.2932
31266SOL    HW294377   8.379   9.125   1.049  1.4969  0.3787  0.9757
31267SOL     OW94378   3.703   7.159   8.142  0.6683 -0.4547  0.1935
31267SOL    HW194379   3.696   7.086   8.080  2.2642 -0.5085  0.0470
31267SOL    HW294380   3.756   7.224   8.097  0.9389 -0.0450  1.0893
31268SOL     OW94381   8.439   9.007   0.744 -0.2156 -0.0582  0.0152
31268SOL    HW194382   8.463   9.098   0.760 -0.8810  0.4158 -1.4894
31268SOL    HW294383   8.397   8.979   0.825 -2.4008  1.8313 -0.3678
31269SOL     OW94384   6.199   2.703   6.737 -0.5414 -0.0715  0.2389
31269SOL    HW194385   6.216   2.611   6.754  0.5363 -0.2335 -1.4433
31269SOL    HW294386   6.284   2.739   6.712 -1.4885  0.5279 -2.5139
31270SOL     OW94387   0.582   4.679   6.545 -0.0409  0.1137 -0.3588
31270SOL    HW194388   0.549   4.601   6.589  0.3316  0.8795  1.3576
31270SOL    HW294389   0.580   4.657   6.452  0.8417 -2.2369  0.1162
31271SOL     OW94390   4.258   9.471   3.696 -0.1298  0.3614 -0.1447
31271SOL    HW194391   4.197   9.430   3.635 -1.7383 -0.3215  1.7814
31271SOL    HW294392   4.203   9.533   3.745  0.5419 -0.6687  2.0280
31272SOL     OW94393   9.861   3.231   7.553 -0.1816  0.1048 -0.5055
31272SOL    HW194394   9.816   3.300   7.601 -2.2128 -0.5154 -1.4406
31272SOL    HW294395   9.943   3.271   7.524 -0.5684  1.5807  0.3537
31273SOL     OW94396   2.133   4.314   1.933  0.8034 -0.2240  0.8677
31273SOL    HW194397   2.071   4.381   1.902 -0.5268 -1.8068 -0.0591
31273SOL    HW294398   2.218   4.344   1.902  0.6278  2.1647  2.4122
31274SOL     OW94399   9.733   8.385   4.609 -0.1863  0.2817  0.5691
31274SOL    HW194400   9.735   8.388   4.705  2.9937  3.1830  0.6030
31274SOL    HW294401   9.666   8.449   4.585 -1.7709 -1.2321  0.7455
31275SOL     OW94402   8.051   5.224   5.941  0.1575 -0.0250 -0.3885
31275SOL    HW194403   7.987   5.167   5.898 -1.1159  0.1311  1.1789
31275SOL    HW294404   8.108   5.164   5.988  0.0617 -0.1018 -0.3690
31276SOL     OW94405   5.701   7.830   1.092  0.3782 -0.3916  0.4293
31276SOL    HW194406   5.707   7.747   1.139  0.3750  0.3383  1.7733
31276SOL    HW294407   5.761   7.888   1.139 -0.9657  0.8761  0.6392
31277SOL     OW94408   3.479   9.009   9.734  0.3302 -0.5803  0.2133
31277SOL    HW194409   3.404   9.042   9.784  1.2134 -0.3884  1.4573
31277SOL    HW294410   3.556   9.042   9.781  1.2075 -0.3739 -1.3084
31278SOL     OW94411   3.708   0.575   2.893 -0.0130 -0.0109 -0.4681
31278SOL    HW194412   3.756   0.594   2.812 -0.0234  3.0131  0.1135
31278SOL    HW294413   3.772   0.589   2.963 -0.1781 -1.9741  0.1383
31279SOL     OW94414   3.469   1.821   5.259  0.7897 -0.4758 -0.0289
31279SOL    HW194415   3.487   1.850   5.169 -0.2528  3.2960  0.7998
31279SOL    HW294416   3.379   1.789   5.256  0.8068 -0.5004 -0.3327
31280SOL     OW94417   2.712   0.451   3.391 -0.0414  0.3841  0.4582
31280SOL    HW194418   2.701   0.481   3.301  0.1633  0.0263  0.3102
31280SOL    HW294419   2.758   0.367   3.382 -3.2492 -1.5702  0.6405
31281SOL     OW94420   7.897   7.358   9.853 -1.0437  0.2275 -0.3633
31281SOL    HW194421   7.967   7.297   9.875 -1.7290  0.0400  1.4444
31281SOL    HW294422   7.816   7.310   9.869 -1.5864  1.1835 -0.1297
31282SOL     OW94423   3.012   2.858   2.835 -0.1692 -0.2103  0.4974
31282SOL    HW194424   2.952   2.849   2.761  1.2318  0.7531 -0.8206
31282SOL    HW294425   2.958   2.838   2.912 -2.2873  1.0233 -0.5575
31283SOL     OW94426   9.600   7.166   1.279  0.5710 -0.4797 -0.3394
31283SOL    HW194427   9.573   7.097   1.219  1.3922 -0.6679 -0.5040
31283SOL    HW294428   9.691   7.185   1.255  1.2129 -1.1615  1.4087
31284SOL     OW94429   2.052   6.200   5.622  0.2133 -0.0286 -0.2538
31284SOL    HW194430   2.119   6.198   5.554  0.0313  3.2989 -0.6965
31284SOL    HW294431   1.984   6.140   5.591  1.1711 -0.3468 -1.8320
31285SOL     OW94432   8.834   2.890   8.478  0.2510  0.4207 -0.6155
31285SOL    HW194433   8.884   2.837   8.540 -0.2177  1.3191  0.5776
31285SOL    HW294434   8.859   2.980   8.498 -1.3581  0.8555 -0.4021
31286SOL     OW94435   5.590   7.294   9.846 -0.7013  0.3140  0.0730
31286SOL    HW194436   5.625   7.206   9.860 -2.0798 -0.3292 -0.3742
31286SOL    HW294437   5.551   7.291   9.759 -1.7112  1.0335  0.4817
31287SOL     OW94438   5.616   5.911   3.915 -0.5208  0.2636  0.2494
31287SOL    HW194439   5.694   5.927   3.860 -0.4042 -1.3211 -0.1010
31287SOL    HW294440   5.581   5.998   3.933  1.1229  0.9953  0.0997
31288SOL     OW94441   4.878   7.763   8.557 -0.4987 -0.8006 -0.0035
31288SOL    HW194442   4.920   7.709   8.624 -3.3340 -1.4187  1.4608
31288SOL    HW294443   4.879   7.708   8.478  1.4117 -0.7390 -0.0603
31289SOL     OW94444   0.973   5.745   0.403 -0.3078  0.3356 -0.1575
31289SOL    HW194445   0.930   5.793   0.474  3.5705  0.9802  2.0032
31289SOL    HW294446   1.038   5.805   0.367 -1.8790 -0.0587 -4.2835
31290SOL     OW94447   0.937   5.387   8.226  0.0260  0.0257 -0.4972
31290SOL    HW194448   0.947   5.431   8.310  0.8884 -0.6445 -0.2375
31290SOL    HW294449   0.843   5.376   8.215 -0.1006  0.2822  0.2929
31291SOL     OW94450   2.438   2.588   3.844  0.0751  0.2972 -0.0880
31291SOL    HW194451   2.430   2.517   3.781 -1.3503  0.2846  0.0678
31291SOL    HW294452   2.517   2.568   3.893 -0.8564 -1.8234  0.6922
31292SOL     OW94453   2.245   5.958   2.025 -0.2917 -0.5333 -0.3223
31292SOL    HW194454   2.293   5.892   1.974  1.5107  0.4617  0.0382
31292SOL    HW294455   2.157   5.921   2.034  0.7732 -3.1371  0.3000
31293SOL     OW94456   8.456   2.498   3.000 -0.6634 -0.1430 -0.6574
31293SOL    HW194457   8.531   2.553   2.980 -0.5703 -0.2438 -0.5839
31293SOL    HW294458   8.390   2.559   3.034 -0.5725 -0.0726 -0.6092
31294SOL     OW94459   3.393   7.554   3.985 -0.0468 -0.5983 -0.5134
31294SOL    HW194460   3.375   7.646   4.003  0.5391 -0.5784  0.0153
31294SOL    HW294461   3.385   7.511   4.070  1.3443 -0.7435 -0.4388
31295SOL     OW94462   6.988   5.161   2.667 -0.1778  0.1876 -0.0960
31295SOL    HW194463   7.070   5.197   2.631  0.0653 -2.2549 -2.2814
31295SOL    HW294464   7.015   5.081   2.711 -1.1198  0.7384  1.5489
31296SOL     OW94465   1.191   0.784   5.615 -0.1550  0.0540  0.5043
31296SOL    HW194466   1.126   0.813   5.551 -1.1678 -1.1458  0.9380
31296SOL    HW294467   1.212   0.863   5.665  0.2751  0.8990 -0.9384
31297SOL     OW94468   7.014   1.245   5.056  0.0723  0.2122  0.5683
31297SOL    HW194469   6.980   1.284   4.976  0.4555  0.6154  0.6019
31297SOL    HW294470   6.945   1.259   5.121 -0.6409 -0.9420  0.0872
31298SOL     OW94471   5.327   6.357   5.003 -0.6364  0.0116 -0.1072
31298SOL    HW194472   5.311   6.430   4.944  0.5490  0.5859  0.2360
31298SOL    HW294473   5.420   6.366   5.027 -0.5380 -1.4458  0.1565
31299SOL     OW94474   7.547   0.063   5.845 -0.1441  0.3231 -0.5992
31299SOL    HW194475   7.580   0.021   5.925  0.4699  0.4823 -0.7668
31299SOL    HW294476   7.457   0.032   5.838  0.0435 -0.3178 -0.2737
31300SOL     OW94477   6.518   8.932   4.534 -0.3912  0.1581  0.0585
31300SOL    HW194478   6.429   8.931   4.569 -0.3182 -3.2254  0.5055
31300SOL    HW294479   6.574   8.921   4.611  0.3565  0.8287 -0.3682
31301SOL     OW94480   9.280   6.058   9.860  0.5152 -0.1240 -0.4551
31301SOL    HW194481   9.347   5.991   9.845  0.5513  0.0036 -0.8679
31301SOL    HW294482   9.285   6.115   9.784  1.3953  1.1305  0.4908
31302SOL     OW94483   2.759   6.485   8.263 -0.3337  0.3978 -0.7246
31302SOL    HW194484   2.732   6.418   8.200 -0.7087  0.3338 -0.4962
31302SOL    HW294485   2.741   6.446   8.349  0.2107  0.4682 -0.5720
31303SOL     OW94486   0.886   0.858   4.734 -0.8992 -0.2023  0.5212
31303SOL    HW194487   0.878   0.932   4.795 -1.8717 -0.3798  0.6194
31303SOL    HW294488   0.853   0.892   4.651  0.9841  0.2296 -0.1153
31304SOL     OW94489   0.583   1.846   7.875 -0.4052  0.7954 -0.4483
31304SOL    HW194490   0.544   1.832   7.961  1.2716  0.7754  0.3302
31304SOL    HW294491   0.638   1.769   7.860 -0.1682  1.1054 -1.2564
31305SOL     OW94492   0.287   9.548   7.520 -0.4100 -0.7567  0.2261
31305SOL    HW194493   0.287   9.510   7.607 -1.3209  1.5517  1.3101
31305SOL    HW294494   0.342   9.626   7.528 -1.3065  0.0433 -0.9704
31306SOL     OW94495   0.864   6.912   3.575 -0.3800 -0.0685  0.0502
31306SOL    HW194496   0.830   6.973   3.640 -0.1799 -1.5171  1.5857
31306SOL    HW294497   0.857   6.959   3.491 -4.1573  0.5321  0.5250
31307SOL     OW94498   7.730   8.650   2.697 -0.4465 -0.0878  0.0707
31307SOL    HW194499   7.722   8.691   2.783  0.9350  1.5407 -0.5248
31307SOL    HW294500   7.639   8.633   2.670 -0.9065 -2.5766  2.6454
31308SOL     OW94501   9.572   4.197   6.378  0.1638 -0.2588 -0.2051
31308SOL    HW194502   9.657   4.208   6.421 -0.4103 -0.7882  1.0796
31308SOL    HW294503   9.577   4.110   6.338 -0.3278 -0.9177  1.1520
31309SOL     OW94504   5.836   2.482   5.219 -0.8129 -0.9093  0.1748
31309SOL    HW194505   5.754   2.438   5.198 -1.3182  0.2356 -0.3362
31309SOL    HW294506   5.842   2.478   5.314 -2.8319  1.2519  0.4919
31310SOL     OW94507   4.108   1.474   0.181  0.3171 -0.1237 -0.1343
31310SOL    HW194508   4.161   1.452   0.105  0.9545 -1.6559  0.7144
31310SOL    HW294509   4.018   1.457   0.153  0.7098 -4.3199  0.4397
31311SOL     OW94510   1.933   3.840   3.562 -0.5152  0.5272  0.6493
31311SOL    HW194511   1.959   3.840   3.654  2.1963  0.9209 -0.0370
31311SOL    HW294512   1.943   3.931   3.534 -1.2342  0.3966 -0.0875
31312SOL     OW94513   4.231   9.389   8.372 -0.5263  0.3433  0.3854
31312SOL    HW194514   4.219   9.450   8.299 -0.7544 -1.2401 -0.9472
31312SOL    HW294515   4.206   9.304   8.337  0.1196 -0.5987  2.0954
31313SOL     OW94516   4.278   6.690   0.678  0.4104  0.2026  0.3508
31313SOL    HW194517   4.206   6.633   0.650  0.3871 -0.2281  1.2415
31313SOL    HW294518   4.266   6.699   0.773  0.7346  1.2526  0.3104
31314SOL     OW94519   9.075   3.948   4.979 -0.1205 -0.1781 -0.4184
31314SOL    HW194520   9.070   3.894   5.059  0.4886 -0.0332 -0.2806
31314SOL    HW294521   8.991   3.994   4.977  0.1385  0.3574  0.5312
31315SOL     OW94522   2.612   2.197   9.542  0.3204 -0.0564 -0.3098
31315SOL    HW194523   2.592   2.135   9.612 -0.1069 -0.1746 -0.5292
31315SOL    HW294524   2.636   2.142   9.468 -0.8542 -0.0079 -0.7513
31316SOL     OW94525   0.021   0.771   2.736 -0.6656  0.7341  0.2187
31316SOL    HW194526   0.088   0.819   2.688  0.0997  0.7627  1.2642
31316SOL    HW294527  -0.016   0.835   2.797 -2.7368  1.1343 -1.3344
31317SOL     OW94528   1.471   6.967   4.784  0.4105 -0.1555 -0.8378
31317SOL    HW194529   1.471   7.058   4.815 -0.7045  0.5215 -2.6742
31317SOL    HW294530   1.386   6.956   4.742 -0.9455 -3.1064  2.1626
31318SOL     OW94531   0.927   0.654   5.684 -0.0001 -0.3416 -0.0558
31318SOL    HW194532   1.020   0.652   5.662  0.0246 -3.8335 -0.1952
31318SOL    HW294533   0.924   0.644   5.779 -0.2326  0.3548  0.0123
31319SOL     OW94534   4.208   6.978   7.333  0.1450 -0.7388 -0.1260
31319SOL    HW194535   4.271   6.915   7.297 -0.4624 -1.2318 -0.3480
31319SOL    HW294536   4.122   6.940   7.313 -0.3291  1.2956 -2.4616
31320SOL     OW94537   4.015   7.252   2.043 -0.0904  0.1707  0.0315
31320SOL    HW194538   3.961   7.194   1.988 -0.4341 -1.4327  1.9586
31320SOL    HW294539   3.951   7.302   2.095  0.2493  1.0411 -0.3677
31321SOL     OW94540   4.904   1.889   5.342 -0.2682  0.0065  1.0049
31321SOL    HW194541   4.860   1.811   5.375 -0.9536  1.1215  2.8751
31321SOL    HW294542   4.947   1.926   5.419 -0.5560  1.8554  0.3150
31322SOL     OW94543   1.571   7.079   3.207 -0.4517  0.1427 -0.4348
31322SOL    HW194544   1.629   7.004   3.195 -3.6539 -2.3336 -1.9172
31322SOL    HW294545   1.611   7.149   3.156  1.9001 -0.9694 -0.2413
31323SOL     OW94546   1.608   4.576   8.791  0.0802 -0.5130  0.3933
31323SOL    HW194547   1.562   4.659   8.808 -0.4477 -0.9981  1.4309
31323SOL    HW294548   1.562   4.512   8.844  1.7348 -1.0951  1.2086
31324SOL     OW94549   6.288   0.132   4.567  0.4775  0.1311  0.5353
31324SOL    HW194550   6.374   0.134   4.525 -0.7469 -0.8035 -2.2798
31324SOL    HW294551   6.228   0.161   4.499 -1.5818 -0.3433  2.0610
31325SOL     OW94552   4.285   2.519   8.222  0.1533  0.8683 -0.0254
31325SOL    HW194553   4.355   2.453   8.223 -0.2002  0.4801 -0.5158
31325SOL    HW294554   4.296   2.565   8.305  1.5819  1.4518 -0.5025
31326SOL     OW94555   7.022   7.090   2.448 -0.1817 -0.3382  0.5258
31326SOL    HW194556   7.075   7.146   2.391  0.8213  0.0109  1.7429
31326SOL    HW294557   7.074   7.010   2.458 -0.9052 -0.8850  0.0137
31327SOL     OW94558   2.421   8.956   1.090 -0.1270  0.0585 -0.1907
31327SOL    HW194559   2.371   8.888   1.045 -0.2355  2.0621 -3.3609
31327SOL    HW294560   2.509   8.948   1.054  0.3710  0.3581  0.9253
31328SOL     OW94561   2.239   6.030   8.401  0.0037  0.2739  0.1787
31328SOL    HW194562   2.246   6.041   8.306  0.1236 -1.5449 -0.0446
31328SOL    HW294563   2.319   5.985   8.427 -1.4858 -2.3342  0.5897
31329SOL     OW94564   9.755   2.271   5.530 -0.2178 -0.0977 -0.1967
31329SOL    HW194565   9.699   2.324   5.474 -1.4245 -0.5418  0.5441
31329SOL    HW294566   9.718   2.183   5.524  1.0701 -0.6461 -0.5332
31330SOL     OW94567   0.135   3.667   4.997 -0.5530  0.5796  0.0296
31330SOL    HW194568   0.109   3.586   5.042 -1.1836 -0.7706 -2.6052
31330SOL    HW294569   0.052   3.708   4.973 -0.2519  0.5204 -1.1483
31331SOL     OW94570   5.158   5.154   4.877  0.1582 -0.4731  0.2261
31331SOL    HW194571   5.223   5.199   4.824 -0.9909  1.2740  0.2151
31331SOL    HW294572   5.204   5.134   4.959  0.7364  0.7379  0.2245
31332SOL     OW94573   0.994   6.437   2.446  0.4559  0.0625 -0.2766
31332SOL    HW194574   1.001   6.437   2.542  1.7024 -2.2012 -0.2955
31332SOL    HW294575   0.901   6.452   2.429  0.5382  2.8311  1.1670
31333SOL     OW94576   8.266   9.526   1.499  0.1448 -0.1752 -0.0543
31333SOL    HW194577   8.175   9.546   1.476  0.0569  2.0527  1.8544
31333SOL    HW294578   8.308   9.508   1.414 -1.9619 -0.9541 -1.0107
31334SOL     OW94579   6.416   6.294   0.805 -0.2468 -0.2742  0.1355
31334SOL    HW194580   6.366   6.224   0.764  1.5672 -1.3815 -0.3070
31334SOL    HW294581   6.418   6.270   0.898 -2.1538  0.8489  0.5203
31335SOL     OW94582   5.367   9.239   0.652  0.0148 -0.3770 -0.0563
31335SOL    HW194583   5.392   9.182   0.579 -0.3915 -3.2730  1.8722
31335SOL    HW294584   5.282   9.206   0.680  1.1415 -0.9675  3.0882
31336SOL     OW94585   5.178   8.034   5.688  0.1823 -0.0825 -0.1036
31336SOL    HW194586   5.103   7.980   5.713 -0.7230  0.0191 -2.3530
31336SOL    HW294587   5.249   8.004   5.745 -1.4823 -0.3358  1.9363
31337SOL     OW94588   8.189   8.261   2.468  0.3709  0.0766 -0.4822
31337SOL    HW194589   8.174   8.167   2.478 -0.2147  0.3227  1.3627
31337SOL    HW294590   8.191   8.294   2.557 -0.3236  1.9566 -1.1190
31338SOL     OW94591   5.022   1.389   0.071  0.1746 -0.5383 -0.3386
31338SOL    HW194592   4.984   1.352   0.151 -0.6060 -0.3280 -0.6066
31338SOL    HW294593   5.072   1.317   0.033  0.1396 -0.7866  0.0758
31339SOL     OW94594   0.867   9.593   2.746 -0.3151  0.5625 -0.0191
31339SOL    HW194595   0.865   9.512   2.696  1.4389  0.2134  0.3924
31339SOL    HW294596   0.793   9.586   2.806 -0.6052 -0.4077 -0.4700
31340SOL     OW94597   3.516   2.258   5.406 -0.6203 -0.1266 -0.2895
31340SOL    HW194598   3.425   2.242   5.382 -0.7734  0.5372 -0.1887
31340SOL    HW294599   3.513   2.274   5.501 -0.5089  0.6230 -0.4087
31341SOL     OW94600   3.602   3.194   6.522 -0.2527 -0.2188  0.1310
31341SOL    HW194601   3.684   3.173   6.566  0.2214 -0.2775 -0.7696
31341SOL    HW294602   3.542   3.216   6.593  1.0089  1.5285  0.7183
31342SOL     OW94603   7.978   6.558   8.412 -0.2644 -0.5668 -0.0012
31342SOL    HW194604   8.008   6.547   8.322  1.0248  0.1894  0.3091
31342SOL    HW294605   7.990   6.473   8.452 -1.8149 -1.2047 -0.7788
31343SOL     OW94606   3.711   2.298   2.518 -0.1144  0.0243  0.1475
31343SOL    HW194607   3.649   2.226   2.524  0.4694 -0.7887 -2.4943
31343SOL    HW294608   3.797   2.257   2.521  0.2543  0.7623  0.0836
31344SOL     OW94609   2.796   9.540   0.449 -0.0349  0.0451 -0.3803
31344SOL    HW194610   2.886   9.572   0.452  0.4346 -0.7725 -2.8528
31344SOL    HW294611   2.787   9.485   0.527  0.0516  3.6569  2.4091
31345SOL     OW94612   4.284   7.352   9.692  0.3218 -0.5493 -0.0389
31345SOL    HW194613   4.366   7.302   9.699 -0.4759 -2.1078 -1.2038
31345SOL    HW294614   4.297   7.408   9.615  0.3141 -0.7635 -0.1971
31346SOL     OW94615   1.285   3.580   3.588  0.3758 -0.5878  0.5015
31346SOL    HW194616   1.363   3.555   3.538  0.4214 -0.1683  0.3561
31346SOL    HW294617   1.288   3.526   3.667  0.4460 -1.0663  0.1803
31347SOL     OW94618   4.311   5.938   1.152 -0.0900  0.1105 -0.2967
31347SOL    HW194619   4.324   5.935   1.247 -2.1895  1.1756  0.0867
31347SOL    HW294620   4.370   5.871   1.117  2.2618  1.1104  1.5462
31348SOL     OW94621   3.063   2.950   9.468 -0.9913  0.1229 -0.2431
31348SOL    HW194622   3.107   3.021   9.421  0.0225 -0.8857 -0.8988
31348SOL    HW294623   3.100   2.870   9.429 -1.8126 -0.7572  0.7297
31349SOL     OW94624   3.184   7.618   7.268  0.6025 -0.0485 -0.5780
31349SOL    HW194625   3.189   7.522   7.267 -1.0266 -0.1978  0.7407
31349SOL    HW294626   3.102   7.638   7.221  0.3935  0.6262  0.0608
31350SOL     OW94627   1.299   3.821   2.973 -0.2520  0.2077  0.3202
31350SOL    HW194628   1.337   3.829   3.061  0.5281 -2.7371  0.3624
31350SOL    HW294629   1.210   3.856   2.982 -0.9291 -1.8738  2.8917
31351SOL     OW94630   5.105   7.749   6.921 -0.0881  0.2188  0.2046
31351SOL    HW194631   5.138   7.678   6.976 -0.7485  0.8588  1.4782
31351SOL    HW294632   5.152   7.740   6.839  1.8497 -0.0454  1.2854
31352SOL     OW94633   6.670   4.480   5.544 -0.1970  0.5817 -0.1417
31352SOL    HW194634   6.730   4.553   5.527  0.8435 -0.3692 -0.6369
31352SOL    HW294635   6.688   4.454   5.634 -0.3143  0.6964 -0.0842
31353SOL     OW94636   1.709   1.791   3.809 -0.4310 -0.2055  0.3858
31353SOL    HW194637   1.726   1.826   3.896  2.3548 -1.3786  0.4507
31353SOL    HW294638   1.688   1.699   3.824 -1.7543 -0.0064 -0.1146
31354SOL     OW94639   0.489   2.022   9.797  0.0203  0.4024  0.0894
31354SOL    HW194640   0.446   1.943   9.765 -0.5380  0.5445  0.4766
31354SOL    HW294641   0.438   2.048   9.873  2.2070 -0.7673  2.0580
31355SOL     OW94642   7.537   6.249   4.759 -0.0870  0.1798  0.3517
31355SOL    HW194643   7.629   6.243   4.786 -0.5682  0.4728  2.1596
31355SOL    HW294644   7.504   6.160   4.766  0.1083  0.0319 -0.5309
31356SOL     OW94645   3.176   6.041   7.276 -0.2120 -0.2037  0.1490
31356SOL    HW194646   3.231   6.039   7.354  0.3556 -0.3127 -0.2503
31356SOL    HW294647   3.220   6.101   7.216  0.3867 -1.5878 -0.8331
31357SOL     OW94648   6.572   3.761   3.813 -0.2058  0.4195 -0.2343
31357SOL    HW194649   6.655   3.763   3.765 -0.1843  0.7510 -0.1808
31357SOL    HW294650   6.592   3.711   3.892 -0.3403 -0.4842 -0.7548
31358SOL     OW94651   1.927   9.268   3.501  0.1480 -0.3288  0.2071
31358SOL    HW194652   1.856   9.322   3.536  0.0621  0.1710 -0.6941
31358SOL    HW294653   1.883   9.203   3.445  0.2953 -0.9708  0.8253
31359SOL     OW94654   4.067   1.861   0.539  0.6777 -0.6033  0.1456
31359SOL    HW194655   4.042   1.829   0.453 -3.9871 -0.1607  1.0610
31359SOL    HW294656   4.096   1.782   0.586  1.2986 -1.2037 -1.1957
31360SOL     OW94657   2.057   2.724   8.651  0.2457 -0.3367 -0.3011
31360SOL    HW194658   2.043   2.744   8.559 -0.7026  0.0904 -0.0742
31360SOL    HW294659   2.100   2.802   8.687 -2.8709  1.2170  0.4386
31361SOL     OW94660   9.295   4.584   8.737  0.0822 -0.5063 -0.4618
31361SOL    HW194661   9.211   4.586   8.690 -0.1484  0.6175 -0.0544
31361SOL    HW294662   9.361   4.596   8.669 -0.0970 -1.3099 -0.7761
31362SOL     OW94663   3.019   3.993   3.715 -0.6725  0.7908  0.2251
31362SOL    HW194664   3.040   4.026   3.628 -0.0906  1.8676  0.7536
31362SOL    HW294665   3.098   4.009   3.767 -1.4512  1.3931  1.2770
31363SOL     OW94666   6.977   7.384   9.229  0.1874  0.0265  0.1377
31363SOL    HW194667   6.969   7.478   9.245  1.8996  0.0924  0.8060
31363SOL    HW294668   7.003   7.377   9.137 -0.3051  0.1809 -0.0148
31364SOL     OW94669   3.124   5.992   9.064  0.7677  0.1369 -0.1744
31364SOL    HW194670   3.173   5.933   9.122 -0.5040 -1.1791 -0.3568
31364SOL    HW294671   3.044   5.943   9.043  0.0677  1.5908 -1.0711
31365SOL     OW94672   8.956   9.423   2.361  0.2228  0.1278  0.5765
31365SOL    HW194673   9.048   9.424   2.385  0.3719 -0.4751  0.0454
31365SOL    HW294674   8.911   9.464   2.435  1.0221  1.5330  0.3198
31366SOL     OW94675   9.882   7.675   8.337 -0.0578  0.1401  0.5465
31366SOL    HW194676   9.958   7.728   8.360  1.5609 -1.8893  0.1683
31366SOL    HW294677   9.822   7.685   8.411  1.0312  0.9446  1.3570
31367SOL     OW94678   8.589   8.711   6.627 -0.0744  0.3075 -0.0267
31367SOL    HW194679   8.565   8.639   6.570  0.6944 -0.4411  0.5728
31367SOL    HW294680   8.679   8.733   6.600  1.0646 -1.3540  2.1317
31368SOL     OW94681   3.087   6.505   7.168  0.5443 -0.2474 -0.4585
31368SOL    HW194682   3.029   6.563   7.119  1.7668  1.8474  0.4483
31368SOL    HW294683   3.090   6.425   7.115 -2.3507 -0.1089 -1.0170
31369SOL     OW94684   3.786   1.352   0.749  0.1847  0.1134 -0.2924
31369SOL    HW194685   3.726   1.293   0.794  1.3162 -0.8595 -0.0046
31369SOL    HW294686   3.757   1.351   0.658 -0.2891 -0.2851 -0.1409
31370SOL     OW94687   3.407   3.110   0.482 -0.4916 -0.1596  1.0784
31370SOL    HW194688   3.389   3.097   0.575  0.8175 -0.7918  1.2568
31370SOL    HW294689   3.462   3.188   0.478 -2.7430  1.5257  0.5620
31371SOL     OW94690   6.556   2.255   0.421  0.1549  0.1115 -0.6527
31371SOL    HW194691   6.504   2.295   0.490 -2.4401 -2.9385 -0.6360
31371SOL    HW294692   6.645   2.287   0.437 -0.5466  0.6213  3.2316
31372SOL     OW94693   3.096   4.751   6.295  0.4602 -0.4529  0.3299
31372SOL    HW194694   3.052   4.693   6.357 -1.0946 -0.3162 -0.5730
31372SOL    HW294695   3.052   4.734   6.212  0.7981  1.1147 -0.2091
31373SOL     OW94696   0.366   9.075   7.526  0.5724  0.4053  0.5164
31373SOL    HW194697   0.429   9.131   7.571  1.3098  1.5576 -1.7940
31373SOL    HW294698   0.417   8.999   7.498  0.7575  0.9207 -0.5869
31374SOL     OW94699   6.982   4.618   8.134 -0.1725 -0.1779 -0.4593
31374SOL    HW194700   6.914   4.660   8.186 -0.3096 -0.1176 -0.6872
31374SOL    HW294701   6.992   4.674   8.057  1.1805  0.6372  0.2727
31375SOL     OW94702   7.198   2.089   2.176  0.9375  0.5606 -0.2042
31375SOL    HW194703   7.215   2.166   2.121  1.5503  0.1581 -0.5851
31375SOL    HW294704   7.259   2.099   2.250  0.8428  0.5627 -0.1258
31376SOL     OW94705   6.718   6.412   3.321 -0.0356  0.2845 -0.5331
31376SOL    HW194706   6.772   6.446   3.250  1.2873  0.6690  0.6110
31376SOL    HW294707   6.770   6.342   3.360 -0.0034  1.1579  1.0630
31377SOL     OW94708   0.787   6.943   7.354 -0.5609 -0.3888  0.0679
31377SOL    HW194709   0.782   6.883   7.280  0.3486 -0.1362 -0.2176
31377SOL    HW294710   0.698   6.977   7.364 -0.5084  0.3361 -1.5523
31378SOL     OW94711   5.616   2.774   0.044  0.0197  0.1216  0.1610
31378SOL    HW194712   5.544   2.734   0.091 -0.9179  2.0725  0.4980
31378SOL    HW294713   5.575   2.824  -0.026  1.0198  1.2580  0.3413
31379SOL     OW94714   3.928   5.213   8.768  0.7081  0.7803 -0.0575
31379SOL    HW194715   3.900   5.288   8.820 -1.9786 -0.9070  1.1650
31379SOL    HW294716   3.882   5.223   8.685 -1.3498 -0.4746  0.8639
31380SOL     OW94717   7.112   3.352   6.802 -0.4011  0.6838  0.3820
31380SOL    HW194718   7.175   3.392   6.863 -0.3667  2.2137 -0.5934
31380SOL    HW294719   7.144   3.378   6.716 -1.3745 -0.0616 -0.2110
31381SOL     OW94720   8.656   0.424   5.988 -0.7684  0.1965  0.0393
31381SOL    HW194721   8.701   0.483   6.049 -0.2307  2.1475 -2.0992
31381SOL    HW294722   8.599   0.371   6.044  1.8428 -0.2442  2.5251
31382SOL     OW94723   2.345   9.931   4.825  0.1033  0.6244  0.0828
31382SOL    HW194724   2.368  10.006   4.881 -0.1952  0.4564  0.4330
31382SOL    HW294725   2.367   9.854   4.878 -0.9728  0.4567  0.3131
31383SOL     OW94726   5.444   4.205   0.328 -0.6138  0.1796  0.2411
31383SOL    HW194727   5.485   4.271   0.385 -0.9102  2.7118 -2.2463
31383SOL    HW294728   5.518   4.155   0.293  0.0568  1.8944 -0.9202
31384SOL     OW94729   4.416   3.635   8.243  0.7079 -0.2499 -0.2911
31384SOL    HW194730   4.330   3.593   8.248  0.0809  1.0651  0.2404
31384SOL    HW294731   4.432   3.646   8.149  0.2823 -0.4728 -0.3902
31385SOL     OW94732   3.505   7.594   1.475  0.3546  0.0603  0.2927
31385SOL    HW194733   3.555   7.673   1.494  1.2069 -0.6282  0.9941
31385SOL    HW294734   3.451   7.580   1.553  0.9933 -0.6301  0.6205
31386SOL     OW94735   4.083   6.052   9.524 -0.4495 -0.0546  0.3891
31386SOL    HW194736   4.030   6.097   9.590  1.6491  0.1104  2.0849
31386SOL    HW294737   4.120   5.976   9.571  1.5983  0.4011 -0.3713
31387SOL     OW94738   1.348   2.436   7.201  0.1251 -0.1044 -0.1823
31387SOL    HW194739   1.342   2.531   7.190  0.3013 -0.2508 -1.7953
31387SOL    HW294740   1.441   2.420   7.213  0.0833 -0.0749  0.2036
31388SOL     OW94741   9.352   4.407   5.661  0.0815 -0.5338  0.5070
31388SOL    HW194742   9.343   4.377   5.752 -0.1544  1.3478  1.1451
31388SOL    HW294743   9.367   4.327   5.611  1.4087 -1.5053  2.3548
31389SOL     OW94744   1.939   8.933   6.649  0.2291  0.4880 -0.0679
31389SOL    HW194745   1.952   9.027   6.653 -2.6048  1.0003 -0.6604
31389SOL    HW294746   1.903   8.910   6.735 -1.6135  0.4865 -0.7893
31390SOL     OW94747   1.624   4.915   8.586  0.6132 -0.0220  0.0732
31390SOL    HW194748   1.686   4.985   8.607  1.0552 -0.1368 -0.7880
31390SOL    HW294749   1.539   4.950   8.612  0.7395  1.1492 -1.0101
31391SOL     OW94750   8.782   1.059   3.748 -0.3152  0.6065 -0.1515
31391SOL    HW194751   8.756   1.140   3.792 -0.1662  0.6805 -0.2009
31391SOL    HW294752   8.824   1.007   3.817  0.0083  0.7642 -0.2331
31392SOL     OW94753   8.451   5.603   9.903 -0.5600 -0.5627  0.3390
31392SOL    HW194754   8.395   5.620   9.978 -1.1372  1.5379 -0.5145
31392SOL    HW294755   8.399   5.630   9.827  1.1084  0.2677 -0.5702
31393SOL     OW94756   9.119   8.181   9.784  0.5295 -0.6029  0.6252
31393SOL    HW194757   9.062   8.197   9.859  0.0983  1.4119 -0.0708
31393SOL    HW294758   9.207   8.198   9.817  0.8373 -3.5217  1.6467
31394SOL     OW94759   1.608   7.783   3.500  0.4712 -0.0790 -0.2800
31394SOL    HW194760   1.634   7.830   3.579  0.0738 -0.3812  0.0371
31394SOL    HW294761   1.551   7.845   3.453 -2.1656 -1.0677  1.3740
31395SOL     OW94762   9.732   2.668   3.034 -0.8552  0.0938  0.0968
31395SOL    HW194763   9.811   2.637   3.079 -0.8889  1.7191  1.3832
31395SOL    HW294764   9.755   2.665   2.941 -0.4805 -2.5796  0.2001
31396SOL     OW94765   4.976   6.442   3.243  0.5076 -0.0862 -0.3947
31396SOL    HW194766   4.925   6.370   3.207 -1.1157  0.7975  0.0472
31396SOL    HW294767   4.979   6.425   3.337 -0.2485  0.6414 -0.2355
31397SOL     OW94768   9.322   6.031   6.572 -0.5028 -0.0775  0.1014
31397SOL    HW194769   9.307   6.010   6.664  0.1989  1.4676  0.6056
31397SOL    HW294770   9.260   6.102   6.553 -0.1115  0.1426 -0.3810
31398SOL     OW94771   5.540   0.936   2.532 -0.3362  0.3702  0.1901
31398SOL    HW194772   5.597   0.998   2.487 -0.8261  0.5812 -0.1436
31398SOL    HW294773   5.544   0.963   2.624 -0.2682  0.6772  0.0991
31399SOL     OW94774   8.421   3.545   0.897 -0.0243  0.6869 -0.3359
31399SOL    HW194775   8.475   3.624   0.904  1.4521 -0.2938 -0.2281
31399SOL    HW294776   8.456   3.500   0.820 -1.6706  0.7096 -1.1417
31400SOL     OW94777   0.701   1.973   0.547  0.3814 -0.4237 -0.8321
31400SOL    HW194778   0.710   2.048   0.606 -3.1074 -1.1417  0.8885
31400SOL    HW294779   0.675   2.011   0.463 -0.6020  0.3928 -0.1858
31401SOL     OW94780   3.974   6.913   2.471 -0.1050 -0.5992 -0.5162
31401SOL    HW194781   3.944   6.917   2.380 -0.8408 -0.1203 -0.2657
31401SOL    HW294782   3.915   6.849   2.513 -0.1580 -0.3726 -0.2413
31402SOL     OW94783   2.960   7.832   6.292 -0.3489 -0.4541 -0.0109
31402SOL    HW194784   2.961   7.917   6.336  0.7353  0.2580 -1.3318
31402SOL    HW294785   2.883   7.836   6.235 -0.6997 -0.6504  0.4409
31403SOL     OW94786   3.035   0.032   2.102  0.4521  0.3012 -0.5575
31403SOL    HW194787   3.008   0.037   2.193 -2.0193 -0.3420 -1.1756
31403SOL    HW294788   2.955   0.009   2.054  1.6371  0.7160 -2.9061
31404SOL     OW94789   4.717   6.760   6.054 -0.1125 -0.7366 -0.2295
31404SOL    HW194790   4.787   6.800   6.002 -0.0838 -0.9576 -0.3627
31404SOL    HW294791   4.684   6.690   5.998 -0.3384 -0.7291 -0.1020
31405SOL     OW94792   1.500   9.948   3.442  0.1741 -0.2401  0.1898
31405SOL    HW194793   1.469  10.039   3.433  2.4350  0.4502 -1.2967
31405SOL    HW294794   1.445   9.898   3.381  0.3362  0.5211 -0.6045
31406SOL     OW94795   5.633   0.044   3.316 -0.5318  0.1857 -0.1606
31406SOL    HW194796   5.580   0.026   3.237 -1.0866  0.8006  0.0555
31406SOL    HW294797   5.691   0.115   3.289 -0.6044  0.2800 -0.0699
31407SOL     OW94798   8.150   2.996   8.143 -0.1099  0.3486 -0.4954
31407SOL    HW194799   8.062   2.970   8.168  0.1846 -0.0499  0.1614
31407SOL    HW294800   8.195   2.914   8.123 -0.5729  0.6818 -3.2906
31408SOL     OW94801   2.877   0.027   9.960 -0.1988 -0.3431 -0.5098
31408SOL    HW194802   2.816  -0.038   9.924 -1.0113  0.6464 -0.9412
31408SOL    HW294803   2.894   0.087   9.888 -1.1524  1.1526  0.4728
31409SOL     OW94804   0.391   5.075   7.544  0.5017 -0.5344 -0.0569
31409SOL    HW194805   0.474   5.042   7.578  0.2024 -0.3919  0.8237
31409SOL    HW294806   0.369   5.150   7.600 -0.4328 -0.8348  0.0052
31410SOL     OW94807   4.059   4.777   1.558 -0.2906 -0.5877  0.1676
31410SOL    HW194808   4.117   4.741   1.492 -1.4895 -0.2195 -1.1431
31410SOL    HW294809   4.020   4.701   1.601  0.5023 -0.8272  0.4705
31411SOL     OW94810   7.479   2.902   0.562  0.0800 -0.0463 -0.5128
31411SOL    HW194811   7.523   2.908   0.647 -0.2409 -1.9357 -0.1705
31411SOL    HW294812   7.513   2.977   0.513  1.6629  0.0559  0.6438
31412SOL     OW94813   8.116   9.243   6.764  0.1570 -0.2616 -0.1900
31412SOL    HW194814   8.151   9.321   6.721 -1.2929 -0.0603 -1.0844
31412SOL    HW294815   8.108   9.179   6.694 -0.5869 -0.5265  0.1292
31413SOL     OW94816   4.161   4.882   3.355  0.9004  0.2229  0.0981
31413SOL    HW194817   4.218   4.822   3.307 -0.5246 -0.6888 -0.5392
31413SOL    HW294818   4.164   4.851   3.446 -0.1388 -1.1274 -0.2944
31414SOL     OW94819   2.338   5.048   3.328 -0.5562  0.4106 -0.4594
31414SOL    HW194820   2.415   5.059   3.272 -1.1389 -1.0614 -1.5774
31414SOL    HW294821   2.370   4.996   3.402 -0.6605 -1.0428 -1.4023
31415SOL     OW94822   9.832   0.145   4.853 -0.2231 -0.8419  0.0097
31415SOL    HW194823   9.793   0.215   4.904  1.7104  0.0687  0.3193
31415SOL    HW294824   9.757   0.099   4.815 -1.5628  2.0919 -1.2193
31416SOL     OW94825   2.170   3.799   3.745  0.4405 -0.0841 -0.1672
31416SOL    HW194826   2.172   3.885   3.787  0.1777  0.8185 -1.9158
31416SOL    HW294827   2.261   3.769   3.749  0.8010  0.8873 -0.7169
31417SOL     OW94828   8.571   0.198   4.487 -0.1299 -0.1801  0.0055
31417SOL    HW194829   8.532   0.255   4.421  1.5840  1.5808  0.4112
31417SOL    HW294830   8.654   0.170   4.448 -0.0536 -0.8009  0.5976
31418SOL     OW94831   5.536   6.153   1.658 -0.7992  0.3079 -0.0946
31418SOL    HW194832   5.549   6.062   1.683 -0.0919 -0.2097 -2.1039
31418SOL    HW294833   5.452   6.154   1.612 -0.6607  0.5965 -0.3451
31419SOL     OW94834   9.811   8.890   1.644  0.2461  0.2081  0.0313
31419SOL    HW194835   9.769   8.808   1.669  0.4118  0.0728 -0.1282
31419SOL    HW294836   9.743   8.939   1.599 -1.4839  2.3283  4.3485
31420SOL     OW94837   6.543   8.931   8.737 -0.4902 -0.1727 -0.2299
31420SOL    HW194838   6.632   8.959   8.761 -0.2092 -0.0155 -1.4075
31420SOL    HW294839   6.529   8.851   8.788 -0.6035  1.0697  1.7646
31421SOL     OW94840   2.263   2.948   3.270  0.0503  0.1909 -0.0290
31421SOL    HW194841   2.265   2.929   3.364  1.4204  1.6777  0.2906
31421SOL    HW294842   2.244   3.041   3.265  0.3644  0.2095 -1.2146
31422SOL     OW94843   1.134   6.314   6.080  0.2873  0.3819  0.0455
31422SOL    HW194844   1.215   6.320   6.131  0.5309  0.0714 -0.2894
31422SOL    HW294845   1.140   6.229   6.036  0.4056  0.9123 -1.0120
31423SOL     OW94846   3.934   5.114   0.168  0.1430 -0.2778  0.0072
31423SOL    HW194847   3.994   5.123   0.094 -0.3500 -0.5563 -0.4278
31423SOL    HW294848   3.901   5.203   0.182  0.3700 -0.1920  0.0098
31424SOL     OW94849   2.757   0.652   6.903 -0.2622 -0.1988 -0.0851
31424SOL    HW194850   2.834   0.595   6.900  0.5960  0.9287  0.0066
31424SOL    HW294851   2.714   0.639   6.818  0.2762 -0.4969 -0.3168
31425SOL     OW94852   0.384   0.150   5.869  0.0124  0.2281  0.0546
31425SOL    HW194853   0.376   0.078   5.933 -2.5199 -0.5673 -1.0489
31425SOL    HW294854   0.328   0.219   5.903 -1.0044 -0.0286 -1.0516
31426SOL     OW94855   6.908   5.998   9.060 -0.1725  0.4202 -0.0561
31426SOL    HW194856   6.838   5.949   9.018 -1.3572 -0.4456  2.6616
31426SOL    HW294857   6.868   6.082   9.082  0.5338  0.9950 -0.9037
31427SOL     OW94858   1.424   8.879   8.337 -0.2372  0.0247 -1.0236
31427SOL    HW194859   1.454   8.950   8.394  0.0318 -0.7577 -0.1615
31427SOL    HW294860   1.383   8.816   8.397  1.4419 -1.5597 -1.4751
31428SOL     OW94861   1.768   1.586   7.595 -0.3607 -0.1972 -0.0290
31428SOL    HW194862   1.783   1.609   7.686 -1.2751 -0.8150  0.2979
31428SOL    HW294863   1.827   1.512   7.579 -0.6926 -0.5396  0.2850
31429SOL     OW94864   4.183   7.810   5.904  0.4725 -0.3531 -0.3449
31429SOL    HW194865   4.271   7.773   5.898  0.4487 -0.6410  0.7630
31429SOL    HW294866   4.196   7.904   5.890  0.9468 -0.4048 -0.2836
31430SOL     OW94867   7.544   4.634   7.137 -0.2239 -0.1311 -0.2366
31430SOL    HW194868   7.591   4.560   7.098 -1.5486 -0.6373 -0.9427
31430SOL    HW294869   7.478   4.593   7.192 -0.2518  0.5598  0.2562
31431SOL     OW94870   3.933   2.350   8.615  0.7311  0.8777  0.6575
31431SOL    HW194871   3.841   2.375   8.624 -0.0976 -1.6527 -0.0412
31431SOL    HW294872   3.972   2.422   8.565 -1.1542  1.4348 -0.1069
31432SOL     OW94873   6.950   3.830   8.564  0.2677 -0.1941  0.3408
31432SOL    HW194874   6.919   3.739   8.559  0.6290 -0.2805 -0.3545
31432SOL    HW294875   6.909   3.874   8.491  2.5628 -0.5656 -1.2838
31433SOL     OW94876   4.497   5.978   4.023 -0.6708  0.1622  0.5036
31433SOL    HW194877   4.505   5.897   3.972  0.6318  1.4384 -1.4454
31433SOL    HW294878   4.563   5.969   4.093 -0.5344 -0.4462  0.3036
31434SOL     OW94879   7.232   4.449   8.062 -0.7468  0.5529 -0.1189
31434SOL    HW194880   7.139   4.469   8.069 -0.1778  2.8910  4.4654
31434SOL    HW294881   7.275   4.534   8.065  1.5680 -0.5787  0.9685
31435SOL     OW94882   7.445   1.335   6.035 -0.5560 -0.3706  0.2182
31435SOL    HW194883   7.366   1.388   6.038 -0.0475  0.4042  0.5286
31435SOL    HW294884   7.504   1.382   5.976 -0.2485 -0.8147  0.1622
31436SOL     OW94885   1.274   1.829   2.253 -0.0887  0.5291 -0.5049
31436SOL    HW194886   1.317   1.834   2.168 -0.9618 -1.6579 -1.1384
31436SOL    HW294887   1.339   1.786   2.309 -1.6755 -4.2503 -1.8505
31437SOL     OW94888   9.047   7.650   2.494 -0.3489  0.2549 -0.5200
31437SOL    HW194889   9.049   7.567   2.540  0.0738  0.3295 -0.3978
31437SOL    HW294890   9.012   7.712   2.557  1.4268  0.6218  0.1636
31438SOL     OW94891   9.384   7.286   7.118  0.2523 -0.6746 -0.1190
31438SOL    HW194892   9.403   7.265   7.026 -0.2505  0.4651 -0.4973
31438SOL    HW294893   9.412   7.208   7.166  0.4035 -1.3452 -1.2495
31439SOL     OW94894   8.299   4.347   2.621  0.0044  0.4229 -0.2373
31439SOL    HW194895   8.306   4.408   2.547  1.1033  0.2604 -0.2840
31439SOL    HW294896   8.346   4.269   2.593  0.1414  0.2272  0.5107
31440SOL     OW94897   9.514   0.510   4.964  0.0568  0.2785  0.7444
31440SOL    HW194898   9.529   0.589   4.912  0.9659 -0.2579  0.1802
31440SOL    HW294899   9.464   0.541   5.040  1.1751  1.5573  0.9968
31441SOL     OW94900   6.035   8.776   4.658  0.2823 -0.3179  0.4552
31441SOL    HW194901   6.033   8.681   4.646  0.0459 -0.2458 -0.1090
31441SOL    HW294902   5.980   8.791   4.736 -0.4043 -0.5742  0.0340
31442SOL     OW94903   6.394   0.595   8.859  0.1700 -0.0226  0.2594
31442SOL    HW194904   6.336   0.669   8.878  2.6168  1.5454  2.3554
31442SOL    HW294905   6.396   0.590   8.763 -2.4782  0.5376  0.1049
31443SOL     OW94906   4.070   8.301   2.552 -0.5665 -0.1931 -0.1499
31443SOL    HW194907   4.113   8.227   2.510 -0.0741 -0.1675  0.3039
31443SOL    HW294908   4.071   8.370   2.486 -2.8424 -1.1919 -1.3243
31444SOL     OW94909   3.180   5.826   7.595 -0.0080  0.2769  0.0626
31444SOL    HW194910   3.229   5.801   7.517 -0.0340  2.1635 -0.6107
31444SOL    HW294911   3.243   5.875   7.648 -0.4912  0.5676  0.3745
31445SOL     OW94912   0.925   3.541   1.734  0.0073 -0.2630 -0.0849
31445SOL    HW194913   0.856   3.478   1.754  0.6273 -0.8355  0.3398
31445SOL    HW294914   0.969   3.556   1.818  0.2072  0.3286 -0.2858
31446SOL     OW94915   3.589   9.890   7.213 -0.4513  0.0227 -0.1053
31446SOL    HW194916   3.608   9.966   7.269 -2.2581  1.1406 -0.9203
31446SOL    HW294917   3.563   9.822   7.275  0.1066  0.4043  0.5752
31447SOL     OW94918   6.355   8.599   7.943 -0.2602 -0.2393  0.3308
31447SOL    HW194919   6.399   8.517   7.964 -1.0822 -0.3654  1.6130
31447SOL    HW294920   6.359   8.650   8.023 -0.7331  0.5313 -0.1233
31448SOL     OW94921   5.886   5.680   2.564 -0.2015  0.0547  0.5221
31448SOL    HW194922   5.808   5.728   2.593  0.1525  0.9128  0.1103
31448SOL    HW294923   5.913   5.726   2.484  1.0521  0.1157  0.9637
31449SOL     OW94924   2.090   8.752   7.972 -0.0796  0.0717 -0.4047
31449SOL    HW194925   2.072   8.680   8.033 -1.4437 -0.3400 -1.2419
31449SOL    HW294926   2.045   8.726   7.891  0.2973  1.3735 -1.0544
31450SOL     OW94927   6.878   2.107   3.348 -0.2176  0.5326  0.2820
31450SOL    HW194928   6.812   2.054   3.392 -0.3006 -0.3351 -0.8715
31450SOL    HW294929   6.899   2.175   3.412 -2.1282  0.7677  0.7387
31451SOL     OW94930   2.666   1.053   4.216  0.1487  0.5225 -0.0613
31451SOL    HW194931   2.668   1.149   4.221  1.1204  0.7021 -2.4657
31451SOL    HW294932   2.575   1.033   4.193 -0.6832  0.6167  2.8007
31452SOL     OW94933   3.546   6.545   1.476  0.1870 -0.2729  0.0991
31452SOL    HW194934   3.474   6.576   1.532 -0.9444  0.9423 -1.9126
31452SOL    HW294935   3.531   6.451   1.469 -1.9637  0.0970 -1.1884
31453SOL     OW94936   5.508   5.622   3.624 -0.3153 -0.7006  0.4619
31453SOL    HW194937   5.427   5.578   3.599 -0.2218  0.1194 -1.5047
31453SOL    HW294938   5.522   5.687   3.555  1.9040 -0.6685  0.8667
31454SOL     OW94939   8.675   1.473   4.429  0.1965  0.2216 -0.4109
31454SOL    HW194940   8.718   1.556   4.447  2.4251 -0.5555 -1.6965
31454SOL    HW294941   8.626   1.487   4.348 -0.1795  0.5102 -0.1361
31455SOL     OW94942   9.641   8.097   0.830  0.2216 -0.4146 -0.4468
31455SOL    HW194943   9.589   8.030   0.875 -0.6429 -0.2778 -1.2063
31455SOL    HW294944   9.612   8.179   0.869 -1.5440 -0.1681 -2.1331
31456SOL     OW94945   7.199   7.480   6.228 -0.0537 -0.0115 -0.4477
31456SOL    HW194946   7.210   7.555   6.287  0.2806 -0.0716 -0.4330
31456SOL    HW294947   7.223   7.514   6.142  0.8093 -0.2901 -0.3274
31457SOL     OW94948   5.651   5.177   7.000  0.3110 -0.7357  0.0030
31457SOL    HW194949   5.669   5.086   7.022  1.0926 -1.1498 -2.0659
31457SOL    HW294950   5.713   5.228   7.052 -0.1013 -1.3515  1.1341
31458SOL     OW94951   3.293   1.677   3.182 -0.3717  0.3064  0.0925
31458SOL    HW194952   3.245   1.693   3.263  0.8392  1.8793  0.5488
31458SOL    HW294953   3.380   1.713   3.198  0.4175 -0.8560 -1.3336
31459SOL     OW94954   4.979   3.192   8.635  0.0283  0.1573  0.2736
31459SOL    HW194955   4.968   3.213   8.727  0.2810  1.5091  0.0144
31459SOL    HW294956   4.899   3.143   8.612 -0.5159  0.7059  0.9597
31460SOL     OW94957   7.647   6.318   5.660  0.5189  0.6407  0.0643
31460SOL    HW194958   7.609   6.231   5.674  0.5896  0.7055  0.6923
31460SOL    HW294959   7.740   6.301   5.643  0.1274  0.4341 -2.1171
31461SOL     OW94960   2.142   5.994   4.952  0.1160 -0.8207 -0.1372
31461SOL    HW194961   2.094   6.062   4.906 -0.3188 -0.1404  1.2552
31461SOL    HW294962   2.217   5.975   4.896 -0.4934 -0.1717 -1.1920
31462SOL     OW94963   3.391   6.976   5.114 -0.0321 -0.7087 -0.2928
31462SOL    HW194964   3.456   6.948   5.051  0.3892  0.6157 -0.4873
31462SOL    HW294965   3.423   6.943   5.198  0.6348 -0.5167 -0.4621
31463SOL     OW94966   3.049   2.078   2.890  0.3744  0.9975 -0.2375
31463SOL    HW194967   2.956   2.078   2.870  0.3926 -0.5558 -0.4699
31463SOL    HW294968   3.059   2.013   2.960  1.3641  0.5972 -0.7230
31464SOL     OW94969   5.408   2.159   7.956  0.1368 -0.3365  0.0974
31464SOL    HW194970   5.378   2.078   7.997  0.0063 -0.3242  0.0266
31464SOL    HW294971   5.432   2.134   7.867  0.1581 -0.3114  0.0965
31465SOL     OW94972   1.483   9.657   9.555  0.1507  0.2952 -1.1596
31465SOL    HW194973   1.411   9.644   9.494 -0.9457 -0.1632  0.1616
31465SOL    HW294974   1.476   9.583   9.616 -0.4196  2.0645  1.0469
31466SOL     OW94975   6.522   9.547   0.061 -0.2939  0.0085 -0.1691
31466SOL    HW194976   6.573   9.498   0.125 -0.3981  0.0064 -0.0866
31466SOL    HW294977   6.478   9.615   0.112  0.6544  0.8474 -0.4299
31467SOL     OW94978   7.047   0.612   8.946  0.1027 -0.6646 -0.1482
31467SOL    HW194979   7.008   0.554   9.010 -0.7649 -1.3708 -1.2635
31467SOL    HW294980   7.070   0.555   8.872  0.4775  0.1961 -0.7168
31468SOL     OW94981   3.478   9.216   7.608  0.1954  0.5622 -0.2435
31468SOL    HW194982   3.538   9.291   7.607  0.2365  0.5458  0.4206
31468SOL    HW294983   3.535   9.140   7.597  0.1200  0.6408 -1.2489
31469SOL     OW94984   4.384   5.943   4.806  0.8567  0.5060  0.0446
31469SOL    HW194985   4.467   5.990   4.816  1.3812 -0.8081  3.2083
31469SOL    HW294986   4.323   5.989   4.864  0.7382 -1.2013  1.3722
31470SOL     OW94987   8.522   7.166   5.152  0.4115  0.1412 -0.2133
31470SOL    HW194988   8.597   7.109   5.139  1.3615  1.6332 -1.7413
31470SOL    HW294989   8.559   7.254   5.157 -1.0627  0.7540  1.3131
31471SOL     OW94990   1.030   9.029   2.353 -0.0092 -0.6398 -0.0525
31471SOL    HW194991   1.106   9.004   2.301  0.1867  1.4920 -0.8869
31471SOL    HW294992   1.058   9.014   2.444  1.3501 -0.0731 -0.3500
31472SOL     OW94993   4.057   8.897   1.401  0.2973 -0.5758  0.2250
31472SOL    HW194994   4.048   8.988   1.431  0.0373 -0.3738 -0.4370
31472SOL    HW294995   4.112   8.903   1.324  1.3973 -1.1519  0.9441
31473SOL     OW94996   5.764   9.629   4.559 -0.7937 -0.1658 -0.6121
31473SOL    HW194997   5.829   9.615   4.490  0.5937  0.8091  0.4256
31473SOL    HW294998   5.710   9.701   4.527 -0.7971 -0.3802 -1.0984
31474SOL     OW94999   9.798   0.968   5.302 -0.0862 -0.6572  0.2038
31474SOL    HW195000   9.745   0.991   5.378  0.9339 -1.2759  1.1335
31474SOL    HW295001   9.738   0.921   5.244 -0.3530 -2.2568  1.6925
31475SOL     OW95002   8.496   1.638   7.167  1.2227  0.2730 -0.0857
31475SOL    HW195003   8.485   1.675   7.255  0.6217  1.2448 -0.5587
31475SOL    HW295004   8.591   1.640   7.152  1.5792 -1.9593  1.3870
31476SOL     OW95005   1.500   2.819   2.689  0.3931  0.2707 -0.3676
31476SOL    HW195006   1.510   2.909   2.658  3.6133  0.8051  1.7154
31476SOL    HW295007   1.406   2.810   2.707 -0.4198  2.2633 -3.0572
31477SOL     OW95008   1.856   3.666   9.386 -0.5019  0.2242  0.0981
31477SOL    HW195009   1.850   3.757   9.414  1.3366  0.7815 -1.1083
31477SOL    HW295010   1.767   3.642   9.362 -1.4874  0.8540  2.8138
31478SOL     OW95011   2.562   6.926   2.296  0.1859 -0.2956 -0.1216
31478SOL    HW195012   2.622   6.855   2.319  0.5174  0.4614  1.4980
31478SOL    HW295013   2.485   6.882   2.260  1.0336 -1.3766 -0.6509
31479SOL     OW95014   7.311   0.891   5.244 -0.1522 -0.1505  0.8329
31479SOL    HW195015   7.222   0.924   5.232  0.1626  0.1530 -0.9402
31479SOL    HW295016   7.303   0.796   5.235 -0.2735 -0.1036  0.4212
31480SOL     OW95017   3.846   1.055   9.672 -0.1928 -0.7709 -0.1311
31480SOL    HW195018   3.882   1.122   9.614 -0.3507 -1.0923 -0.5964
31480SOL    HW295019   3.821   0.983   9.615  0.3356 -1.3924  0.4087
31481SOL     OW95020   5.902   4.611   0.076 -0.3343 -0.1342  0.3170
31481SOL    HW195021   5.845   4.565   0.137 -3.5219  2.5665 -0.3839
31481SOL    HW295022   5.909   4.552   0.001 -2.3359 -0.5445  0.3945
31482SOL     OW95023   6.779   0.050   8.127 -0.0214  0.0554 -0.2697
31482SOL    HW195024   6.817   0.113   8.188  2.2289 -0.5361 -0.9748
31482SOL    HW295025   6.686   0.071   8.127  0.2483  1.5762  1.5850
31483SOL     OW95026   8.005   1.911   5.877 -0.3456 -0.3660  0.0575
31483SOL    HW195027   7.983   2.004   5.873  0.6766 -0.1013  0.3216
31483SOL    HW295028   8.077   1.901   5.814 -1.4999 -1.3085 -1.1689
31484SOL     OW95029   5.166   2.578   1.828  0.3735  0.1294 -0.1177
31484SOL    HW195030   5.222   2.545   1.757  1.8244 -0.6333  1.2955
31484SOL    HW295031   5.103   2.508   1.843  1.1899 -0.5065  0.4831
31485SOL     OW95032   3.706   0.476   5.857  0.2803  0.2307 -0.1024
31485SOL    HW195033   3.685   0.554   5.907 -0.0145 -0.3941  0.7827
31485SOL    HW295034   3.640   0.474   5.788  1.6895  1.9884 -1.5746
31486SOL     OW95035   9.085   9.362   7.028  0.0298  0.4665  0.5912
31486SOL    HW195036   9.007   9.417   7.025 -2.8982 -3.3012  0.0843
31486SOL    HW295037   9.103   9.341   6.936  2.0677  1.5955  0.6534
31487SOL     OW95038   8.224   5.539   1.789 -0.3239  1.0956  0.0181
31487SOL    HW195039   8.173   5.459   1.782  0.5231  0.3799  1.5158
31487SOL    HW295040   8.211   5.584   1.705 -0.6379 -0.7034 -0.9387
31488SOL     OW95041   8.216   7.897   0.054  0.4038 -0.2887 -0.1457
31488SOL    HW195042   8.280   7.828   0.071 -0.5792 -0.7886  1.9286
31488SOL    HW295043   8.142   7.851   0.013 -1.0088 -0.9793  2.8566
31489SOL     OW95044   3.674   5.851   1.178  0.0558  0.3714  0.1979
31489SOL    HW195045   3.746   5.816   1.230  0.1983  0.9480  0.4007
31489SOL    HW295046   3.655   5.936   1.218  2.3363  2.4183 -2.6301
31490SOL     OW95047   5.140   1.732   4.645  0.4439 -0.1681  0.2029
31490SOL    HW195048   5.109   1.718   4.734 -0.4142 -0.0217 -0.0582
31490SOL    HW295049   5.202   1.805   4.652 -0.1333  0.3007  0.5896
31491SOL     OW95050   9.876   2.920   0.807 -0.1946  0.1296  0.3024
31491SOL    HW195051   9.867   3.007   0.769 -2.4740 -0.3095 -0.3081
31491SOL    HW295052   9.841   2.929   0.896 -0.0957 -0.0775  0.3628
31492SOL     OW95053   7.585   8.549   1.648  0.1700 -0.5395  0.1184
31492SOL    HW195054   7.666   8.528   1.601  0.0554 -0.0156 -0.3201
31492SOL    HW295055   7.579   8.644   1.643 -0.8990 -0.6300 -0.5720
31493SOL     OW95056   9.375   3.150   4.987 -0.6999  0.0817 -0.1931
31493SOL    HW195057   9.354   3.057   4.994  1.1471 -0.3041  1.0727
31493SOL    HW295058   9.316   3.192   5.050 -0.4055 -0.4628  0.4657
31494SOL     OW95059   6.103   4.470   5.946  0.0158  0.5557  0.2109
31494SOL    HW195060   6.144   4.447   5.863 -0.5260  0.3669 -0.0094
31494SOL    HW295061   6.141   4.555   5.970  0.6282  0.3238  0.0819
31495SOL     OW95062   0.580   0.011   9.132  0.1033  0.0649  0.8394
31495SOL    HW195063   0.594   0.105   9.126 -1.3590  0.2565  0.0718
31495SOL    HW295064   0.624  -0.025   9.055 -0.5671  0.2837  0.3465
31496SOL     OW95065   0.812   4.506   5.142  0.1809  0.6491 -0.3656
31496SOL    HW195066   0.799   4.523   5.048 -0.9619  1.4722 -0.0829
31496SOL    HW295067   0.867   4.578   5.172 -0.5124  1.1045 -0.1626
31497SOL     OW95068   8.948   7.190   6.066 -0.1149 -0.3199 -0.2380
31497SOL    HW195069   9.005   7.250   6.115 -0.7077 -2.0437  2.8477
31497SOL    HW295070   8.863   7.234   6.064  0.2001  0.2891 -0.8672
31498SOL     OW95071   0.973   8.821   0.935 -0.0252  0.4480  0.2771
31498SOL    HW195072   0.991   8.913   0.919 -0.2449  0.7674  1.6897
31498SOL    HW295073   0.883   8.819   0.969  0.1584 -0.2054  0.7699
31499SOL     OW95074   4.813   0.963   6.350 -0.3102  0.1958  0.1948
31499SOL    HW195075   4.778   1.052   6.360  0.5753  0.5040  0.6764
31499SOL    HW295076   4.859   0.946   6.433 -0.8784 -0.8998  0.3005
31500SOL     OW95077   3.382   1.190   9.683  0.2666 -0.3772  0.1252
31500SOL    HW195078   3.409   1.102   9.708  0.0418 -0.4348  0.1578
31500SOL    HW295079   3.289   1.195   9.705 -0.1037 -0.6516 -1.3160
31501SOL     OW95080   6.891   7.800   1.399 -0.4339  0.0779 -0.7061
31501SOL    HW195081   6.871   7.893   1.398 -2.1042 -0.2300 -2.5962
31501SOL    HW295082   6.806   7.757   1.396  0.3228 -1.5046 -0.7252
31502SOL     OW95083   2.303   1.163   7.803  0.1588  0.2472 -0.2027
31502SOL    HW195084   2.341   1.218   7.871 -0.6066  2.1980 -1.2718
31502SOL    HW295085   2.234   1.114   7.847 -1.4192  2.6882  0.1684
31503SOL     OW95086   7.292   5.615   5.791  0.4787 -0.1810 -0.5954
31503SOL    HW195087   7.293   5.618   5.695  0.4754  0.3599 -0.5804
31503SOL    HW295088   7.364   5.672   5.817 -1.3704  2.1648 -0.2342
31504SOL     OW95089   2.916   3.194   0.704 -0.3618  0.0656  0.1003
31504SOL    HW195090   2.949   3.114   0.745 -0.7049 -1.2862 -2.1239
31504SOL    HW295091   2.881   3.246   0.777  0.8854 -1.2915  1.7218
31505SOL     OW95092   3.369   9.898   6.715 -0.2163 -0.4547  0.6288
31505SOL    HW195093   3.322   9.953   6.777 -0.5328 -0.8523  0.7390
31505SOL    HW295094   3.426   9.843   6.769  2.1661  1.6156  0.4264
31506SOL     OW95095   1.089   0.557   2.925  0.1700 -0.0879 -0.5778
31506SOL    HW195096   1.107   0.510   2.843  0.0234 -0.6528 -0.2916
31506SOL    HW295097   1.017   0.616   2.903 -0.3285 -0.7308 -0.6861
31507SOL     OW95098   0.384   8.034   5.828 -0.0024  0.9367  0.4512
31507SOL    HW195099   0.478   8.031   5.848 -0.0156  1.4274  0.6000
31507SOL    HW295100   0.368   8.123   5.799 -0.5953  1.1212  1.2979
31508SOL     OW95101   3.677   5.859   3.043  0.3330 -0.5213  0.3092
31508SOL    HW195102   3.623   5.914   3.099  0.8040  0.4448 -0.1563
31508SOL    HW295103   3.746   5.827   3.100  1.9623  2.0403 -0.0492
31509SOL     OW95104   5.655   6.942   4.684  0.1925 -0.1592 -0.1466
31509SOL    HW195105   5.589   6.876   4.703  0.5875 -1.1467 -1.9247
31509SOL    HW295106   5.682   6.975   4.770  0.4332 -2.7744  0.8669
31510SOL     OW95107   4.293   4.115   4.413  0.6779  0.2511 -0.4531
31510SOL    HW195108   4.296   4.058   4.491 -2.1555  0.3915 -0.1499
31510SOL    HW295109   4.315   4.202   4.446  0.7575  0.0861 -0.0635
31511SOL     OW95110   0.171   0.626   9.078  0.0207 -0.6207  0.3737
31511SOL    HW195111   0.111   0.700   9.079 -0.8770 -1.0789 -3.3085
31511SOL    HW295112   0.216   0.633   8.993  3.2821 -1.8110  1.8283
31512SOL     OW95113   0.796   1.911   6.341 -0.0425  0.0223 -0.1962
31512SOL    HW195114   0.708   1.943   6.323  0.1067  0.5263 -0.0631
31512SOL    HW295115   0.842   1.988   6.376  0.6051 -0.0953 -0.7757
31513SOL     OW95116   1.748   0.808   9.199 -0.8878 -0.3763  0.0911
31513SOL    HW195117   1.762   0.896   9.233 -2.7777 -0.4369  1.1700
31513SOL    HW295118   1.833   0.781   9.166 -0.7845  2.9394 -2.9950
31514SOL     OW95119   3.542   3.338   6.305  0.3714  0.2185 -0.1350
31514SOL    HW195120   3.544   3.429   6.334  2.2942 -0.2052  1.2845
31514SOL    HW295121   3.552   3.287   6.386 -1.4638 -1.3042 -0.8052
31515SOL     OW95122   1.355   0.310   0.352  0.0355 -0.1731  0.3919
31515SOL    HW195123   1.364   0.385   0.293 -1.1741  0.0204  0.4297
31515SOL    HW295124   1.268   0.321   0.391  0.6922 -0.4452  1.9968
31516SOL     OW95125   1.737   1.968   2.316 -0.4817 -0.0847 -0.3734
31516SOL    HW195126   1.773   2.054   2.334  0.2524 -0.9569  2.9776
31516SOL    HW295127   1.804   1.924   2.264 -0.8751  1.2779 -2.1405
31517SOL     OW95128   9.408   3.658   3.140  0.0520  0.4210  0.1356
31517SOL    HW195129   9.488   3.620   3.103  1.0168  1.5754  0.9576
31517SOL    HW295130   9.427   3.751   3.148 -0.9825  0.5646  1.3184
31518SOL     OW95131   6.672   8.851   3.124 -0.0414 -0.1537 -0.4395
31518SOL    HW195132   6.765   8.836   3.108  0.0421  0.0920 -0.1966
31518SOL    HW295133   6.650   8.792   3.196 -0.6414 -1.9561 -2.0280
31519SOL     OW95134   2.374   7.784   1.717 -0.1143  0.3379 -0.2119
31519SOL    HW195135   2.465   7.807   1.734 -0.2987  0.2994  0.8984
31519SOL    HW295136   2.356   7.820   1.630  1.2414 -0.5208 -0.8794
31520SOL     OW95137   7.745   0.688   9.738  0.0546 -0.0548  0.5485
31520SOL    HW195138   7.685   0.735   9.681 -0.4980 -1.1455  0.1951
31520SOL    HW295139   7.704   0.693   9.825 -0.7320 -1.0304  0.2598
31521SOL     OW95140   1.164   4.584   9.861 -0.0464 -0.3324  0.6501
31521SOL    HW195141   1.223   4.536   9.919  1.5410  1.0524  0.2496
31521SOL    HW295142   1.170   4.675   9.891  0.1569  0.2801 -1.1346
31522SOL     OW95143   9.396   2.613   4.338  0.2282  0.7057  0.3516
31522SOL    HW195144   9.333   2.605   4.409 -0.2578 -0.4009 -0.1767
31522SOL    HW295145   9.377   2.698   4.298 -1.1985  0.2521 -0.0214
31523SOL     OW95146   4.406   5.272   6.141 -0.1918  0.0351  1.1219
31523SOL    HW195147   4.312   5.255   6.129  0.1444 -0.7162 -0.9019
31523SOL    HW295148   4.445   5.251   6.056  1.3964  3.5795  0.8046
31524SOL     OW95149   8.603   3.010   9.692  0.3968 -0.6430 -0.5914
31524SOL    HW195150   8.597   2.944   9.623 -2.0177 -0.3476 -0.7473
31524SOL    HW295151   8.519   3.005   9.738  0.0773  2.3485 -0.6300
31525SOL     OW95152   7.348   1.794   8.999 -0.6348 -0.0861  0.1894
31525SOL    HW195153   7.284   1.732   9.034 -0.3000 -0.0766  0.8155
31525SOL    HW295154   7.426   1.781   9.052 -0.1137 -0.0914 -0.5680
31526SOL     OW95155   9.442   8.303   2.635 -0.1268 -0.3254 -0.1004
31526SOL    HW195156   9.509   8.343   2.580  1.5294 -2.3852  0.3140
31526SOL    HW295157   9.400   8.238   2.580 -0.0629 -0.7815  0.3842
31527SOL     OW95158   8.897   4.041   3.661 -0.3002 -0.0049 -0.1982
31527SOL    HW195159   8.905   4.078   3.749 -0.2398 -2.0598  0.7244
31527SOL    HW295160   8.987   4.038   3.628 -0.1188 -0.7401  0.3468
31528SOL     OW95161   8.108   4.377   8.516 -0.1415  0.1572  0.0058
31528SOL    HW195162   8.151   4.368   8.601  0.7657 -0.7847 -0.5310
31528SOL    HW295163   8.051   4.300   8.510  0.8608 -0.5576 -0.8098
31529SOL     OW95164   6.112   6.168   2.067  0.0427 -0.7227 -0.7828
31529SOL    HW195165   6.205   6.190   2.072  0.0298 -0.6815 -0.7234
31529SOL    HW295166   6.083   6.167   2.158 -0.7388  2.3467 -0.8716
31530SOL     OW95167   9.782   0.466   5.268  0.2180  0.4104 -0.1565
31530SOL    HW195168   9.700   0.505   5.298  0.5749  0.8083  0.3156
31530SOL    HW295169   9.851   0.514   5.314  0.7498  0.5077 -1.0187
31531SOL     OW95170   7.879   3.260   9.586  0.0010 -0.1040 -0.0094
31531SOL    HW195171   7.868   3.166   9.602 -0.0014  0.0141  0.7480
31531SOL    HW295172   7.798   3.299   9.618 -0.5024  0.0543 -1.4173
31532SOL     OW95173   8.502   7.678   9.303 -0.4536  0.2573  0.1028
31532SOL    HW195174   8.444   7.729   9.247  0.4217  0.8884 -0.2561
31532SOL    HW295175   8.552   7.743   9.352 -0.7479 -0.2808  1.1705
31533SOL     OW95176   1.453   1.411   6.692 -0.5537 -0.0168  0.4711
31533SOL    HW195177   1.429   1.461   6.770 -1.0341 -0.2753  0.4952
31533SOL    HW295178   1.438   1.320   6.717 -0.7808 -0.0969  0.0551
31534SOL     OW95179   1.224   0.483   8.025  0.1344  0.1024 -0.0401
31534SOL    HW195180   1.272   0.546   7.971  0.3016 -0.3440 -0.4155
31534SOL    HW295181   1.149   0.532   8.058  1.3330  1.1014  1.3337
31535SOL     OW95182   1.357   7.680   9.432  0.2465  0.2085 -0.3465
31535SOL    HW195183   1.448   7.657   9.452 -0.3724 -1.4326  0.7673
31535SOL    HW295184   1.328   7.731   9.507  0.1960  0.6613 -0.6654
31536SOL     OW95185   1.930   7.238   0.095  0.1421  0.1601 -0.2850
31536SOL    HW195186   1.944   7.194   0.011 -0.2177 -1.0299  0.2636
31536SOL    HW295187   2.013   7.282   0.112  0.4761 -0.2022 -0.9110
31537SOL     OW95188   3.445   8.160   6.171 -0.1246  0.2594  0.0236
31537SOL    HW195189   3.420   8.236   6.222 -0.7064  0.6540 -0.8231
31537SOL    HW295190   3.382   8.157   6.099  0.2111 -0.7114 -0.2537
31538SOL     OW95191   5.026   7.718   8.975 -0.2118  0.1163 -0.2112
31538SOL    HW195192   4.975   7.785   9.019 -0.2725 -0.9901  1.4888
31538SOL    HW295193   5.002   7.726   8.883 -1.4463  1.3421  0.1874
31539SOL     OW95194   5.469   9.312   3.940  0.5083 -0.2864  0.7666
31539SOL    HW195195   5.526   9.321   4.017  0.5105 -1.3863  0.9111
31539SOL    HW295196   5.380   9.317   3.976  0.5104 -0.6521  0.8316
31540SOL     OW95197   5.044   9.719   3.511 -0.2722  0.1257 -0.2919
31540SOL    HW195198   5.128   9.706   3.467  0.1263 -1.1023  0.7421
31540SOL    HW295199   5.010   9.630   3.523  0.3440  0.2110  3.0910
31541SOL     OW95200   4.707   5.180   5.167  0.0873  0.0140 -0.1749
31541SOL    HW195201   4.774   5.148   5.106  1.5278  0.2024  1.2510
31541SOL    HW295202   4.735   5.269   5.188  0.4658 -0.5617  1.8969
31542SOL     OW95203   7.356   0.389   6.789  0.2335  0.2618 -0.6036
31542SOL    HW195204   7.401   0.394   6.704  1.2273  1.6627 -0.0312
31542SOL    HW295205   7.425   0.401   6.854 -0.6988  0.5315  0.3614
31543SOL     OW95206   3.418   6.431   3.168 -0.1002 -0.4205  0.5314
31543SOL    HW195207   3.510   6.432   3.197 -0.1081  0.2676  0.5564
31543SOL    HW295208   3.368   6.453   3.246 -0.1430  1.1066  0.1129
31544SOL     OW95209   7.825   8.126   5.364  0.2942  0.3132 -0.2551
31544SOL    HW195210   7.918   8.116   5.344  0.8394  0.6149  1.8629
31544SOL    HW295211   7.810   8.221   5.360  0.4879  0.4132  0.8380
31545SOL     OW95212   2.861   2.485   7.929  0.2158 -0.1844 -0.0214
31545SOL    HW195213   2.868   2.571   7.970 -0.9925 -0.9258  1.8859
31545SOL    HW295214   2.924   2.487   7.857 -0.7637  2.7459 -0.9103
31546SOL     OW95215   7.454   8.352   4.871  0.2995  0.0242 -0.4684
31546SOL    HW195216   7.546   8.369   4.892  0.0445 -0.3395  1.0848
31546SOL    HW295217   7.405   8.388   4.945 -0.6345 -2.1119  0.0264
31547SOL     OW95218   6.133   4.158   1.255 -0.4751  0.5486 -0.1516
31547SOL    HW195219   6.204   4.094   1.257  0.7444  1.8612  0.2114
31547SOL    HW295220   6.159   4.221   1.187 -2.3848 -0.1082 -1.5894
31548SOL     OW95221   6.523   1.791   1.834 -0.2355 -0.1025  0.0241
31548SOL    HW195222   6.472   1.720   1.873 -0.4268  0.6332  1.1805
31548SOL    HW295223   6.614   1.768   1.853 -0.3006 -0.0200  0.4567
31549SOL     OW95224   6.062   8.827   7.291  0.2700  0.2673  0.6026
31549SOL    HW195225   6.134   8.788   7.339 -0.5347 -0.0354  1.5946
31549SOL    HW295226   6.018   8.884   7.355  0.2121  1.2246 -0.2545
31550SOL     OW95227   3.057   7.067   4.078  0.2090  0.0302 -0.3045
31550SOL    HW195228   2.987   7.091   4.017  0.9264 -0.3627 -1.3202
31550SOL    HW295229   3.118   7.140   4.074  0.2762 -0.0156 -0.0922
31551SOL     OW95230   3.940   1.556   1.843 -0.9119  0.2938  0.2049
31551SOL    HW195231   3.899   1.496   1.905 -1.4823  0.0985 -0.3462
31551SOL    HW295232   3.893   1.541   1.761  1.3026 -1.1072 -0.9165
31552SOL     OW95233   6.159   9.132   3.043 -0.1857  0.2170 -0.7229
31552SOL    HW195234   6.136   9.166   2.957 -0.3111  0.9017 -0.4218
31552SOL    HW295235   6.174   9.038   3.029 -0.2758  0.3135 -1.4717
31553SOL     OW95236   9.500   8.635   0.286 -0.2231  0.0166  0.2400
31553SOL    HW195237   9.420   8.687   0.274 -0.6344 -0.4304  0.9363
31553SOL    HW295238   9.566   8.699   0.311 -0.8773  0.1532  1.7307
31554SOL     OW95239   9.055   3.468   9.640 -0.3157  0.2831  0.0980
31554SOL    HW195240   8.993   3.459   9.568 -2.4998 -3.1450  2.0916
31554SOL    HW295241   9.065   3.379   9.674  2.7487  1.2998  2.3717
31555SOL     OW95242   0.792   3.698   4.017 -0.0373 -0.2724  0.0938
31555SOL    HW195243   0.736   3.694   4.094  0.0301 -0.6348  0.1255
31555SOL    HW295244   0.788   3.789   3.988 -2.3632 -0.6974 -1.1761
31556SOL     OW95245   5.742   7.318   5.810 -0.7701  0.3401 -1.2359
31556SOL    HW195246   5.683   7.377   5.858 -0.8169  0.9896 -2.0653
31556SOL    HW295247   5.783   7.265   5.878  0.0233  2.0080 -0.3590
31557SOL     OW95248   8.276   1.462   7.807  0.5418  0.2218  0.2057
31557SOL    HW195249   8.240   1.378   7.779  2.3348 -0.9378  1.2071
31557SOL    HW295250   8.253   1.468   7.900  0.2737  0.9531  0.1054
31558SOL     OW95251   2.291   3.137   2.822 -0.0724  0.3405  0.0704
31558SOL    HW195252   2.238   3.153   2.744 -0.1035 -0.7497 -0.1470
31558SOL    HW295253   2.370   3.094   2.789  0.7907  1.6019  0.4362
31559SOL     OW95254   7.486   4.064   3.588  0.6982 -0.0844 -0.7264
31559SOL    HW195255   7.416   4.122   3.555 -0.9872 -2.0118 -0.7287
31559SOL    HW295256   7.560   4.080   3.529  0.4350  2.2656 -0.5325
31560SOL     OW95257   6.180   7.466   8.243 -0.4733 -0.2640 -0.1065
31560SOL    HW195258   6.148   7.378   8.264 -0.7050 -0.2885 -0.5512
31560SOL    HW295259   6.112   7.524   8.277 -0.5377 -0.2762 -0.2141
31561SOL     OW95260   9.482   1.688   4.893  0.2107  0.0762  0.2319
31561SOL    HW195261   9.521   1.775   4.889 -0.2283  0.3563  1.5084
31561SOL    HW295262   9.387   1.705   4.888  0.1070 -0.2900  0.9167
31562SOL     OW95263   6.118   9.509   1.943 -0.4844 -0.0225  0.0272
31562SOL    HW195264   6.026   9.487   1.927 -1.1976  1.9893  1.1068
31562SOL    HW295265   6.121   9.605   1.940  1.6198 -0.0464 -0.1198
31563SOL     OW95266   7.217   8.468   3.667  0.5756  0.5099 -0.2685
31563SOL    HW195267   7.221   8.421   3.750  0.9888 -0.0076 -0.5812
31563SOL    HW295268   7.230   8.560   3.692  0.5273  0.3807  0.2541
31564SOL     OW95269   2.883   2.498   6.328 -0.2114  0.1976 -0.3240
31564SOL    HW195270   2.866   2.461   6.241 -0.6834 -0.6626  0.1316
31564SOL    HW295271   2.971   2.535   6.321 -0.0817 -0.2293 -1.0506
31565SOL     OW95272   1.809   5.548   9.039  0.0685  0.2244 -0.3536
31565SOL    HW195273   1.722   5.539   9.001 -0.1095 -1.1206  0.3347
31565SOL    HW295274   1.796   5.534   9.133  0.9743  0.4024 -0.1919
31566SOL     OW95275   3.285   6.606   5.469  0.3030 -0.8127  0.2315
31566SOL    HW195276   3.222   6.544   5.432 -0.3542 -0.7219  1.1353
31566SOL    HW295277   3.235   6.652   5.537  1.8370 -2.0850  2.3438
31567SOL     OW95278   6.566   1.882   6.821  0.0875 -0.7158 -0.2951
31567SOL    HW195279   6.608   1.796   6.818  2.0221  0.1077  0.8987
31567SOL    HW295280   6.598   1.922   6.902 -1.5859  0.7476 -0.2876
31568SOL     OW95281   3.843   0.434   9.641 -0.0491 -0.2310  0.0148
31568SOL    HW195282   3.883   0.359   9.685  0.1987 -0.5257 -0.7007
31568SOL    HW295283   3.904   0.506   9.659  0.1754 -0.4033 -0.0414
31569SOL     OW95284   2.004   3.100   8.695  0.2075  0.2599 -0.2191
31569SOL    HW195285   2.075   3.038   8.680 -0.3264 -0.4931  0.2983
31569SOL    HW295286   2.010   3.123   8.788  1.0571  1.8370 -0.6202
31570SOL     OW95287   1.721   2.213   0.538  0.1621  0.2041  0.3782
31570SOL    HW195288   1.781   2.255   0.476  0.7950 -0.0234  0.8293
31570SOL    HW295289   1.755   2.236   0.624  0.4164 -1.0659  0.6411
31571SOL     OW95290   2.199   7.664   6.342  0.7603 -0.5454  0.3769
31571SOL    HW195291   2.264   7.627   6.283 -0.3748 -1.0683 -0.6023
31571SOL    HW295292   2.249   7.700   6.415  2.1693 -0.2869 -0.6899
31572SOL     OW95293   5.749   5.233   5.373 -0.1396  0.6617 -0.0783
31572SOL    HW195294   5.800   5.204   5.298  0.8658  0.7335  0.5582
31572SOL    HW295295   5.741   5.155   5.428 -1.3277  0.4719 -0.4924
31573SOL     OW95296   3.579   5.787   8.640  0.0565 -0.7184  0.3705
31573SOL    HW195297   3.585   5.853   8.709 -1.9528  0.5396 -0.5657
31573SOL    HW295298   3.666   5.748   8.636  1.0424  1.2347  1.5914
31574SOL     OW95299   9.727   4.702   8.403 -0.1909 -0.5422 -0.3069
31574SOL    HW195300   9.756   4.759   8.474  0.0845  0.6409 -1.3374
31574SOL    HW295301   9.778   4.622   8.414 -0.2409 -0.4247  0.8871
31575SOL     OW95302   0.592   8.900   2.529  0.7663 -0.0503 -0.1733
31575SOL    HW195303   0.660   8.925   2.591 -0.2600  2.2508  0.1311
31575SOL    HW295304   0.636   8.902   2.444  1.5831 -0.7288  0.2273
31576SOL     OW95305   5.189   8.761   7.566 -0.0772  0.0644  0.3586
31576SOL    HW195306   5.278   8.790   7.585  0.4925 -0.0168 -1.9355
31576SOL    HW295307   5.133   8.834   7.593  0.6373  0.1128  1.8275
31577SOL     OW95308   1.689   4.060   0.067 -0.4896 -0.2338  0.5413
31577SOL    HW195309   1.595   4.053   0.083 -0.4776  0.0565  0.7463
31577SOL    HW295310   1.699   4.143   0.020 -0.0419  1.2210  3.0146
31578SOL     OW95311   0.954   1.706   5.880 -0.1198 -0.2891 -0.1776
31578SOL    HW195312   1.045   1.701   5.850 -0.1065 -0.7797 -0.0558
31578SOL    HW295313   0.909   1.636   5.834  0.0424 -1.5112  1.4381
31579SOL     OW95314   4.878   1.682   5.784 -0.0400 -0.1875  0.4425
31579SOL    HW195315   4.938   1.608   5.782  0.5787  0.2289  2.0971
31579SOL    HW295316   4.935   1.759   5.779 -0.6488  0.1976 -0.8547
31580SOL     OW95317   7.846   3.635   1.649 -0.0061  0.0250 -0.1702
31580SOL    HW195318   7.880   3.666   1.733 -0.1210 -0.4691  0.0643
31580SOL    HW295319   7.919   3.589   1.608 -0.0692 -0.1007 -0.1460
31581SOL     OW95320   8.784   1.139   2.455 -0.6009 -0.2424  0.0272
31581SOL    HW195321   8.805   1.085   2.379  2.3619  0.5151  0.1751
31581SOL    HW295322   8.810   1.086   2.531  1.5767  0.9553  0.2054
31582SOL     OW95323   7.415   3.842   8.025  0.5308 -0.3227  0.2414
31582SOL    HW195324   7.503   3.838   8.062  0.9459  1.2323 -0.5016
31582SOL    HW295325   7.403   3.934   8.001 -0.3198 -0.9570 -2.0361
31583SOL     OW95326   6.264   0.808   8.390 -0.4298 -0.5176 -0.3282
31583SOL    HW195327   6.207   0.731   8.395 -1.6988  0.4606  2.5123
31583SOL    HW295328   6.204   0.882   8.385  0.6970  0.4122 -0.6310
31584SOL     OW95329   5.978   2.962   7.411 -0.0638 -0.0657  0.0950
31584SOL    HW195330   6.031   3.030   7.452  1.2201 -1.1499  0.3167
31584SOL    HW295331   6.006   2.961   7.319 -1.5338  1.0385 -0.3987
31585SOL     OW95332   3.035   6.325   3.115 -0.3545  0.3803 -0.2610
31585SOL    HW195333   2.997   6.266   3.050 -0.4067  0.0880  0.0291
31585SOL    HW295334   2.961   6.375   3.149 -0.5914 -0.5733  0.6986
31586SOL     OW95335   1.075  -0.026   5.018  0.2150 -0.1678 -0.6799
31586SOL    HW195336   1.135   0.039   5.056 -1.5459  0.2950  1.5930
31586SOL    HW295337   1.022   0.024   4.956 -0.1707  0.2546 -0.0203
31587SOL     OW95338   6.816   2.671   4.632 -0.1579 -0.5250 -0.1012
31587SOL    HW195339   6.829   2.720   4.713 -1.6888  0.1739 -0.2524
31587SOL    HW295340   6.891   2.611   4.629  1.1451  0.9709  0.6712
31588SOL     OW95341   3.402   0.554   5.378  0.4059 -0.3662 -0.0235
31588SOL    HW195342   3.432   0.608   5.451 -1.0019 -0.9572  1.0592
31588SOL    HW295343   3.321   0.595   5.349  1.4442  0.4145 -1.9503
31589SOL     OW95344   9.218   8.137   5.235  0.5269 -0.6695  0.3478
31589SOL    HW195345   9.206   8.043   5.221 -0.1697 -0.7416  1.2970
31589SOL    HW295346   9.225   8.174   5.147  0.5047 -1.5729 -0.0423
31590SOL     OW95347   7.983   4.507   1.884  0.4993  0.0742  0.3340
31590SOL    HW195348   8.072   4.483   1.909  0.7421  0.6982  0.1106
31590SOL    HW295349   7.938   4.424   1.869  0.4308 -0.3235  2.4663
31591SOL     OW95350   0.611   5.050   9.675  0.4960 -0.0794 -0.2674
31591SOL    HW195351   0.611   5.030   9.769  1.6187  2.4923  0.3659
31591SOL    HW295352   0.698   5.024   9.644  0.6878  0.5242 -0.2375
31592SOL     OW95353   4.976   9.406   1.742  0.3023  0.3994  0.7002
31592SOL    HW195354   4.952   9.443   1.657  1.2953  0.3601  0.3887
31592SOL    HW295355   5.043   9.466   1.776  1.0875 -0.4555  0.7071
31593SOL     OW95356   0.471   3.710   0.205  0.2971  0.2551  0.0519
31593SOL    HW195357   0.453   3.665   0.122 -0.6370 -0.6353  0.7178
31593SOL    HW295358   0.528   3.649   0.253 -2.2854 -1.0906  1.6382
31594SOL     OW95359   6.065   9.835   2.967  0.1130  0.3293 -0.1671
31594SOL    HW195360   6.033   9.826   2.877 -1.2203  1.4871  0.1727
31594SOL    HW295361   6.138   9.772   2.972  0.0196  0.0216 -1.9497
31595SOL     OW95362   9.362   1.726   0.531 -0.6461 -0.0746  0.2096
31595SOL    HW195363   9.406   1.808   0.554  2.6439 -1.1350 -1.6370
31595SOL    HW295364   9.343   1.684   0.614  1.0573  0.9185  1.1505
31596SOL     OW95365   2.722   9.571   8.018 -0.4224 -0.0432  0.2882
31596SOL    HW195366   2.805   9.619   8.011 -0.4320  0.0431  0.7412
31596SOL    HW295367   2.726   9.505   7.949 -0.4529  0.6804 -0.4198
31597SOL     OW95368   4.899   7.571   8.753 -0.7690 -0.0850 -0.1299
31597SOL    HW195369   4.884   7.540   8.843  1.9424 -1.2540  0.0092
31597SOL    HW295370   4.864   7.501   8.698  1.8090 -1.7226  0.1509
31598SOL     OW95371   8.613   4.078   5.532 -0.1099  0.3245 -0.1976
31598SOL    HW195372   8.567   4.160   5.547  1.8703  1.2879  1.0015
31598SOL    HW295373   8.678   4.098   5.464  0.5215 -0.1685  0.2407
31599SOL     OW95374   7.730   4.280   9.267  0.4851  0.0262  0.2591
31599SOL    HW195375   7.652   4.236   9.301 -0.1211  1.2161  0.4941
31599SOL    HW295376   7.783   4.210   9.228 -1.0948 -0.7090 -0.6850
31600SOL     OW95377   2.858   2.877   6.449  0.2769  0.5380  0.2443
31600SOL    HW195378   2.808   2.951   6.413  0.0872  0.5629  0.5494
31600SOL    HW295379   2.946   2.912   6.462 -0.3280  1.3983  2.4447
31601SOL     OW95380   5.383   5.145   3.166 -0.4596  0.0675  0.1233
31601SOL    HW195381   5.426   5.061   3.182  0.0482  0.4256  0.6771
31601SOL    HW295382   5.431   5.183   3.093 -0.3345  0.1198  0.2322
31602SOL     OW95383   1.700   4.700   2.205 -0.2510 -0.4321 -0.2600
31602SOL    HW195384   1.714   4.780   2.154  0.1761  1.1131  2.1600
31602SOL    HW295385   1.605   4.688   2.205 -0.4141  0.7291  0.2562
31603SOL     OW95386   8.691   1.362   3.763 -1.1507  0.0887 -0.0882
31603SOL    HW195387   8.675   1.452   3.736 -0.9605  0.0076 -0.4871
31603SOL    HW295388   8.611   1.336   3.808 -0.5646  1.0134  1.5648
31604SOL     OW95389   7.272   4.001   6.100  0.3652  0.4463 -0.1761
31604SOL    HW195390   7.176   4.004   6.097  0.1738  0.2361  3.0479
31604SOL    HW295391   7.292   3.922   6.149  2.2743  0.0863 -1.4403
31605SOL     OW95392   6.344   4.005   0.614  0.0506  0.5126 -0.1946
31605SOL    HW195393   6.383   4.071   0.672 -0.6167  0.8580 -0.1262
31605SOL    HW295394   6.419   3.962   0.573  0.5341  2.6188 -1.7198
31606SOL     OW95395   9.352   6.813   7.986  0.0785 -0.7216  0.6233
31606SOL    HW195396   9.297   6.882   7.949  0.9307 -0.9283 -1.1206
31606SOL    HW295397   9.330   6.735   7.935  0.0718 -1.4315  1.6950
31607SOL     OW95398   2.277   4.352   8.484  0.3154  0.2689 -0.6372
31607SOL    HW195399   2.232   4.370   8.401 -0.1052 -1.5557 -0.8357
31607SOL    HW295400   2.356   4.406   8.480 -1.6018  3.3409 -0.4021
31608SOL     OW95401   6.247   6.085   8.854 -0.5496 -0.0434  0.1436
31608SOL    HW195402   6.236   6.160   8.795 -2.8864  0.1515  0.7066
31608SOL    HW295403   6.158   6.051   8.866  0.1816 -1.6201  1.5856
31609SOL     OW95404   2.634   7.288   9.430  0.2069  0.0409  0.4228
31609SOL    HW195405   2.688   7.344   9.374  2.0674 -0.7661  1.2904
31609SOL    HW295406   2.635   7.333   9.515 -1.0178  0.3156  0.2998
31610SOL     OW95407   5.249   3.352   5.281 -0.3007  0.3350  0.0632
31610SOL    HW195408   5.271   3.259   5.281  0.8489  0.5789 -0.4816
31610SOL    HW295409   5.324   3.394   5.323  0.7425  1.2821 -2.5008
31611SOL     OW95410   9.584   3.124   6.460  0.6080 -0.2017 -0.0798
31611SOL    HW195411   9.492   3.144   6.440  1.0185  0.0300 -1.8497
31611SOL    HW295412   9.599   3.166   6.544 -1.7679 -2.8461  1.8706
31612SOL     OW95413   7.479   7.244   5.847 -0.6051  0.6640  0.2959
31612SOL    HW195414   7.545   7.187   5.808 -0.6662  0.2324  0.8267
31612SOL    HW295415   7.524   7.287   5.920 -0.4102  1.6809 -0.3953
31613SOL     OW95416   6.131   0.943   3.703 -0.4179 -0.4545  0.5172
31613SOL    HW195417   6.180   1.020   3.674  1.6291 -1.3171  1.4934
31613SOL    HW295418   6.076   0.921   3.628  2.2604 -0.6661 -1.5449
31614SOL     OW95419   3.621   3.832   3.810 -0.2529 -0.1087  0.1622
31614SOL    HW195420   3.541   3.815   3.761 -0.0349 -0.2251 -0.1511
31614SOL    HW295421   3.688   3.779   3.768 -0.2656 -0.9627  1.1805
31615SOL     OW95422   8.331   2.296   8.593  0.1527  0.7832 -0.3465
31615SOL    HW195423   8.268   2.224   8.608 -0.2850  1.6791  2.7079
31615SOL    HW295424   8.308   2.362   8.659  2.8200  2.1835 -0.7013
31616SOL     OW95425   0.546   7.470   2.282  0.1685 -0.1880  0.3122
31616SOL    HW195426   0.536   7.426   2.197  0.8894 -0.0469  0.1535
31616SOL    HW295427   0.478   7.538   2.281  0.8074  0.4524 -0.5628
31617SOL     OW95428   2.624   1.238   6.260  0.4297  0.1483  0.2969
31617SOL    HW195429   2.645   1.329   6.243 -0.6798  0.2358 -0.7439
31617SOL    HW295430   2.698   1.205   6.311  2.6439  0.6497 -2.3752
31618SOL     OW95431   4.972   6.432   0.772  0.1543  0.0585 -0.3080
31618SOL    HW195432   5.049   6.398   0.727  0.3394  1.7548 -1.3773
31618SOL    HW295433   4.990   6.421   0.865  0.2201 -2.5969 -0.5580
31619SOL     OW95434   8.987   6.556   4.902 -0.2193  0.1783 -0.6561
31619SOL    HW195435   9.051   6.505   4.852  1.3288  2.1447 -0.8260
31619SOL    HW295436   9.016   6.647   4.892 -1.8869  0.9553  0.9771
31620SOL     OW95437   4.181   8.087   7.966 -0.3478 -0.2237 -0.1879
31620SOL    HW195438   4.187   8.169   7.917  0.1068 -0.2999 -0.2602
31620SOL    HW295439   4.088   8.063   7.960 -0.2867 -0.2723 -1.0772
31621SOL     OW95440   8.704   0.825   5.885 -0.0917  0.9811  0.3550
31621SOL    HW195441   8.635   0.857   5.943  0.6665 -0.4807  2.1465
31621SOL    HW295442   8.769   0.896   5.883 -0.0874  1.0174  1.3856
31622SOL     OW95443   6.754   5.288   7.302  0.0855  0.3663  0.2380
31622SOL    HW195444   6.722   5.361   7.249  0.8363 -0.5736 -1.5913
31622SOL    HW295445   6.847   5.308   7.317 -0.3520  1.1827  2.2533
31623SOL     OW95446   7.824   3.597   2.005 -0.4862  0.2323  0.0999
31623SOL    HW195447   7.836   3.566   2.094 -1.5603  1.7559  0.8152
31623SOL    HW295448   7.764   3.672   2.013  0.5007  1.2919 -1.7214
31624SOL     OW95449   5.630   3.912   2.798 -0.1923  0.5800  0.1744
31624SOL    HW195450   5.635   3.881   2.889  0.7031 -0.0066 -0.0586
31624SOL    HW295451   5.537   3.930   2.784 -0.5414 -0.5864  0.8039
31625SOL     OW95452   2.973   6.394   8.955 -0.6514 -0.5882 -0.0047
31625SOL    HW195453   2.966   6.321   9.016  2.6193 -0.2372  0.9814
31625SOL    HW295454   2.882   6.415   8.932 -1.8949 -2.3106  2.8333
31626SOL     OW95455   5.392   4.444   4.755  0.2718 -0.0325  0.1989
31626SOL    HW195456   5.375   4.489   4.839 -0.1304 -0.9971  0.6484
31626SOL    HW295457   5.373   4.352   4.773  1.3899 -0.4388 -0.6266
31627SOL     OW95458   6.140   0.079   8.470 -0.1104  0.0132 -0.0034
31627SOL    HW195459   6.172   0.168   8.451 -1.5065  0.6733  0.6206
31627SOL    HW295460   6.045   0.087   8.467 -0.2523 -1.4259  0.2941
31628SOL     OW95461   7.881   3.401   3.988 -0.2372 -0.1410  0.4827
31628SOL    HW195462   7.799   3.451   3.981  0.3929  0.6726 -1.9556
31628SOL    HW295463   7.859   3.315   3.954  0.0117  0.2692 -0.7906
31629SOL     OW95464   8.499   8.514   1.933  0.0663 -0.7295  0.5015
31629SOL    HW195465   8.582   8.514   1.982  0.1683 -1.5333  0.3406
31629SOL    HW295466   8.433   8.493   1.998  0.1312 -1.2299  0.4066
31630SOL     OW95467   4.185   7.583   3.158 -0.1163  0.2150  0.1144
31630SOL    HW195468   4.241   7.654   3.128  0.6553 -0.6886 -0.6351
31630SOL    HW295469   4.153   7.541   3.078 -1.4020  0.3416  0.5315
31631SOL     OW95470   8.600   9.488   8.036 -0.1701 -0.4234  0.8439
31631SOL    HW195471   8.522   9.538   8.013 -0.2643 -0.9575 -0.0330
31631SOL    HW295472   8.621   9.438   7.958  1.5260  0.3145  0.7678
31632SOL     OW95473   9.260   7.075   4.616  0.2379  0.6245 -0.3526
31632SOL    HW195474   9.339   7.045   4.662  0.1062 -0.6054 -0.9033
31632SOL    HW295475   9.192   7.075   4.684  0.8897  2.6660  0.3729
31633SOL     OW95476   3.093   8.169   3.575 -0.5033  0.1047 -0.5200
31633SOL    HW195477   3.042   8.094   3.603  1.0431 -1.4156 -1.5427
31633SOL    HW295478   3.166   8.173   3.636 -0.8159  1.1038 -0.1870
31634SOL     OW95479   1.801   2.522   8.198  0.2390  0.4752 -0.2173
31634SOL    HW195480   1.852   2.442   8.188  0.2943  0.5741 -0.7300
31634SOL    HW295481   1.731   2.499   8.259 -0.5815 -0.3676 -1.4300
31635SOL     OW95482   9.741   3.046   9.454 -0.5701 -0.0981  0.1731
31635SOL    HW195483   9.657   3.040   9.409 -0.1207  0.7389 -0.8164
31635SOL    HW295484   9.804   3.008   9.392 -0.2303 -0.8022  0.9426
31636SOL     OW95485   5.860   3.431   1.740  0.7104  0.8377 -0.0676
31636SOL    HW195486   5.917   3.507   1.731  2.4681 -0.4965 -0.5842
31636SOL    HW295487   5.909   3.369   1.794 -0.3560 -0.2500 -0.2872
31637SOL     OW95488   1.353   6.086   9.669 -0.5729  0.9103 -0.6635
31637SOL    HW195489   1.387   6.082   9.580  0.3895  2.6414 -0.4257
31637SOL    HW295490   1.342   5.994   9.695  1.8330  0.2876 -1.5812
31638SOL     OW95491   7.305   1.765   2.446  0.2318  0.1246  0.2663
31638SOL    HW195492   7.228   1.720   2.409 -0.7005  0.4764  1.7286
31638SOL    HW295493   7.318   1.725   2.532  1.9562 -0.2023 -0.1058
31639SOL     OW95494   3.848   2.766   7.622  0.1847  0.3663 -0.1060
31639SOL    HW195495   3.841   2.733   7.712 -0.5051  0.9083  0.0450
31639SOL    HW295496   3.786   2.839   7.618  1.9003  1.8717 -0.3557
31640SOL     OW95497   9.285   2.601   8.681  0.2457 -0.1258 -0.1575
31640SOL    HW195498   9.236   2.582   8.601 -2.2520 -0.5985  1.3358
31640SOL    HW295499   9.307   2.515   8.716  0.7906  0.0601 -0.0454
31641SOL     OW95500   8.434   5.728   0.667 -0.0595  0.4529 -0.0181
31641SOL    HW195501   8.355   5.701   0.620  0.5230 -0.1885 -0.6746
31641SOL    HW295502   8.444   5.821   0.648  0.4793  0.0984 -1.7149
31642SOL     OW95503   1.184   6.417   9.097 -0.1302 -0.3898 -0.5914
31642SOL    HW195504   1.260   6.366   9.066  0.5754  0.1443  0.2434
31642SOL    HW295505   1.134   6.434   9.017  0.4226 -1.0808 -1.1058
31643SOL     OW95506   1.329   0.771   1.942 -0.1494 -0.4224 -0.0482
31643SOL    HW195507   1.328   0.804   1.852  2.2103  0.5355  0.2176
31643SOL    HW295508   1.343   0.677   1.934 -0.9577 -0.4963 -0.6836
31644SOL     OW95509   4.229   7.402   9.403  0.2059 -0.2003 -0.3508
31644SOL    HW195510   4.267   7.315   9.407  0.2084 -0.2860 -1.7907
31644SOL    HW295511   4.298   7.457   9.366  0.2418  0.4477  0.6346
31645SOL     OW95512   9.652   5.127   0.339 -0.1366 -0.5769  0.0843
31645SOL    HW195513   9.716   5.093   0.401  0.4190  1.1187  0.5172
31645SOL    HW295514   9.657   5.068   0.264  0.6179 -1.5249  0.8482
31646SOL     OW95515   4.664   6.144   2.514 -0.1208  0.4539  0.5389
31646SOL    HW195516   4.582   6.096   2.502 -0.1895  0.8117 -0.5574
31646SOL    HW295517   4.717   6.120   2.438  1.1562 -0.4599  1.6732
31647SOL     OW95518   7.808   9.293   6.732  0.2931 -0.0637 -0.2785
31647SOL    HW195519   7.771   9.266   6.648  1.2767  1.4406 -1.2447
31647SOL    HW295520   7.895   9.253   6.733  0.6267  0.6495 -0.3936
31648SOL     OW95521   4.492   8.574   6.397  0.3385  0.2054  0.0381
31648SOL    HW195522   4.541   8.590   6.316  0.1291 -0.6688 -0.2807
31648SOL    HW295523   4.400   8.583   6.371  0.3061  2.0901  0.6891
31649SOL     OW95524   1.568   8.195   6.498  0.1829 -0.1773  0.1424
31649SOL    HW195525   1.655   8.232   6.483 -0.1025  0.1662 -0.7109
31649SOL    HW295526   1.509   8.270   6.497 -0.0191 -0.2871  1.7637
31650SOL     OW95527   8.330   6.079   3.796 -0.5135 -0.2733  0.4488
31650SOL    HW195528   8.313   6.016   3.726 -0.0359  0.0105  0.0745
31650SOL    HW295529   8.365   6.156   3.752  1.6342 -0.7800  1.1627
31651SOL     OW95530   1.346   2.352   4.827 -0.0749  0.4578 -0.1026
31651SOL    HW195531   1.310   2.432   4.790 -1.5710 -0.3487 -0.4936
31651SOL    HW295532   1.307   2.346   4.914 -1.6396 -0.8380 -0.8289
31652SOL     OW95533   9.523   3.062   5.333  0.0498  0.0890 -0.0733
31652SOL    HW195534   9.573   3.126   5.282 -1.7722  1.5495 -0.1079
31652SOL    HW295535   9.577   2.982   5.329  1.9218  1.3015 -0.8431
31653SOL     OW95536   9.291   1.353   3.456 -0.1698 -0.4524 -0.0284
31653SOL    HW195537   9.217   1.392   3.409  1.6500  2.0650 -1.0564
31653SOL    HW295538   9.275   1.373   3.548 -0.8776 -0.1555 -0.2139
31654SOL     OW95539   2.498   3.019   9.420 -0.3414 -0.1186  0.4715
31654SOL    HW195540   2.514   3.114   9.420  0.6839 -0.2615  1.6208
31654SOL    HW295541   2.482   2.998   9.512 -0.6265 -1.0511  0.2109
31655SOL     OW95542   5.762   2.320   0.425 -0.4458  0.2012  0.3039
31655SOL    HW195543   5.737   2.285   0.340 -0.2076 -2.6631  1.3078
31655SOL    HW295544   5.841   2.272   0.449 -0.5012  0.9446  2.1499
31656SOL     OW95545  10.006   3.286   1.874  0.2336  0.1560  0.2783
31656SOL    HW195546   9.961   3.343   1.811 -1.3724  0.0031  1.2567
31656SOL    HW295547   9.949   3.284   1.950  0.0231 -3.0829  0.1629
31657SOL     OW95548   3.573   9.370   0.102  0.9999  0.1820  0.0039
31657SOL    HW195549   3.648   9.318   0.133  0.4934 -0.5003  0.1217
31657SOL    HW295550   3.512   9.369   0.176  0.4609 -0.1045 -0.4347
31658SOL     OW95551   9.610   1.968   5.895  0.3795  0.2811 -0.0968
31658SOL    HW195552   9.599   2.059   5.867  0.3281  0.1694 -0.4485
31658SOL    HW295553   9.530   1.924   5.867 -0.7870  0.6621  2.3856
31659SOL     OW95554   2.845   8.061   2.603 -0.2258 -0.3211 -0.4852
31659SOL    HW195555   2.872   8.118   2.531 -0.1656  1.0020  0.5512
31659SOL    HW295556   2.843   7.973   2.564  2.0200  0.0114 -1.5428
31660SOL     OW95557   9.340   5.657   8.572  0.2737 -0.8041 -0.1631
31660SOL    HW195558   9.322   5.590   8.638  1.7865 -1.2592 -0.1699
31660SOL    HW295559   9.271   5.644   8.506 -0.0508 -1.7017  0.3300
31661SOL     OW95560   7.301   4.347   4.772 -0.3958 -0.2332 -0.2517
31661SOL    HW195561   7.220   4.366   4.820  0.1895  1.6126  0.1045
31661SOL    HW295562   7.305   4.252   4.767 -2.7281 -0.3643 -0.5451
31662SOL     OW95563   0.537   0.879   7.002 -0.1359  0.6454 -0.0073
31662SOL    HW195564   0.538   0.868   7.097 -1.6342  0.1119 -0.0290
31662SOL    HW295565   0.508   0.794   6.968  2.2154  0.1642 -1.1008
31663SOL     OW95566   6.733   5.347   7.717 -0.1950 -0.4385 -0.2811
31663SOL    HW195567   6.678   5.306   7.785 -0.5477 -0.2496 -0.4513
31663SOL    HW295568   6.725   5.441   7.734  1.2397 -0.4467  0.6012
31664SOL     OW95569   3.675   4.627   4.156  0.2233 -0.4257 -0.1775
31664SOL    HW195570   3.723   4.550   4.125  0.5620 -0.9083  1.4490
31664SOL    HW295571   3.735   4.669   4.218 -0.7759 -0.0377  0.5424
31665SOL     OW95572   2.438   8.633   5.615 -0.3673 -0.2647 -0.2290
31665SOL    HW195573   2.485   8.659   5.694 -1.2986  0.7207  0.0377
31665SOL    HW295574   2.349   8.614   5.645 -0.3205 -1.5161 -0.8039
31666SOL     OW95575   4.545   4.052   6.426  0.5360 -0.0913 -0.0199
31666SOL    HW195576   4.476   3.993   6.397  1.5342 -0.8466 -0.9799
31666SOL    HW295577   4.525   4.071   6.518 -0.0042 -1.6371  0.2021
31667SOL     OW95578   6.547   8.117   2.410  0.4849  0.5974  0.3369
31667SOL    HW195579   6.569   8.135   2.502 -1.0586 -0.5790  0.9907
31667SOL    HW295580   6.493   8.038   2.414  0.1235  0.7065 -1.5755
31668SOL     OW95581   1.072   3.211   9.747 -0.1581 -0.4594 -0.2576
31668SOL    HW195582   1.042   3.130   9.705 -1.1070 -0.4957  0.4739
31668SOL    HW295583   0.998   3.240   9.800  1.2760 -0.8731  2.1080
31669SOL     OW95584   7.282   3.238   5.548 -0.5117  0.2321 -0.1548
31669SOL    HW195585   7.308   3.319   5.592 -0.1575  0.0656 -0.0561
31669SOL    HW295586   7.201   3.261   5.502 -0.3690  0.6643 -0.1971
31670SOL     OW95587   2.854   5.654   4.120 -0.0431  0.8770  0.0457
31670SOL    HW195588   2.873   5.658   4.026  0.3336  0.5267  0.1023
31670SOL    HW295589   2.923   5.598   4.155 -1.3185 -0.6260  0.2374
31671SOL     OW95590   9.345   9.215   6.075 -0.3457  0.5543 -0.3746
31671SOL    HW195591   9.283   9.285   6.056  0.8135  1.8246  0.2877
31671SOL    HW295592   9.408   9.255   6.136  1.3073 -0.5581 -1.2615
31672SOL     OW95593   7.964   0.493   1.579  0.1664 -0.2689 -0.4573
31672SOL    HW195594   7.883   0.491   1.631  0.6269 -1.6253  0.2348
31672SOL    HW295595   8.034   0.501   1.643  0.8691 -3.6772 -0.6194
31673SOL     OW95596   7.735   8.670   5.842  0.0003 -0.5352  0.8724
31673SOL    HW195597   7.676   8.634   5.908 -1.4061 -0.1882 -0.1482
31673SOL    HW295598   7.762   8.595   5.790  1.8181 -0.9498  2.3166
31674SOL     OW95599   1.124   1.648   1.069  0.1960 -0.1960  0.0479
31674SOL    HW195600   1.031   1.635   1.051  0.3468  0.2689 -1.1484
31674SOL    HW295601   1.129   1.739   1.099  0.3476  0.0051 -0.5736
31675SOL     OW95602   9.259   6.617   7.310  0.4567  0.2271 -0.5243
31675SOL    HW195603   9.353   6.609   7.321  0.8409  0.6115 -3.0151
31675SOL    HW295604   9.230   6.530   7.283  0.5950  0.7528 -2.5160
31676SOL     OW95605   1.284   0.235   8.350  0.2757  0.4895 -0.4958
31676SOL    HW195606   1.278   0.330   8.364 -1.5253  0.2492  0.5699
31676SOL    HW295607   1.325   0.202   8.430  0.0848  0.2685 -0.4896
31677SOL     OW95608   8.250   0.080   6.122 -0.1012  0.4681  0.1213
31677SOL    HW195609   8.197   0.078   6.042 -1.1152  1.5840  0.7266
31677SOL    HW295610   8.276   0.172   6.131 -1.1708  0.6499  1.7880
31678SOL     OW95611   9.219   0.109   8.028  0.4733  0.0210  0.0002
31678SOL    HW195612   9.235   0.171   8.099  1.5610  2.1671 -1.9764
31678SOL    HW295613   9.136   0.136   7.990 -0.9697 -2.1608  1.3680
31679SOL     OW95614   8.242   2.535   5.067 -0.0566  0.4675  0.2819
31679SOL    HW195615   8.223   2.599   5.136 -1.5473  2.4709 -1.8212
31679SOL    HW295616   8.337   2.519   5.075  0.0469  1.5917  1.9541
31680SOL     OW95617   9.782   4.768   2.494  0.3945 -0.4562 -0.1096
31680SOL    HW195618   9.806   4.849   2.449 -0.1701 -0.5693 -0.6358
31680SOL    HW295619   9.751   4.797   2.580  0.0571 -0.0982 -0.3481
31681SOL     OW95620   6.221   4.739   3.413 -0.4060  0.3219  0.4382
31681SOL    HW195621   6.135   4.736   3.455 -0.0712  0.8556  1.1775
31681SOL    HW295622   6.251   4.648   3.414 -0.1756  0.3948  1.8471
31682SOL     OW95623   0.392   8.443   4.161 -0.2721  0.1625 -0.3905
31682SOL    HW195624   0.393   8.381   4.234 -0.3401 -1.1074 -1.4463
31682SOL    HW295625   0.427   8.394   4.087  1.4255  1.9291 -0.8422
31683SOL     OW95626   5.540   5.448   6.383  0.1202  0.6349  0.1605
31683SOL    HW195627   5.555   5.459   6.289 -1.2508 -0.0258 -0.1561
31683SOL    HW295628   5.459   5.497   6.400 -1.1714 -1.4735  0.4386
31684SOL     OW95629   9.419   6.674   4.113  0.2507 -0.0715 -0.4386
31684SOL    HW195630   9.484   6.621   4.066  1.5393  2.6086 -1.9074
31684SOL    HW295631   9.342   6.674   4.056  0.2127 -0.4388 -0.3873
31685SOL     OW95632   0.944   4.889   7.701 -0.5169  0.4604  0.2310
31685SOL    HW195633   0.902   4.890   7.786 -0.6057 -0.9915  0.2311
31685SOL    HW295634   0.874   4.908   7.639 -0.8693 -0.4261  0.3456
31686SOL     OW95635   8.777   7.713   6.314 -0.0025  0.6788 -0.2035
31686SOL    HW195636   8.720   7.652   6.361 -1.8914  2.1908 -0.4212
31686SOL    HW295637   8.812   7.770   6.382 -0.4993  1.1066 -0.3006
31687SOL     OW95638   8.116   1.309   4.882 -0.0457  0.0159 -0.4033
31687SOL    HW195639   8.170   1.382   4.850  0.0118 -0.1050 -0.5835
31687SOL    HW295640   8.140   1.235   4.826 -0.7868  0.0946 -0.8327
31688SOL     OW95641   2.581   0.263   7.774  0.0475  0.2976  0.1916
31688SOL    HW195642   2.555   0.344   7.818  0.0877  0.3240  0.1664
31688SOL    HW295643   2.576   0.196   7.843 -3.2193 -0.3427 -0.5022
31689SOL     OW95644   8.033   8.156   1.730 -0.0804  0.3578  0.1317
31689SOL    HW195645   8.008   8.081   1.784  0.7120 -1.0176 -1.3206
31689SOL    HW295646   8.115   8.187   1.769  0.5400 -0.6879 -0.2778
31690SOL     OW95647   2.281   4.155   8.062 -0.1848 -0.7066  0.1682
31690SOL    HW195648   2.300   4.066   8.092  0.8283  0.0445  1.8974
31690SOL    HW295649   2.366   4.188   8.031 -0.2848  0.0595  0.6877
31691SOL     OW95650   6.960   1.344   8.823  0.2895 -0.4027  0.3324
31691SOL    HW195651   6.950   1.336   8.918 -0.2701  2.4083  0.6050
31691SOL    HW295652   7.053   1.325   8.807  0.0244 -2.7585  1.1087
31692SOL     OW95653   9.764   6.624   7.178 -0.2531 -0.5356 -0.4702
31692SOL    HW195654   9.753   6.687   7.107 -3.5971  3.5392  3.0658
31692SOL    HW295655   9.707   6.551   7.153 -1.4425  0.8207 -2.0026
31693SOL     OW95656   0.987   3.337   2.392  0.3068 -0.1153 -0.1245
31693SOL    HW195657   0.919   3.278   2.424  0.3914 -0.6446 -0.8900
31693SOL    HW295658   1.024   3.376   2.471  0.9439 -1.8627  0.4994
31694SOL     OW95659   8.638   3.649   6.880 -0.0159 -0.1224  0.3701
31694SOL    HW195660   8.672   3.722   6.828 -0.2427 -0.0789  0.2832
31694SOL    HW295661   8.562   3.685   6.926  0.3926 -0.0596  1.0134
31695SOL     OW95662   2.719   1.259   7.875 -0.4175  0.3134 -0.2373
31695SOL    HW195663   2.788   1.241   7.939 -0.1804  1.4223 -0.1487
31695SOL    HW295664   2.638   1.233   7.918 -0.0875 -0.7098 -0.2204
31696SOL     OW95665   8.510   1.755   1.341 -0.5191 -0.9869  0.2855
31696SOL    HW195666   8.429   1.705   1.352 -0.9143 -0.4230 -0.0386
31696SOL    HW295667   8.540   1.732   1.253 -0.5446 -0.8841  0.2499
31697SOL     OW95668   5.811   9.896   1.146  0.1949 -0.4409 -0.3025
31697SOL    HW195669   5.745   9.829   1.167  1.7309 -2.1066 -0.5034
31697SOL    HW295670   5.856   9.860   1.070  0.6074  1.2144 -0.8692
31698SOL     OW95671   2.402   8.626   0.697  0.4902  0.1423  0.0537
31698SOL    HW195672   2.420   8.551   0.754  1.2909 -0.6637 -1.2356
31698SOL    HW295673   2.310   8.616   0.673  0.8172 -0.9147 -0.7922
31699SOL     OW95674   6.226   0.992   2.557  0.1596  0.1129 -0.3508
31699SOL    HW195675   6.180   0.962   2.478 -0.3290  0.6199 -0.2671
31699SOL    HW295676   6.306   0.940   2.559 -0.7378 -1.3234 -0.0945
31700SOL     OW95677   2.940   9.315   5.795 -0.1528  0.3045 -0.1185
31700SOL    HW195678   2.934   9.371   5.872  1.1445 -1.2003  1.1344
31700SOL    HW295679   3.030   9.325   5.764 -0.5748  0.6687 -1.2800
31701SOL     OW95680   2.208   6.881   3.550 -0.3397  0.3652  0.2726
31701SOL    HW195681   2.127   6.905   3.595 -0.4407 -0.2501  0.4297
31701SOL    HW295682   2.180   6.826   3.478 -0.0959  0.5605  0.0245
31702SOL     OW95683   9.898   1.304   4.783 -0.3591 -0.0795  0.3579
31702SOL    HW195684   9.902   1.368   4.712  1.8653 -1.2641 -0.6959
31702SOL    HW295685   9.923   1.221   4.742 -2.5480 -1.5672  1.7954
31703SOL     OW95686   8.147   8.700   9.277 -0.0387 -0.2150 -0.0234
31703SOL    HW195687   8.230   8.674   9.237  0.1436  0.9748 -0.4819
31703SOL    HW295688   8.097   8.619   9.287  0.5113 -0.7249 -1.2904
31704SOL     OW95689   3.889   2.934   4.734 -0.1158  0.4999 -0.3903
31704SOL    HW195690   3.973   2.980   4.744  0.0821  0.5653 -1.9902
31704SOL    HW295691   3.865   2.907   4.822  2.1210 -0.4214  0.0138
31705SOL     OW95692   5.751   6.002   8.509 -0.0567 -0.1013  0.3606
31705SOL    HW195693   5.735   5.958   8.426 -0.1609 -1.2277  0.9532
31705SOL    HW295694   5.845   5.992   8.523  0.0265  0.4278  0.1996
31706SOL     OW95695   4.845   8.682   9.867  0.0564 -0.4475 -0.2050
31706SOL    HW195696   4.778   8.693   9.799 -0.8257  0.6286  0.7816
31706SOL    HW295697   4.894   8.604   9.841 -1.9896 -1.6550 -0.6353
31707SOL     OW95698   8.389   5.385   0.799  0.0475 -0.4307 -0.0647
31707SOL    HW195699   8.319   5.417   0.742  0.6699  1.2583  0.0471
31707SOL    HW295700   8.351   5.386   0.887  0.0781  0.1104 -0.0536
31708SOL     OW95701   5.396   8.485   9.930  0.2684  0.3737 -0.1847
31708SOL    HW195702   5.369   8.401   9.893 -0.3487  1.2784 -1.9076
31708SOL    HW295703   5.437   8.531   9.856 -1.7083  2.5670 -0.0236
31709SOL     OW95704   5.016   6.435   1.059  0.4370  0.4573  0.7710
31709SOL    HW195705   5.039   6.455   1.149 -0.4453 -0.8639  1.3156
31709SOL    HW295706   4.944   6.373   1.065 -0.8609  1.7119 -0.8596
31710SOL     OW95707   8.258   6.098   0.622  0.4206  0.4075 -0.2527
31710SOL    HW195708   8.228   6.188   0.606  1.8585  0.9807  0.1224
31710SOL    HW295709   8.288   6.067   0.537 -1.3065 -0.2355 -0.6701
31711SOL     OW95710   2.767   3.381   3.792 -0.4128  0.2896 -0.2154
31711SOL    HW195711   2.790   3.319   3.861 -0.2231 -0.8434 -1.2645
31711SOL    HW295712   2.850   3.409   3.756 -0.5397 -0.6728 -1.3008
31712SOL     OW95713   6.466   9.489   4.947 -0.0704 -0.3243 -0.1952
31712SOL    HW195714   6.490   9.403   4.983 -0.1515  0.5600  2.1448
31712SOL    HW295715   6.506   9.490   4.860  1.7222 -1.9498  0.5170
31713SOL     OW95716   8.234   9.295   0.389  0.0805  0.1664  0.0910
31713SOL    HW195717   8.303   9.330   0.446 -0.3366  1.3480 -0.1204
31713SOL    HW295718   8.154   9.340   0.416 -0.3429 -0.1034 -0.6642
31714SOL     OW95719   9.100   4.079   2.826 -0.4066 -0.6681 -0.1608
31714SOL    HW195720   9.118   4.000   2.877 -0.1422 -0.2208  0.4373
31714SOL    HW295721   9.062   4.045   2.744 -0.9572 -1.3776  0.3697
31715SOL     OW95722   2.324   2.410   1.222 -0.0932  0.1929  0.0548
31715SOL    HW195723   2.340   2.376   1.310 -0.9908 -0.2617  0.0599
31715SOL    HW295724   2.376   2.354   1.165 -2.1362 -1.7585 -0.0104
31716SOL     OW95725   6.748   7.568   9.942  0.0589 -0.1422  0.7263
31716SOL    HW195726   6.685   7.638   9.927  0.2875 -0.2541 -0.8674
31716SOL    HW295727   6.695   7.492   9.965 -0.6065 -0.7084 -2.2700
31717SOL     OW95728   4.539   4.303   4.987 -0.1057  0.5715  0.3519
31717SOL    HW195729   4.560   4.384   5.032  1.1095  0.2340  0.4185
31717SOL    HW295730   4.586   4.235   5.035 -1.8269 -0.3197  0.8567
31718SOL     OW95731   6.633   6.587   0.288  0.2404  0.1357 -0.1601
31718SOL    HW195732   6.563   6.623   0.341  0.7462  0.1167  0.5375
31718SOL    HW295733   6.589   6.543   0.216 -0.4562  0.1793  0.2341
31719SOL     OW95734   5.840   4.120   3.965 -0.0280 -0.1707 -0.1123
31719SOL    HW195735   5.933   4.108   3.984 -0.1870  0.3061  0.9978
31719SOL    HW295736   5.838   4.193   3.903  0.2530  0.8446  1.0374
31720SOL     OW95737   0.558   0.233   9.616 -0.2160  0.1351  0.3901
31720SOL    HW195738   0.467   0.218   9.645 -0.6738 -1.2979 -1.6018
31720SOL    HW295739   0.549   0.285   9.536  0.7646  0.5080  0.5193
31721SOL     OW95740   7.355   7.917   8.583 -0.5596 -0.1633  0.2753
31721SOL    HW195741   7.342   7.825   8.608 -1.2548 -0.4204 -0.9215
31721SOL    HW295742   7.283   7.935   8.522  0.9237  0.4436 -1.3727
31722SOL     OW95743   3.133   8.328   0.140  0.0947  0.3035  0.2225
31722SOL    HW195744   3.216   8.310   0.184 -0.4251  0.3685  1.2676
31722SOL    HW295745   3.066   8.297   0.201 -0.7052  1.9229  0.2327
31723SOL     OW95746   9.020   7.440   9.107 -0.3986 -0.3477  0.2029
31723SOL    HW195747   8.957   7.473   9.171 -1.0867 -0.2638 -0.4960
31723SOL    HW295748   8.966   7.407   9.035  0.3608  0.1831 -0.6349
31724SOL     OW95749   7.818   9.294   2.196  0.0556  0.0518  0.3562
31724SOL    HW195750   7.824   9.384   2.163  1.2604  0.0868  0.6418
31724SOL    HW295751   7.813   9.304   2.291 -1.8149 -0.1203  0.3109
31725SOL     OW95752   2.276   7.765   3.031  0.1809  0.4792  0.4196
31725SOL    HW195753   2.321   7.710   3.096  0.0332  0.0094  0.1295
31725SOL    HW295754   2.184   7.739   3.038  0.3983 -1.0277 -1.3328
31726SOL     OW95755   6.058   4.261   0.135 -0.5469  0.1397  0.2639
31726SOL    HW195756   6.008   4.180   0.145  0.2986 -0.1146  3.1074
31726SOL    HW295757   6.028   4.296   0.051 -2.2269 -2.2007 -0.2303
31727SOL     OW95758   4.754   0.180   5.681  0.1566  0.4820  0.3752
31727SOL    HW195759   4.791   0.105   5.634  0.5649 -0.5128  2.1772
31727SOL    HW295760   4.830   0.233   5.704  0.4217 -0.7871  2.7651
31728SOL     OW95761   2.457   9.248   1.368 -0.1554 -0.0197  0.5313
31728SOL    HW195762   2.533   9.293   1.404 -0.1192 -0.5868  1.1751
31728SOL    HW295763   2.392   9.250   1.438 -0.7538  0.4976 -0.0285
31729SOL     OW95764   7.516   5.673   8.732  0.9424 -0.0422 -0.7231
31729SOL    HW195765   7.552   5.670   8.820 -0.5147  1.6580 -0.0073
31729SOL    HW295766   7.541   5.589   8.693  2.1746 -0.5567  1.0642
31730SOL     OW95767   7.901   0.137   2.405  0.5923  0.0568  0.1973
31730SOL    HW195768   7.910   0.140   2.310 -0.0673  0.5683  0.1431
31730SOL    HW295769   7.930   0.223   2.435 -0.4567  0.3653  0.3411
31731SOL     OW95770   6.853   8.151   4.151 -0.1291 -0.0034  0.3217
31731SOL    HW195771   6.910   8.166   4.076 -0.7840  1.7448  0.1252
31731SOL    HW295772   6.828   8.058   4.144 -0.6489  0.2476 -1.9576
31732SOL     OW95773   4.217   6.826   6.461  0.3551  0.1963 -0.4830
31732SOL    HW195774   4.178   6.807   6.546 -1.6106  1.9452 -0.9156
31732SOL    HW295775   4.299   6.869   6.481  0.8611 -1.1481  0.4838
31733SOL     OW95776   9.107   0.089   9.946  0.2619 -0.1666 -0.2791
31733SOL    HW195777   9.178   0.090   9.883 -1.4332  0.6662 -2.2782
31733SOL    HW295778   9.120   0.169   9.998  0.3624  0.3751 -1.1261
31734SOL     OW95779   2.231   3.619   0.333  0.5506  0.4195 -0.6792
31734SOL    HW195780   2.258   3.699   0.379 -0.3102  0.9213 -1.0305
31734SOL    HW295781   2.263   3.630   0.244  0.1622  0.5200 -0.8092
31735SOL     OW95782   5.144   9.102   8.975  0.3235  0.1175  0.5250
31735SOL    HW195783   5.071   9.152   8.937  1.7660  1.3571 -0.7470
31735SOL    HW295784   5.174   9.155   9.048 -0.9366 -1.1294  2.0374
31736SOL     OW95785   0.729   6.103   1.375  0.0205  0.5543  0.1137
31736SOL    HW195786   0.725   6.192   1.342 -0.2032  0.6103  0.2901
31736SOL    HW295787   0.818   6.073   1.354  0.8131  1.5120  1.8357
31737SOL     OW95788   2.334   3.378   0.380 -0.0867  0.0494 -0.0449
31737SOL    HW195789   2.309   3.469   0.363 -2.4816  0.1837  3.1606
31737SOL    HW295790   2.276   3.327   0.324 -0.0406  0.4675 -0.4866
31738SOL     OW95791   0.777   1.799   0.019 -0.4367  0.1113  0.2904
31738SOL    HW195792   0.800   1.889  -0.005 -0.1483 -0.4283 -1.5978
31738SOL    HW295793   0.682   1.801   0.033 -0.5599  0.5303 -0.5922
31739SOL     OW95794   6.939   5.735   4.208 -0.8984  0.2769  0.6575
31739SOL    HW195795   6.855   5.713   4.167 -0.9201  0.9064  0.3464
31739SOL    HW295796   6.953   5.827   4.185  1.7753 -0.7697 -2.7531
31740SOL     OW95797   5.099   4.075   1.393  0.3861 -0.4851 -0.0518
31740SOL    HW195798   5.142   3.999   1.430 -1.7365 -1.0886  1.4076
31740SOL    HW295799   5.031   4.098   1.457  0.0796  1.8176 -1.0725
31741SOL     OW95800   8.548   9.407   4.505 -0.0729 -0.4207 -0.3729
31741SOL    HW195801   8.472   9.362   4.468 -0.3634 -1.0653  0.9526
31741SOL    HW295802   8.529   9.500   4.492 -0.7820 -0.5968 -0.6245
31742SOL     OW95803   5.309   8.368   5.319  0.0222  0.5462 -0.5557
31742SOL    HW195804   5.332   8.280   5.348  1.3643  1.4540  1.3489
31742SOL    HW295805   5.291   8.416   5.400 -2.7610  1.5513 -1.6404
31743SOL     OW95806   1.200   1.488   7.663 -0.2842  0.2684  0.2579
31743SOL    HW195807   1.124   1.547   7.667 -0.1710  0.4551 -0.2787
31743SOL    HW295808   1.227   1.490   7.571  1.4941  1.6545  0.7458
31744SOL     OW95809   3.052   5.230   4.390 -0.0199  0.1713  0.0763
31744SOL    HW195810   3.029   5.152   4.340  0.1525 -0.6958  1.3180
31744SOL    HW295811   2.981   5.240   4.454 -0.4676  1.5193 -0.5760
31745SOL     OW95812   3.830   7.649   1.263 -0.3554 -0.3875  0.3261
31745SOL    HW195813   3.854   7.562   1.295 -1.0091 -1.3539 -1.6248
31745SOL    HW295814   3.839   7.642   1.167  1.1214  2.1822  0.1878
31746SOL     OW95815   8.721   8.403   9.506 -0.2188  0.2600  0.9227
31746SOL    HW195816   8.691   8.443   9.587 -1.1127 -0.4560  0.9632
31746SOL    HW295817   8.797   8.352   9.531 -1.2991 -1.0735  1.6048
31747SOL     OW95818   2.195   1.270   8.244  0.0425 -0.0982  0.5735
31747SOL    HW195819   2.116   1.322   8.229 -0.0797 -0.2744  0.6051
31747SOL    HW295820   2.163   1.188   8.281  0.1470 -0.5930 -0.4145
31748SOL     OW95821   8.122   2.583   7.476  0.3786  0.6542 -0.4626
31748SOL    HW195822   8.167   2.538   7.548 -0.1119 -1.5952 -1.4744
31748SOL    HW295823   8.140   2.529   7.399 -1.7546  1.2031 -1.4209
31749SOL     OW95824   7.494   1.991   9.325  0.3895  0.0793 -0.0134
31749SOL    HW195825   7.538   1.920   9.279  3.3107  1.9808 -0.3714
31749SOL    HW295826   7.420   1.948   9.368  0.8358 -2.7870 -1.7837
31750SOL     OW95827   7.856   4.896   9.078 -0.3062  0.3736  0.5495
31750SOL    HW195828   7.914   4.906   9.153  0.5642 -2.8228  0.4660
31750SOL    HW295829   7.771   4.873   9.116 -0.3390  0.5815  0.6001
31751SOL     OW95830   7.994   7.631   5.496  0.2183  0.4777  0.0353
31751SOL    HW195831   8.055   7.592   5.558  1.4509  1.6074 -0.4136
31751SOL    HW295832   7.988   7.723   5.522  0.3518  0.8520 -1.1726
31752SOL     OW95833   6.273   2.008   2.007  0.5939  0.6865 -0.4462
31752SOL    HW195834   6.229   2.083   2.048 -2.6924 -0.7405 -0.9974
31752SOL    HW295835   6.261   1.937   2.070  0.6155 -0.1426 -1.3551
31753SOL     OW95836   5.288   0.350   0.859 -0.1495 -0.1561 -0.0970
31753SOL    HW195837   5.298   0.266   0.814 -2.4435 -0.8465  0.5668
31753SOL    HW295838   5.333   0.338   0.942  0.7459 -0.2107 -0.5730
31754SOL     OW95839   7.804   9.780   1.044  0.2083  0.6092 -0.6004
31754SOL    HW195840   7.744   9.849   1.015 -0.7528  1.2041  2.4502
31754SOL    HW295841   7.865   9.824   1.102  1.6736 -0.5742 -1.1889
31755SOL     OW95842   8.156   5.378   3.117 -0.1450 -0.4630 -0.5773
31755SOL    HW195843   8.125   5.406   3.031  1.2854  1.7908 -0.4481
31755SOL    HW295844   8.245   5.347   3.102 -0.7080 -2.3859 -0.2288
31756SOL     OW95845   4.998   1.893   8.771  0.1520 -0.0918 -0.6759
31756SOL    HW195846   5.082   1.939   8.765 -0.5478  0.9936 -3.4108
31756SOL    HW295847   4.937   1.948   8.722 -2.0988 -1.0727  0.8828
31757SOL     OW95848   6.388   8.552   2.960 -0.1451 -0.1341 -0.1374
31757SOL    HW195849   6.304   8.505   2.961 -1.3906  1.9805 -0.5873
31757SOL    HW295850   6.421   8.541   2.871 -0.9716  0.7095 -0.5612
31758SOL     OW95851   4.962   1.607   1.734 -0.2083  0.3109  0.2551
31758SOL    HW195852   4.978   1.593   1.827 -1.3004 -0.0834  0.3978
31758SOL    HW295853   4.942   1.520   1.700  0.3611  0.4228 -0.3915
31759SOL     OW95854   5.737   6.577   5.460 -0.0508 -0.2292  0.2192
31759SOL    HW195855   5.744   6.492   5.416  0.6360 -0.0591 -0.0282
31759SOL    HW295856   5.825   6.614   5.452 -0.3962  0.5871  0.1552
31760SOL     OW95857   2.465   5.894   8.392  0.2379 -0.0750 -0.0585
31760SOL    HW195858   2.546   5.944   8.385  0.8641 -1.0228  0.2774
31760SOL    HW295859   2.469   5.831   8.321 -1.1918  1.1984 -1.3487
31761SOL     OW95860   6.066   0.979   0.777 -0.3730  0.3396  0.3545
31761SOL    HW195861   6.152   0.938   0.769 -1.4464 -1.9070 -0.9037
31761SOL    HW295862   6.065   1.016   0.865  1.1078 -1.5269  1.2323
31762SOL     OW95863   7.816   2.343   8.820  0.1683  0.6041  0.7102
31762SOL    HW195864   7.809   2.249   8.807 -1.3843  0.5874  1.4314
31762SOL    HW295865   7.839   2.352   8.913 -0.6626  0.9383  0.8908
31763SOL     OW95866   8.428   3.859   5.438 -0.0015  0.1454  0.3484
31763SOL    HW195867   8.483   3.797   5.389 -0.2743  0.2152 -0.0469
31763SOL    HW295868   8.489   3.924   5.471  0.0725  0.5905 -0.6468
31764SOL     OW95869   6.707   9.927   1.768  0.3244 -0.0534 -0.5003
31764SOL    HW195870   6.696  10.002   1.709 -0.9856  2.1812  2.3030
31764SOL    HW295871   6.618   9.898   1.786  0.6563 -0.3499  0.7293
31765SOL     OW95872   0.668   8.212   9.336 -0.2537 -0.4513 -0.3667
31765SOL    HW195873   0.650   8.240   9.426 -0.2769  1.4329 -0.9252
31765SOL    HW295874   0.592   8.157   9.313 -0.0062 -1.3927  0.8947
31766SOL     OW95875   4.970   4.033   5.436  0.2983 -0.2926 -0.1103
31766SOL    HW195876   5.029   3.958   5.442 -0.0257 -0.5887 -0.5978
31766SOL    HW295877   4.889   4.003   5.477 -0.3056 -0.6966 -1.5481
31767SOL     OW95878   0.294   6.956   9.208 -0.6646 -0.4027 -0.2757
31767SOL    HW195879   0.289   7.046   9.240 -0.3495 -0.4428 -0.1044
31767SOL    HW295880   0.343   6.909   9.276 -1.7790 -0.9547  0.1692
31768SOL     OW95881   8.024   8.553   1.629 -0.3162  0.2255  0.5021
31768SOL    HW195882   8.097   8.503   1.664 -0.2967 -0.5459 -0.5924
31768SOL    HW295883   7.992   8.604   1.703  0.8818  0.0471  1.1687
31769SOL     OW95884   8.832   1.694   9.138 -0.4130  0.8530  0.3153
31769SOL    HW195885   8.803   1.784   9.148 -2.9812  0.1805 -0.1434
31769SOL    HW295886   8.857   1.687   9.046  0.1601  1.1803  0.4448
31770SOL     OW95887   4.122   5.219   2.621  0.1756 -0.0109  0.5816
31770SOL    HW195888   4.055   5.151   2.621  0.0716  0.0388 -1.1310
31770SOL    HW295889   4.118   5.257   2.709 -0.5759 -1.4050  1.1841
31771SOL     OW95890   7.075   1.755   1.069 -0.0241  0.1598 -0.2933
31771SOL    HW195891   7.019   1.823   1.030 -0.5381 -0.1512 -0.0982
31771SOL    HW295892   7.023   1.675   1.066  0.3567 -0.1067  0.0241
31772SOL     OW95893   2.926   7.707   9.226 -0.7831 -0.2910  0.0611
31772SOL    HW195894   2.951   7.733   9.314  1.1906 -2.0262  0.0907
31772SOL    HW295895   2.916   7.789   9.178  0.5990  0.6170  1.2612
31773SOL     OW95896   6.612   3.441   6.866  0.4562  0.1676 -0.3086
31773SOL    HW195897   6.581   3.418   6.953 -1.9612 -2.0405 -1.6471
31773SOL    HW295898   6.695   3.394   6.857  0.6172  0.2374  0.6947
31774SOL     OW95899   8.257   0.474   4.168  0.8456  0.2812  0.5853
31774SOL    HW195900   8.168   0.439   4.167  0.8179  0.3056  1.5169
31774SOL    HW295901   8.254   0.545   4.232  1.4227  0.5984  0.2683
31775SOL     OW95902   3.259   5.857   9.263  0.2527  0.8193 -0.1338
31775SOL    HW195903   3.205   5.895   9.332  1.4177  1.8608  0.2378
31775SOL    HW295904   3.345   5.898   9.275  0.7188  0.3256 -1.6369
31776SOL     OW95905   9.378   7.002   4.017  0.4528  0.1654 -0.1758
31776SOL    HW195906   9.473   7.013   4.025  0.7237  0.7079 -3.0596
31776SOL    HW295907   9.345   7.088   3.991 -0.5747 -0.4268 -0.9283
31777SOL     OW95908   9.144   4.797   1.227  0.0897 -0.3864 -0.5453
31777SOL    HW195909   9.092   4.718   1.211 -0.1424 -0.4026  0.2365
31777SOL    HW295910   9.104   4.864   1.171  0.6691 -0.9550 -1.6797
31778SOL     OW95911   2.152   1.041   3.474  0.5591  0.6044 -0.8050
31778SOL    HW195912   2.155   0.980   3.548  0.4290  1.7139  0.1373
31778SOL    HW295913   2.070   1.020   3.430 -0.6369  1.5927  0.8535
31779SOL     OW95914   7.866   8.717   3.240 -0.6105 -0.0199 -0.3543
31779SOL    HW195915   7.884   8.638   3.291 -1.0007  2.2602  3.8181
31779SOL    HW295916   7.951   8.743   3.204  0.1529 -0.7649  0.8456
31780SOL     OW95917   8.301   8.834   4.253  0.6433 -0.2915  0.3780
31780SOL    HW195918   8.238   8.802   4.189  0.6960 -0.7811  0.5646
31780SOL    HW295919   8.368   8.766   4.256  2.3899  1.2069 -1.4927
31781SOL     OW95920   3.829   7.820   8.555  0.7742  0.1175 -0.2892
31781SOL    HW195921   3.843   7.783   8.642  0.8842 -0.9949 -0.7591
31781SOL    HW295922   3.769   7.759   8.513 -0.0012  1.1385 -0.6885
31782SOL     OW95923   8.037   3.540   2.600 -0.4705 -0.2152  0.2384
31782SOL    HW195924   8.057   3.497   2.683  3.2896  1.3236  0.2986
31782SOL    HW295925   8.051   3.633   2.616 -2.5375  0.4726 -1.4291
31783SOL     OW95926   9.848   4.105   7.601  0.4121 -0.0013 -0.2628
31783SOL    HW195927   9.763   4.145   7.615  1.4590  1.5499  2.4229
31783SOL    HW295928   9.892   4.162   7.539 -0.0134 -0.0361 -0.5965
31784SOL     OW95929   4.865   1.469   2.865  0.0291 -0.0491 -0.1805
31784SOL    HW195930   4.888   1.561   2.869 -0.5902  0.0705  0.7837
31784SOL    HW295931   4.949   1.423   2.858  0.3817  0.5305  0.2155
31785SOL     OW95932   2.602   9.245   1.133 -0.1747  0.5533 -0.4067
31785SOL    HW195933   2.689   9.224   1.167 -1.2111 -1.8515  1.0416
31785SOL    HW295934   2.545   9.241   1.210 -1.6946  1.2687 -1.4506
31786SOL     OW95935   3.700   1.645   4.900 -0.2788  0.4361  0.2568
31786SOL    HW195936   3.699   1.741   4.895 -0.0892  0.6750  3.1135
31786SOL    HW295937   3.793   1.622   4.900 -0.3289  0.1622 -1.0706
31787SOL     OW95938   4.079   1.538   6.206  0.2053  1.0354 -0.4147
31787SOL    HW195939   4.048   1.614   6.256 -1.2660  0.5071 -0.4820
31787SOL    HW295940   4.003   1.480   6.201  1.1213 -0.1501 -0.9351
31788SOL     OW95941   2.376   6.137   8.734 -0.3867  0.4549  0.3143
31788SOL    HW195942   2.380   6.202   8.664  0.0298 -1.2413 -1.3236
31788SOL    HW295943   2.297   6.087   8.716  0.0926 -0.4412  0.6477
31789SOL     OW95944   1.569   2.461   1.614  0.2994  0.0334 -0.5649
31789SOL    HW195945   1.560   2.401   1.688 -2.9073 -0.5332 -1.2692
31789SOL    HW295946   1.586   2.546   1.654 -0.8258 -0.3561  0.8297
31790SOL     OW95947   4.114   3.414   5.322 -0.4095 -0.5105 -0.0484
31790SOL    HW195948   4.136   3.452   5.237  1.5523 -1.2345  0.0825
31790SOL    HW295949   4.021   3.433   5.333 -0.4181  0.7145 -1.7663
31791SOL     OW95950   9.208   5.565   3.595  0.1593 -0.4549 -0.2397
31791SOL    HW195951   9.218   5.481   3.548 -1.0899 -0.8866  0.2382
31791SOL    HW295952   9.147   5.546   3.666 -0.1258  0.8713 -0.1058
31792SOL     OW95953   7.397   3.674   6.609  0.3298  0.1743  0.3151
31792SOL    HW195954   7.481   3.692   6.650  0.0814 -2.0082  1.9276
31792SOL    HW295955   7.352   3.759   6.609  2.3303  1.2914 -0.2115
31793SOL     OW95956   4.865   0.110   3.104 -0.1052  0.3983  0.2575
31793SOL    HW195957   4.778   0.070   3.098  0.7671 -1.7015  0.4126
31793SOL    HW295958   4.915   0.068   3.034  0.8739  1.3153  0.3835
31794SOL     OW95959   4.337   4.600   6.178  0.2679 -0.1033 -0.2528
31794SOL    HW195960   4.299   4.606   6.265  1.5357  0.1382  0.3072
31794SOL    HW295961   4.309   4.680   6.133  0.4596  0.2791  0.2972
31795SOL     OW95962   5.833   5.406   3.135 -0.4175  0.1108 -0.2197
31795SOL    HW195963   5.925   5.379   3.141 -0.1661  0.3900 -2.2272
31795SOL    HW295964   5.814   5.444   3.221  0.4150 -2.6407  1.3016
31796SOL     OW95965   8.818   9.141   8.899  0.4559  0.2205 -0.4628
31796SOL    HW195966   8.751   9.178   8.956  0.8552  0.5883 -0.2199
31796SOL    HW295967   8.872   9.087   8.957 -0.6090 -1.4542 -0.9630
31797SOL     OW95968   5.405   7.978   9.783 -0.6154  0.0302 -0.6107
31797SOL    HW195969   5.426   8.071   9.787 -1.7723  0.2479  0.7394
31797SOL    HW295970   5.342   7.963   9.853  0.2185 -1.9572 -0.2090
31798SOL     OW95971   9.889   6.551   7.411  0.0116 -0.3043 -0.7411
31798SOL    HW195972   9.811   6.551   7.466  0.4943  0.5400 -0.0322
31798SOL    HW295973   9.858   6.581   7.326 -0.7050 -1.4329 -0.9042
31799SOL     OW95974   1.432   4.069   6.331  0.4050 -0.3697 -0.0053
31799SOL    HW195975   1.382   4.014   6.391  1.6695 -0.4036  1.0768
31799SOL    HW295976   1.406   4.039   6.244  0.4785 -2.1841  0.5409
31800SOL     OW95977   9.509   4.622   1.883 -0.5808 -0.7335 -0.1092
31800SOL    HW195978   9.427   4.640   1.837 -1.2706 -1.5220  0.7776
31800SOL    HW295979   9.542   4.708   1.908 -1.5725 -0.4489  0.2591
31801SOL     OW95980   1.681   8.806   7.548 -0.2030 -0.1521 -0.1559
31801SOL    HW195981   1.648   8.896   7.547 -0.5875 -0.2896 -1.1927
31801SOL    HW295982   1.604   8.752   7.532 -0.1142 -0.7412  1.2512
31802SOL     OW95983   6.070   0.918   4.899  0.1450 -0.1052  0.0357
31802SOL    HW195984   6.059   0.887   4.988  1.5824  0.5511  0.4725
31802SOL    HW295985   6.047   1.011   4.903  2.9572  0.6730  0.4339
31803SOL     OW95986   1.728   8.793   2.712  0.1153 -0.3317 -0.4569
31803SOL    HW195987   1.706   8.700   2.717  0.0727 -0.3651 -1.1691
31803SOL    HW295988   1.688   8.831   2.790 -2.2639 -0.4473 -1.5373
31804SOL     OW95989   1.796   4.523   7.759 -0.3023 -0.4180 -0.2216
31804SOL    HW195990   1.710   4.564   7.769 -0.5831 -0.7938 -0.9926
31804SOL    HW295991   1.803   4.505   7.665  0.7943 -0.0051 -0.2389
31805SOL     OW95992   6.566   1.191   6.008  0.1492  0.1640  0.6329
31805SOL    HW195993   6.523   1.226   5.930  0.2747 -1.7804 -0.3689
31805SOL    HW295994   6.644   1.146   5.974  0.1751 -0.7817  1.8672
31806SOL     OW95995   2.743   2.518   1.428 -0.0755 -0.4835  0.0667
31806SOL    HW195996   2.685   2.545   1.357 -0.1957  0.0188  0.3544
31806SOL    HW295997   2.828   2.556   1.405 -0.0323 -0.6058  0.0209
31807SOL     OW95998   8.534   4.292   5.703 -0.3446  0.2262  0.1508
31807SOL    HW195999   8.557   4.357   5.636 -0.5700 -0.5451 -0.7105
31807SOL    HW296000   8.618   4.265   5.740 -0.3232  1.8421  1.3668
31808SOL     OW96001   8.948   3.052   6.456  0.3149  0.0150  0.5672
31808SOL    HW196002   8.953   3.053   6.361  0.1599 -2.2133  0.4849
31808SOL    HW296003   9.030   3.011   6.484 -0.0214 -0.1552  1.3291
31809SOL     OW96004   4.287   0.725   7.862 -0.6254  0.1245  0.2393
31809SOL    HW196005   4.256   0.735   7.772  1.5107  3.0247 -0.3254
31809SOL    HW296006   4.227   0.778   7.915  0.1459  1.3193 -0.0508
31810SOL     OW96007   5.080   7.303   0.239 -0.4802 -0.0306  0.0082
31810SOL    HW196008   5.150   7.363   0.262 -0.7584  0.2365  0.1707
31810SOL    HW296009   5.086   7.294   0.144 -0.0961 -0.1764  0.0435
31811SOL     OW96010   3.168   5.391   8.615  0.2444 -0.0757  0.2786
31811SOL    HW196011   3.146   5.299   8.626  0.8909 -0.4789 -1.4206
31811SOL    HW296012   3.209   5.417   8.698 -0.1124 -1.2583  0.8400
31812SOL     OW96013   8.179   5.155   7.176  0.4597 -0.1464 -0.2009
31812SOL    HW196014   8.251   5.132   7.235  1.2044  0.4649 -0.8390
31812SOL    HW296015   8.216   5.144   7.088  0.1130  1.1741 -0.5328
31813SOL     OW96016   9.511   4.076   7.987 -0.2981  0.4997  0.1279
31813SOL    HW196017   9.444   4.141   8.005 -0.7955  0.5031 -1.5788
31813SOL    HW296018   9.489   4.003   8.045 -0.9925  1.0093  0.5238
31814SOL     OW96019   2.778   4.224   3.128  0.1595  0.8257 -0.0377
31814SOL    HW196020   2.713   4.176   3.077  0.3807  1.7322 -1.2013
31814SOL    HW296021   2.852   4.235   3.069 -0.0563  2.9766  0.0375
31815SOL     OW96022   7.349   0.132   8.434 -0.0392  0.0551  0.5937
31815SOL    HW196023   7.350   0.178   8.349 -0.0474  1.1933  1.1864
31815SOL    HW296024   7.384   0.045   8.414  1.6382  0.8775 -0.2757
31816SOL     OW96025   0.097   1.691   4.653  0.3235 -0.6641  0.5589
31816SOL    HW196026   0.088   1.660   4.563  1.3620 -0.9605  0.5440
31816SOL    HW296027   0.175   1.646   4.686  0.9721  0.7607  1.0397
31817SOL     OW96028   6.936   4.077   0.236  0.4532  0.1542 -0.2231
31817SOL    HW196029   6.871   4.070   0.307  0.4792 -3.5140 -0.3553
31817SOL    HW296030   7.016   4.105   0.280 -0.0361 -0.0440  0.8357
31818SOL     OW96031   5.117   9.917   4.161 -0.2316  0.3007  0.3244
31818SOL    HW196032   5.060   9.991   4.186  0.8145  1.2264  0.0446
31818SOL    HW296033   5.079   9.842   4.206 -2.4778  0.5975 -0.8890
31819SOL     OW96034   0.439   4.890   7.994 -0.5152 -0.0524 -0.5329
31819SOL    HW196035   0.489   4.827   7.942  0.8755  0.0732  0.5726
31819SOL    HW296036   0.475   4.975   7.971 -0.6777  0.1069 -0.2145
31820SOL     OW96037   3.907   4.527   9.373  0.0675  0.0722 -0.0686
31820SOL    HW196038   3.861   4.567   9.299  0.0284 -0.1249 -0.1519
31820SOL    HW296039   3.987   4.580   9.382  0.2904 -0.1724 -0.5405
31821SOL     OW96040   9.971   6.588   1.133 -0.2064 -0.4188 -0.0240
31821SOL    HW196041   9.910   6.662   1.143 -1.5649 -1.0909 -2.4526
31821SOL    HW296042   9.991   6.586   1.040  2.7744 -0.9130  0.5376
31822SOL     OW96043   3.411   8.294   2.035  0.2148 -0.3546 -0.0021
31822SOL    HW196044   3.504   8.295   2.011  0.4527 -1.6687  0.7951
31822SOL    HW296045   3.410   8.272   2.128 -0.9164 -1.0186 -0.1520
31823SOL     OW96046   5.358   6.968   6.581  0.1438 -0.1342 -0.7690
31823SOL    HW196047   5.341   7.020   6.503  0.4877 -0.5353 -1.1155
31823SOL    HW296048   5.368   6.879   6.549 -1.7346 -0.6582 -0.0483
31824SOL     OW96049   8.594   4.768   8.465  0.6351 -0.4688 -0.9548
31824SOL    HW196050   8.614   4.793   8.555  1.7278 -3.8389 -0.0711
31824SOL    HW296051   8.526   4.701   8.474 -0.9146  0.7398 -2.9012
31825SOL     OW96052   4.763   0.702   1.866  0.3019 -0.0909  0.0741
31825SOL    HW196053   4.855   0.697   1.843  0.1997  1.0599 -0.6163
31825SOL    HW296054   4.721   0.633   1.814  0.5425  0.4346 -0.8368
31826SOL     OW96055   8.350   8.513   9.148  0.4666  0.3966 -0.1047
31826SOL    HW196056   8.278   8.495   9.087  1.0829  2.3031 -1.4842
31826SOL    HW296057   8.429   8.495   9.098  1.0057  2.7977 -0.2111
31827SOL     OW96058   6.407   3.470   1.653  0.3113 -0.1029  0.4854
31827SOL    HW196059   6.452   3.392   1.687  0.9570 -0.1856 -0.5109
31827SOL    HW296060   6.324   3.436   1.619  0.4592 -0.3188  0.3308
31828SOL     OW96061   8.023   5.825   1.172 -0.4027  0.7405  0.0201
31828SOL    HW196062   8.048   5.736   1.199  0.9951  1.4840  1.3332
31828SOL    HW296063   8.020   5.821   1.077  1.3813 -0.3033 -0.0420
31829SOL     OW96064   3.800   5.486   3.039  0.2518  0.4352  0.2859
31829SOL    HW196065   3.742   5.412   3.057  1.0354 -0.8135 -2.0278
31829SOL    HW296066   3.779   5.512   2.949  1.2177  1.9119  0.4553
31830SOL     OW96067   3.810   4.514   2.678  0.2216 -0.6006  0.2430
31830SOL    HW196068   3.732   4.458   2.685  0.5263 -0.9228  1.1839
31830SOL    HW296069   3.884   4.453   2.679  0.5554 -0.1992  1.1357
31831SOL     OW96070   8.426   8.299   5.336  0.1792  0.6216 -0.4302
31831SOL    HW196071   8.511   8.329   5.303  0.0536  1.4704 -0.0190
31831SOL    HW296072   8.435   8.303   5.431 -0.3045  0.6844 -0.3848
31832SOL     OW96073   8.813   5.053   9.309 -0.0046  0.1072 -0.0963
31832SOL    HW196074   8.774   5.139   9.314 -1.6469 -0.5293 -1.1239
31832SOL    HW296075   8.740   4.994   9.292  1.0570 -1.5143  0.7031
31833SOL     OW96076   3.944   4.284   1.062  0.3894 -0.0951 -0.6485
31833SOL    HW196077   3.965   4.274   0.969  0.9713 -1.4043 -0.3988
31833SOL    HW296078   3.849   4.274   1.067  0.1860  1.3531 -1.2508
31834SOL     OW96079   2.767   7.674   0.923  0.0742  0.6978 -0.0481
31834SOL    HW196080   2.710   7.750   0.938 -0.9518 -0.3801  1.8433
31834SOL    HW296081   2.715   7.616   0.868  0.4651  0.8997 -0.6434
31835SOL     OW96082   6.642   0.540   8.962  0.2250 -0.0716  0.4018
31835SOL    HW196083   6.557   0.548   8.918  1.8670  0.5915 -3.0078
31835SOL    HW296084   6.669   0.631   8.978  0.2370 -0.2825  1.6557
31836SOL     OW96085   0.956   0.535   5.300  0.3851  0.0412  0.2868
31836SOL    HW196086   1.045   0.547   5.336  0.1888  0.6499  0.5922
31836SOL    HW296087   0.922   0.459   5.346  0.7068 -0.1207  0.2595
31837SOL     OW96088   7.271   6.996   8.850  0.1117 -0.0989  0.5097
31837SOL    HW196089   7.300   7.014   8.761  1.3991 -0.9175  0.7428
31837SOL    HW296090   7.343   7.027   8.906 -0.3073 -0.3721  1.2188
31838SOL     OW96091   0.590   9.384   1.440 -0.7949 -0.1676  0.0445
31838SOL    HW196092   0.524   9.409   1.504  0.6247  1.2317  0.9956
31838SOL    HW296093   0.568   9.435   1.362  0.9254  2.7983  1.3492
31839SOL     OW96094   3.681   3.079   7.736  0.6734  0.3702  0.2821
31839SOL    HW196095   3.694   3.040   7.822 -0.6916  1.5148  1.0518
31839SOL    HW296096   3.729   3.162   7.740 -1.1463  1.4673  0.7799
31840SOL     OW96097   8.998   3.116   8.158 -0.2250 -0.5281  0.2904
31840SOL    HW196098   8.943   3.117   8.080  0.9199 -2.4837 -0.6432
31840SOL    HW296099   9.030   3.026   8.163  1.3403  0.0557  1.8875
31841SOL     OW96100   8.968   8.200   0.026 -0.0555 -0.4105 -0.8592
31841SOL    HW196101   8.895   8.170   0.079 -0.6723  1.8973 -0.2812
31841SOL    HW296102   8.958   8.295   0.022  2.1268 -0.1462 -1.9512
31842SOL     OW96103   6.709   5.906   7.516 -0.3018 -0.0936 -0.1869
31842SOL    HW196104   6.779   5.914   7.581 -0.3927  2.3875 -0.2758
31842SOL    HW296105   6.660   5.828   7.542  0.8387 -0.2793  1.5555
31843SOL     OW96106   6.450   2.913   4.097 -0.6683  0.2518 -0.3824
31843SOL    HW196107   6.355   2.912   4.110 -0.4795  0.4000  1.1877
31843SOL    HW296108   6.469   2.830   4.054 -1.6121  0.6798 -1.7010
31844SOL     OW96109   0.584   1.875   3.396 -0.9052 -0.5367 -0.5982
31844SOL    HW196110   0.596   1.841   3.307  1.7352 -0.3447 -0.3958
31844SOL    HW296111   0.669   1.861   3.439 -1.4829  1.1793  1.2795
31845SOL     OW96112   6.810   1.584   0.280  0.5978  0.0323  0.0325
31845SOL    HW196113   6.805   1.506   0.335  0.4636  1.2464  1.8499
31845SOL    HW296114   6.834   1.552   0.193  1.3836 -1.9183  0.9298
31846SOL     OW96115   4.678   6.486   7.060  0.3099 -0.3543  0.4205
31846SOL    HW196116   4.753   6.438   7.025  0.4030  0.1802 -0.1134
31846SOL    HW296117   4.610   6.478   6.993  0.9514  1.8581 -0.5550
31847SOL     OW96118   2.378   4.643   1.275  0.1368 -0.4960 -0.2002
31847SOL    HW196119   2.428   4.659   1.195 -0.6005  1.6722 -0.3023
31847SOL    HW296120   2.441   4.604   1.335  0.8550 -1.6367 -1.6400
31848SOL     OW96121   6.774   7.733   2.915 -0.2354  0.5679  0.1453
31848SOL    HW196122   6.738   7.645   2.924  0.7945 -0.0122 -1.0583
31848SOL    HW296123   6.747   7.778   2.995 -1.6763 -0.5024  0.3079
31849SOL     OW96124   8.584   4.554   3.739 -0.0827  0.1730  0.4795
31849SOL    HW196125   8.664   4.575   3.787  1.4178 -0.8876 -1.4019
31849SOL    HW296126   8.565   4.463   3.762  0.9027 -0.4960 -1.1395
31850SOL     OW96127   6.026   4.718   9.573  0.1233 -0.6202  0.8396
31850SOL    HW196128   6.109   4.765   9.576  0.2378 -0.8578  2.4129
31850SOL    HW296129   6.044   4.640   9.520  0.3251  0.3420 -0.5420
31851SOL     OW96130   2.501   7.763   6.034  0.0296  0.4973  0.4185
31851SOL    HW196131   2.528   7.675   6.011 -2.3822  0.0920 -1.3030
31851SOL    HW296132   2.545   7.819   5.971 -1.7730 -0.0091 -1.4135
31852SOL     OW96133   7.006   1.711   8.926  0.3737  0.1997  0.2772
31852SOL    HW196134   7.085   1.684   8.880  0.0657 -1.0216  0.4213
31852SOL    HW296135   7.024   1.691   9.018  0.0796  0.3497  0.3683
31853SOL     OW96136   6.015   0.634   7.006 -0.6186  0.0277 -0.1375
31853SOL    HW196137   6.083   0.607   6.944 -0.9895 -1.5984  0.1209
31853SOL    HW296138   6.061   0.691   7.068 -0.2804  1.8385 -1.9652
31854SOL     OW96139   4.776   9.479   8.377 -0.1425 -0.0412 -0.4639
31854SOL    HW196140   4.686   9.486   8.409  0.3536  0.4481  0.9149
31854SOL    HW296141   4.794   9.385   8.379  0.0589 -0.0076  1.3647
31855SOL     OW96142   6.233   3.434   9.041  0.0672  0.1766 -0.6682
31855SOL    HW196143   6.177   3.364   9.075  0.6850 -0.0697 -0.1643
31855SOL    HW296144   6.179   3.476   8.974 -1.1825  0.6850  0.6049
31856SOL     OW96145   0.131   2.327   8.079 -0.4378  0.0172  0.2045
31856SOL    HW196146   0.174   2.412   8.092  1.0602 -1.0347  3.2652
31856SOL    HW296147   0.202   2.270   8.050 -1.6586 -0.0694 -2.9472
31857SOL     OW96148   9.462   6.645   9.321 -0.0113  0.1504 -0.1205
31857SOL    HW196149   9.482   6.723   9.373  0.6023 -0.5342  0.6888
31857SOL    HW296150   9.542   6.628   9.272  0.3773 -0.8268  0.8280
31858SOL     OW96151   8.562   9.682   3.810  0.0971  0.1714 -0.1156
31858SOL    HW196152   8.588   9.763   3.852  1.0357 -0.8580  1.3852
31858SOL    HW296153   8.630   9.619   3.835 -1.2314 -1.3690 -0.2239
31859SOL     OW96154   4.696   9.344   9.202 -0.1343  0.6151 -0.2362
31859SOL    HW196155   4.780   9.303   9.223  0.5566  2.3897  0.6301
31859SOL    HW296156   4.715   9.437   9.197 -2.2229  1.1866  1.0076
31860SOL     OW96157   9.530   7.771   8.998 -0.7802 -0.2610 -0.3763
31860SOL    HW196158   9.600   7.706   8.991 -0.8153 -0.2186 -1.3004
31860SOL    HW296159   9.564   7.847   8.951 -1.0005  0.1593  0.1408
31861SOL     OW96160   8.802   5.705   9.403 -0.3596 -0.1448 -0.3221
31861SOL    HW196161   8.865   5.685   9.473  0.4440 -0.0325 -0.9955
31861SOL    HW296162   8.719   5.669   9.434 -0.3481  1.0640  1.3158
31862SOL     OW96163   9.703   1.671   0.731 -0.3380 -0.3658  0.2106
31862SOL    HW196164   9.689   1.611   0.658  0.0697  0.9242 -0.9616
31862SOL    HW296165   9.786   1.643   0.770 -0.0928 -0.4873 -0.3945
31863SOL     OW96166   6.729   1.658   6.563 -0.2241  0.1545 -0.2627
31863SOL    HW196167   6.824   1.645   6.562 -0.4475 -2.0076  0.7976
31863SOL    HW296168   6.709   1.682   6.654 -0.9185 -1.8931  0.1694
31864SOL     OW96169   9.952   0.749   8.481 -0.4909 -0.3743 -0.1241
31864SOL    HW196170   9.965   0.698   8.561 -0.6195 -0.4074 -0.1238
31864SOL    HW296171   9.872   0.799   8.497 -0.2924 -0.0686 -0.0718
31865SOL     OW96172   6.004   5.407   0.632  0.4553  0.5729 -0.1326
31865SOL    HW196173   5.990   5.369   0.719 -0.0055  0.3294 -0.3092
31865SOL    HW296174   6.081   5.361   0.598 -1.6533 -2.2980 -1.4691
31866SOL     OW96175   9.839   8.111   4.546  0.0099  0.1212  0.5742
31866SOL    HW196176   9.770   8.056   4.584 -1.0072 -0.4045 -1.8622
31866SOL    HW296177   9.902   8.049   4.510  0.5206  0.5889  0.6519
31867SOL     OW96178   4.332   9.927   4.355 -0.2864  0.4462 -0.5257
31867SOL    HW196179   4.402   9.862   4.357  0.9687  1.7324  1.4564
31867SOL    HW296180   4.256   9.880   4.320  1.6645 -0.8293 -3.5033
31868SOL     OW96181   1.291   0.695   5.232 -0.1966 -0.9033 -0.2236
31868SOL    HW196182   1.241   0.670   5.310 -1.5740  3.0599  0.3495
31868SOL    HW296183   1.225   0.714   5.166  0.5468  1.9675 -0.2655
31869SOL     OW96184   1.800   3.920   9.446 -0.0002  0.3902 -0.1051
31869SOL    HW196185   1.891   3.941   9.422  1.5611 -2.2139  2.7059
31869SOL    HW296186   1.771   3.994   9.499  1.2935  0.4266  0.6093
31870SOL     OW96187   0.429   8.889   8.845  0.7027 -0.2734 -0.1410
31870SOL    HW196188   0.512   8.916   8.805  0.8369 -0.3507  0.0835
31870SOL    HW296189   0.364   8.904   8.776  0.7915  0.4959 -0.0745
31871SOL     OW96190   3.088   1.028   2.878  0.2336  0.2627 -0.0454
31871SOL    HW196191   3.167   1.074   2.906 -0.2314  1.1649 -0.1701
31871SOL    HW296192   3.030   1.033   2.954  0.1731 -0.1116 -0.0660
31872SOL     OW96193   5.216   4.295   5.825 -0.6777  0.1540  0.0046
31872SOL    HW196194   5.145   4.328   5.769 -0.1924  0.3015 -0.5333
31872SOL    HW296195   5.179   4.293   5.913 -1.2261  0.5949 -0.2155
31873SOL     OW96196   8.710   3.966   5.225 -0.1562 -0.1180 -0.0590
31873SOL    HW196197   8.724   3.871   5.224  0.1662 -0.0755  0.1529
31873SOL    HW296198   8.619   3.977   5.252 -0.3781 -0.3844 -0.6806
31874SOL     OW96199   7.296   6.539   8.180  0.0744  0.2173  0.4708
31874SOL    HW196200   7.337   6.590   8.249  0.7075 -1.5387  1.4679
31874SOL    HW296201   7.223   6.593   8.149  1.0764  1.9401  1.0263
31875SOL     OW96202   4.569   1.625   3.309 -0.5357 -0.1989  0.3693
31875SOL    HW196203   4.515   1.687   3.260 -0.5022  0.1720  0.7867
31875SOL    HW296204   4.625   1.584   3.244 -1.6432 -0.9343 -0.1491
31876SOL     OW96205   0.687   2.445   7.645 -0.4322  0.2853 -0.0335
31876SOL    HW196206   0.760   2.393   7.612 -0.4446  0.3553 -0.1755
31876SOL    HW296207   0.707   2.535   7.618 -0.9172  0.2038 -0.6962
31877SOL     OW96208   6.966   1.152   3.499 -0.5111 -0.0573 -0.2707
31877SOL    HW196209   6.953   1.069   3.452  1.5813 -1.3444  1.2591
31877SOL    HW296210   7.032   1.198   3.447  0.7696 -0.8615  0.5960
31878SOL     OW96211   4.496   7.221   0.700  0.3267 -0.1384 -0.1896
31878SOL    HW196212   4.580   7.253   0.733  1.3315 -3.2528  0.6112
31878SOL    HW296213   4.468   7.156   0.765 -2.8756  0.9636 -0.3033
31879SOL     OW96214   7.706   3.015   1.825  0.0631 -0.7685  0.2752
31879SOL    HW196215   7.685   3.087   1.766  0.7440 -0.6372  0.1832
31879SOL    HW296216   7.740   3.057   1.904  2.4698 -0.9789 -0.5447
31880SOL     OW96217   2.435   5.830   7.884  0.2121  0.3242 -0.3840
31880SOL    HW196218   2.382   5.804   7.808  1.7749  0.8117 -1.7076
31880SOL    HW296219   2.483   5.750   7.907 -1.5509 -0.3289  1.2903
31881SOL     OW96220   9.943   2.541   9.477  0.0863 -0.1077 -0.3163
31881SOL    HW196221   9.887   2.464   9.469  0.0753 -0.1139 -0.1862
31881SOL    HW296222   9.887   2.607   9.517  1.2504 -1.3312  3.8339
31882SOL     OW96223   4.173   8.651   6.456 -0.2197 -0.0491  0.9258
31882SOL    HW196224   4.216   8.694   6.382 -0.9636 -0.1585  0.4258
31882SOL    HW296225   4.232   8.668   6.531 -0.5555  1.9605  0.7833
31883SOL     OW96226   3.567   0.280   1.334  0.3712 -0.0685  0.3330
31883SOL    HW196227   3.628   0.237   1.394 -1.8664 -0.8886  2.1984
31883SOL    HW296228   3.543   0.362   1.378  1.1100  0.9042 -1.0167
31884SOL     OW96229   4.734   6.919   7.287 -0.3922  0.2242 -0.3056
31884SOL    HW196230   4.694   6.858   7.225  1.5336  0.0135 -1.4298
31884SOL    HW296231   4.775   6.985   7.231  0.1750  0.8272  0.7990
31885SOL     OW96232   8.202   8.483   4.473 -0.1362 -0.1883 -0.2810
31885SOL    HW196233   8.202   8.388   4.463 -0.3495 -0.1987 -0.2013
31885SOL    HW296234   8.294   8.506   4.485 -0.1633 -0.4911  0.6143
31886SOL     OW96235   0.360   3.795   4.419 -0.4393 -0.0294  0.3474
31886SOL    HW196236   0.403   3.791   4.333 -1.4231 -0.4574 -0.1390
31886SOL    HW296237   0.357   3.888   4.440  1.4723 -0.0215  0.8007
31887SOL     OW96238   5.831   6.615   4.746  0.3296  0.3853 -0.1625
31887SOL    HW196239   5.828   6.585   4.655  1.4973  0.1335 -0.1281
31887SOL    HW296240   5.821   6.535   4.797 -1.3273  0.6368 -0.0443
31888SOL     OW96241   2.282   3.223   3.280  0.1422  0.1157  0.1015
31888SOL    HW196242   2.242   3.213   3.366  1.9842 -0.4081  0.9298
31888SOL    HW296243   2.286   3.318   3.266 -1.4010  0.1887 -0.0529
31889SOL     OW96244   9.962   6.280   4.528  0.6270  0.3703  0.0865
31889SOL    HW196245   9.924   6.293   4.441  0.2867 -2.0654 -0.1962
31889SOL    HW296246   9.993   6.189   4.527  1.9217  0.7439  2.0303
31890SOL     OW96247   9.085   9.102   9.650 -0.1183  0.3080 -0.0893
31890SOL    HW196248   9.029   9.159   9.596  0.2134 -0.3785 -1.1782
31890SOL    HW296249   9.032   9.086   9.729 -0.5422  1.4614 -0.1068
31891SOL     OW96250   1.891   7.055   7.642 -0.5831 -0.8007  0.1227
31891SOL    HW196251   1.966   7.042   7.700 -0.8893 -1.1072  0.4539
31891SOL    HW296252   1.917   7.129   7.586  0.4726 -1.6924 -0.6116
31892SOL     OW96253   0.877   7.505   8.614 -0.3410  0.2951 -0.0597
31892SOL    HW196254   0.898   7.432   8.673 -0.5289  1.1478  1.1052
31892SOL    HW296255   0.895   7.471   8.527 -0.0478 -1.0166  0.4815
31893SOL     OW96256   6.547   3.187   1.080  0.4612  0.2148 -0.0297
31893SOL    HW196257   6.590   3.155   1.001 -0.5198  0.3726 -0.6566
31893SOL    HW296258   6.525   3.108   1.129  1.2449  0.1261  0.1779
31894SOL     OW96259   7.567   2.827   4.664 -0.1078  0.1978 -0.3682
31894SOL    HW196260   7.554   2.886   4.590 -0.4718 -0.3286 -0.7375
31894SOL    HW296261   7.621   2.876   4.725  2.1552 -0.1552 -1.9675
31895SOL     OW96262   3.305   7.440   8.552  0.1591 -0.1596  0.1942
31895SOL    HW196263   3.337   7.372   8.611 -2.1146 -0.3679  1.2827
31895SOL    HW296264   3.302   7.397   8.466 -0.7095 -1.2802  0.7676
31896SOL     OW96265   6.934   1.189   1.703 -0.5981  0.2892 -0.3468
31896SOL    HW196266   6.897   1.217   1.787  1.1968 -0.2526  0.6848
31896SOL    HW296267   6.897   1.250   1.639 -2.3627  0.4399  0.7435
31897SOL     OW96268   8.679   4.132   6.769 -0.1450 -0.1168 -0.0412
31897SOL    HW196269   8.741   4.122   6.696  2.3985 -1.1826  2.1012
31897SOL    HW296270   8.703   4.215   6.809  1.0333 -1.2195  1.6902
31898SOL     OW96271   9.677   6.885   1.750 -0.1607  0.1474  0.2909
31898SOL    HW196272   9.670   6.829   1.672 -1.6626 -0.5573  0.9055
31898SOL    HW296273   9.739   6.839   1.807  2.0190  1.3217 -0.9548
31899SOL     OW96274   4.283   5.362   8.823 -0.2772 -0.1619 -0.2797
31899SOL    HW196275   4.223   5.430   8.792 -1.0935 -0.7733 -0.0646
31899SOL    HW296276   4.300   5.384   8.914  1.8450  1.4361 -0.9697
31900SOL     OW96277   3.327   1.423   0.237  0.1883  0.0928 -0.1530
31900SOL    HW196278   3.283   1.359   0.182  0.6796 -2.0900  1.8537
31900SOL    HW296279   3.267   1.498   0.239 -1.9067 -1.5089 -0.0902
31901SOL     OW96280   7.474   2.157   4.675 -0.8443 -0.3537 -0.3228
31901SOL    HW196281   7.537   2.115   4.616 -0.0150 -0.7696  0.8378
31901SOL    HW296282   7.524   2.177   4.754 -0.3428  5.2748 -1.5927
31902SOL     OW96283   9.560   0.515   9.161  0.5570 -0.8737 -0.2324
31902SOL    HW196284   9.548   0.504   9.066  0.6831 -0.7541 -0.2615
31902SOL    HW296285   9.478   0.482   9.198  0.6915 -1.3464 -0.3551
31903SOL     OW96286   5.698   0.353   0.237 -0.4268 -0.1170  0.3974
31903SOL    HW196287   5.747   0.434   0.224  0.1584 -0.6971 -1.2667
31903SOL    HW296288   5.615   0.381   0.277 -0.5756  1.3978 -0.8906
31904SOL     OW96289   0.878   6.635   3.608 -0.4006 -0.1556  0.4306
31904SOL    HW196290   0.858   6.727   3.590 -1.1480 -0.1751  1.0889
31904SOL    HW296291   0.801   6.588   3.576 -0.2445 -0.4997  0.5599
31905SOL     OW96292   5.110   2.456   5.957  0.0650  0.6759 -0.3663
31905SOL    HW196293   5.015   2.447   5.953  0.2471 -1.0892 -2.2941
31905SOL    HW296294   5.130   2.452   6.050 -1.6100 -1.0730 -0.0124
31906SOL     OW96295   3.512   1.382   6.583 -0.5183  0.2004 -0.6262
31906SOL    HW196296   3.589   1.438   6.572  0.0478  0.4232  3.2953
31906SOL    HW296297   3.546   1.302   6.623 -1.9459 -1.1241 -1.9268
31907SOL     OW96298   1.713   3.952   2.998  0.2599  0.3610  0.1310
31907SOL    HW196299   1.796   3.962   2.951  0.0837  0.1284 -0.2348
31907SOL    HW296300   1.704   4.033   3.048  0.1020  0.9244 -0.7861
31908SOL     OW96301   0.934   8.953   5.177  0.1875  0.1280  0.3524
31908SOL    HW196302   0.944   8.936   5.083  1.5163 -0.3006  0.5630
31908SOL    HW296303   1.009   9.007   5.200  0.0062  0.0148  1.2283
31909SOL     OW96304   9.940   5.437   7.085 -0.5334 -0.0269  0.0585
31909SOL    HW196305   9.948   5.481   7.001 -2.9030  1.1386  0.3819
31909SOL    HW296306   9.851   5.404   7.088 -0.1309 -1.1211  1.6316
31910SOL     OW96307   3.568   3.565   3.107  0.4199  0.7271  0.3167
31910SOL    HW196308   3.549   3.489   3.052  1.7639 -0.3203  1.2155
31910SOL    HW296309   3.545   3.640   3.053 -1.2863 -0.3042 -0.4774
31911SOL     OW96310   4.408   5.193   6.674  0.0260  0.0566  0.1970
31911SOL    HW196311   4.488   5.235   6.704 -0.1758  1.2085 -0.7753
31911SOL    HW296312   4.343   5.263   6.673  0.0451  0.1818 -2.9441
31912SOL     OW96313   7.180   2.343   9.649  0.1551  0.0928 -0.6244
31912SOL    HW196314   7.092   2.339   9.611  0.6181 -0.6147 -1.6516
31912SOL    HW296315   7.175   2.290   9.728  0.3600 -2.3595 -2.1662
31913SOL     OW96316   0.083   8.986   9.325  0.1701 -0.2154 -0.7983
31913SOL    HW196317   0.085   8.902   9.279  1.5966 -1.1750  0.8845
31913SOL    HW296318   0.175   9.002   9.349  0.0442  2.1873 -1.6466
31914SOL     OW96319   6.796   0.150   7.712  0.1224 -0.3880 -0.4543
31914SOL    HW196320   6.885   0.115   7.715 -0.3567 -1.6010  0.1243
31914SOL    HW296321   6.758   0.111   7.633 -0.3447 -1.0112  0.0729
31915SOL     OW96322   6.012   9.702   3.236 -0.3398 -0.6038 -0.3220
31915SOL    HW196323   6.023   9.634   3.170 -0.3852 -0.4038 -0.5347
31915SOL    HW296324   5.918   9.713   3.244 -0.3498 -1.0182  0.1765
31916SOL     OW96325   5.602   8.252   4.640 -0.2700 -0.5600  0.2762
31916SOL    HW196326   5.536   8.283   4.579  2.8735 -0.0228 -3.1911
31916SOL    HW296327   5.596   8.312   4.714 -2.0367  0.9758 -1.0256
31917SOL     OW96328   7.943   0.935   8.901  0.5121 -0.1356  0.1897
31917SOL    HW196329   7.858   0.978   8.897  0.9574  0.9828  1.7005
31917SOL    HW296330   8.002   0.996   8.856  0.8481  0.0702  0.8904
31918SOL     OW96331   6.854   9.833   7.064  0.0129 -0.2873  0.0851
31918SOL    HW196332   6.863   9.851   6.971  2.4135 -1.9126 -0.0793
31918SOL    HW296333   6.920   9.766   7.083 -2.5131 -2.4019  2.3224
31919SOL     OW96334   9.914   9.589   0.502  0.3155  0.4433  0.0567
31919SOL    HW196335   9.988   9.638   0.466 -0.3212  1.1706 -0.3004
31919SOL    HW296336   9.881   9.645   0.572 -1.6082  1.5286 -1.5814
31920SOL     OW96337   2.695   0.740   8.361  0.1458  0.3090 -0.3517
31920SOL    HW196338   2.642   0.666   8.389  0.7543 -0.1150 -0.3154
31920SOL    HW296339   2.674   0.809   8.424 -0.6363  0.2667 -0.5577
31921SOL     OW96340   5.567   0.314   4.179  0.3828 -0.2217  0.1429
31921SOL    HW196341   5.490   0.322   4.235  0.4720  1.3974  0.0807
31921SOL    HW296342   5.586   0.404   4.152  1.6095 -0.7337 -0.7726
31922SOL     OW96343   8.963   5.785   5.310  0.0411  0.2107 -0.1397
31922SOL    HW196344   8.928   5.702   5.278  0.2560  0.2636 -0.5133
31922SOL    HW296345   8.974   5.839   5.232 -0.5831  0.7805  0.1618
31923SOL     OW96346   2.668   7.382   9.680 -0.2865  0.2432 -0.4448
31923SOL    HW196347   2.607   7.351   9.747 -1.3822 -0.7462 -1.8505
31923SOL    HW296348   2.662   7.478   9.685 -1.6335  0.1660 -0.2601
31924SOL     OW96349   6.426   0.345   7.597 -1.0275  0.5635  0.3951
31924SOL    HW196350   6.466   0.258   7.591 -1.1081  0.5812 -0.5283
31924SOL    HW296351   6.391   0.362   7.510 -2.3166  0.9133  0.9583
31925SOL     OW96352   9.691   1.303   4.980 -0.1401 -0.3546  0.1784
31925SOL    HW196353   9.743   1.262   5.049 -0.6556 -0.5292  0.4664
31925SOL    HW296354   9.744   1.293   4.901 -0.2301 -1.5377  0.2488
31926SOL     OW96355   4.951   8.742   4.691 -0.2088  0.0214  0.3606
31926SOL    HW196356   4.953   8.818   4.749 -0.2151 -0.5347  1.1103
31926SOL    HW296357   4.899   8.677   4.738 -1.7154  0.1449 -1.0348
31927SOL     OW96358   2.954   1.890   6.190 -0.2889  0.3882 -0.2288
31927SOL    HW196359   3.030   1.900   6.132  0.3956 -0.2250  0.5231
31927SOL    HW296360   2.942   1.976   6.230 -0.6398  0.7585 -1.1215
31928SOL     OW96361   9.435   4.210   2.072  0.7982 -0.2971 -0.1115
31928SOL    HW196362   9.411   4.302   2.081 -1.0939 -0.6670 -0.9295
31928SOL    HW296363   9.359   4.162   2.104  1.9704 -1.6182  0.8579
31929SOL     OW96364   3.374   6.642   1.662  0.4839 -0.0863 -0.0698
31929SOL    HW196365   3.404   6.567   1.712  1.2136  0.6452  0.6366
31929SOL    HW296366   3.286   6.660   1.695  0.6787 -0.0596  0.4552
31930SOL     OW96367   3.821   0.067   4.228  0.3778  0.1423  0.1989
31930SOL    HW196368   3.878   0.143   4.243 -0.1797  0.9919 -1.6796
31930SOL    HW296369   3.814   0.061   4.133 -1.5441 -0.7893  0.3615
31931SOL     OW96370   6.251   1.817   2.228  0.1465  0.4451 -0.4562
31931SOL    HW196371   6.264   1.871   2.306 -1.8172 -1.0967  1.0470
31931SOL    HW296372   6.310   1.743   2.240  0.0641  0.3564 -0.6049
31932SOL     OW96373   6.612   7.740   5.142 -0.2359  0.1600 -0.0592
31932SOL    HW196374   6.678   7.789   5.092  0.5310  0.0245  0.7939
31932SOL    HW296375   6.561   7.806   5.187  0.5329  0.2070  0.7629
31933SOL     OW96376   0.408   9.246   4.347 -0.2205 -0.0245 -0.2743
31933SOL    HW196377   0.397   9.185   4.274 -0.2032 -1.8924  1.2048
31933SOL    HW296378   0.453   9.321   4.309 -2.0303  0.0106 -2.6162
31934SOL     OW96379   1.428   7.872   9.107 -0.1209  0.5383 -0.2598
31934SOL    HW196380   1.435   7.881   9.202  2.1068 -1.0050 -0.1834
31934SOL    HW296381   1.513   7.903   9.074  1.1252 -3.3213 -1.2353
31935SOL     OW96382   0.213   5.215   0.733  0.2403 -0.0740 -0.1765
31935SOL    HW196383   0.216   5.134   0.784  0.8650  0.2186  0.2624
31935SOL    HW296384   0.216   5.284   0.799  0.4521  0.3094 -0.5850
31936SOL     OW96385   5.477   6.907   6.825  0.1416 -0.0342 -0.2686
31936SOL    HW196386   5.431   6.926   6.743 -2.8845 -3.4922  0.3319
31936SOL    HW296387   5.555   6.859   6.798  1.3181  2.2420 -1.1657
31937SOL     OW96388   6.924   5.210   8.386  0.2828 -0.4263 -0.7746
31937SOL    HW196389   6.831   5.206   8.366 -0.0087 -0.7584  0.5616
31937SOL    HW296390   6.941   5.132   8.440  1.5735 -0.9758 -1.8917
31938SOL     OW96391   3.345   3.351   9.276 -0.3856 -0.0889  0.2193
31938SOL    HW196392   3.428   3.383   9.241 -0.4809  1.8889  1.5943
31938SOL    HW296393   3.319   3.418   9.340 -1.6766 -2.0074  1.8292
31939SOL     OW96394   8.080   7.528   4.396  0.3823  0.8321 -0.0455
31939SOL    HW196395   8.162   7.578   4.396  1.7926 -1.1019 -3.6230
31939SOL    HW296396   8.106   7.441   4.427 -0.9629  0.8403  1.2288
31940SOL     OW96397   5.308   1.015   7.747  0.3560  0.5554 -0.0412
31940SOL    HW196398   5.382   1.074   7.734  1.2804  0.3560  3.2660
31940SOL    HW296399   5.259   1.054   7.820 -1.0635 -0.9261 -0.1421
31941SOL     OW96400   2.832   4.136   8.420 -0.2141  0.4610 -0.5231
31941SOL    HW196401   2.801   4.073   8.355 -1.6426  1.7490 -1.1533
31941SOL    HW296402   2.838   4.219   8.371 -0.5769  1.2996  0.8135
31942SOL     OW96403   2.361   6.369   7.430  0.1715  0.4468 -0.0880
31942SOL    HW196404   2.411   6.446   7.455  1.0669 -0.5822  1.4582
31942SOL    HW296405   2.422   6.296   7.438 -1.1159 -0.6491  0.2671
31943SOL     OW96406   2.697   9.755   7.350  0.0386  0.3958 -0.8666
31943SOL    HW196407   2.643   9.821   7.394  0.0932  1.4188 -2.2769
31943SOL    HW296408   2.725   9.797   7.269  2.5544 -0.2845 -0.4224
31944SOL     OW96409   2.969   9.831   9.417 -1.0124 -0.5909  0.0870
31944SOL    HW196410   2.916   9.754   9.439 -0.1013 -1.2646  0.0063
31944SOL    HW296411   3.013   9.853   9.499 -0.0305 -1.1716 -0.2576
31945SOL     OW96412   4.752   3.839   8.247 -0.0247 -0.0787 -0.3336
31945SOL    HW196413   4.769   3.754   8.207  0.4819 -0.8879  1.5164
31945SOL    HW296414   4.820   3.849   8.313 -1.4748  0.6882  1.1174
31946SOL     OW96415   0.597   8.290   8.534 -0.3988 -0.4206  0.0879
31946SOL    HW196416   0.504   8.268   8.544 -0.2684 -0.1732  2.1656
31946SOL    HW296417   0.620   8.256   8.447 -1.8480 -2.5923  0.4739
31947SOL     OW96418   0.606   5.035   3.291  0.3495  0.1306  0.0537
31947SOL    HW196419   0.647   5.080   3.218  1.9206  1.4472  1.6413
31947SOL    HW296420   0.513   5.037   3.272  0.6855  0.7931 -1.6751
31948SOL     OW96421   1.238   9.824   3.830  0.2394 -0.0027  0.2517
31948SOL    HW196422   1.189   9.862   3.903 -1.2164  1.6735 -1.4772
31948SOL    HW296423   1.305   9.890   3.810 -0.4587  0.3475 -0.9758
31949SOL     OW96424   6.368   1.317   6.146 -0.0912 -0.1791 -0.0913
31949SOL    HW196425   6.436   1.311   6.079 -0.1480 -0.4479 -0.1279
31949SOL    HW296426   6.402   1.266   6.219  0.4442  0.9967  0.5049
31950SOL     OW96427   3.276   8.674   6.311 -0.0767  0.1640 -0.1740
31950SOL    HW196428   3.295   8.635   6.396 -0.8477 -0.2987 -0.2038
31950SOL    HW296429   3.194   8.633   6.284  0.3154  0.0886 -1.2858
31951SOL     OW96430   7.130   8.788   1.218  0.7624  0.1680  0.0501
31951SOL    HW196431   7.077   8.790   1.139  3.2960  2.4721 -1.7835
31951SOL    HW296432   7.101   8.865   1.268  1.5321  0.7662 -0.4023
31952SOL     OW96433   1.924   3.436   6.076 -0.2075 -0.0613 -0.1749
31952SOL    HW196434   2.016   3.409   6.077 -0.1658 -0.0133 -1.3077
31952SOL    HW296435   1.877   3.357   6.101  0.0521 -0.6145 -1.3371
31953SOL     OW96436   4.728   4.911   3.555  0.4695 -0.0687 -0.7178
31953SOL    HW196437   4.666   4.844   3.527  0.2431 -0.2595  0.2119
31953SOL    HW296438   4.798   4.864   3.599  0.8556  0.2196 -1.0130
31954SOL     OW96439   4.585   0.606   5.693 -0.4056  0.1021 -0.0445
31954SOL    HW196440   4.573   0.513   5.674 -0.0081  0.1736 -0.6518
31954SOL    HW296441   4.579   0.611   5.788 -0.3923 -0.5496 -0.0024
31955SOL     OW96442   7.907   6.966   4.769 -0.2024 -0.4731 -0.0367
31955SOL    HW196443   7.818   6.998   4.778 -0.2832 -0.5953 -0.4153
31955SOL    HW296444   7.953   7.034   4.720  0.0282 -0.2044  0.5343
31956SOL     OW96445   2.534   8.007   0.103  0.3785  0.1959  0.2473
31956SOL    HW196446   2.493   7.987   0.019 -0.2118  1.4576  0.2201
31956SOL    HW296447   2.539   7.923   0.148 -0.2090 -0.3298 -0.6460
31957SOL     OW96448   5.934   7.550   4.005 -0.6717 -0.9674 -0.2823
31957SOL    HW196449   5.970   7.578   4.089  0.3857 -2.8398 -0.0592
31957SOL    HW296450   5.839   7.558   4.016 -0.4861  0.3355  0.5079
31958SOL     OW96451   5.647   0.151   1.830  0.1904 -0.0552 -0.0463
31958SOL    HW196452   5.615   0.236   1.801  0.0929 -0.4582 -1.1499
31958SOL    HW296453   5.742   0.164   1.839  0.0761  0.3964  0.6482
31959SOL     OW96454   7.568   6.342   2.635  0.1161 -0.0299 -0.5260
31959SOL    HW196455   7.566   6.249   2.612  2.4250 -0.2486 -0.0940
31959SOL    HW296456   7.660   6.366   2.626  0.1495  1.4040  2.5029
31960SOL     OW96457   4.429   5.965   1.425  0.8424 -0.2176  0.3448
31960SOL    HW196458   4.523   5.984   1.427  1.4021 -2.5813 -0.4810
31960SOL    HW296459   4.421   5.878   1.462 -0.9133 -0.4612 -0.4841
31961SOL     OW96460   3.875   8.611   1.397 -0.1245 -0.7510  0.4374
31961SOL    HW196461   3.939   8.623   1.467 -0.6372 -1.9396  1.1577
31961SOL    HW296462   3.792   8.595   1.443 -0.7900 -0.0530 -0.4651
31962SOL     OW96463   2.253   0.514   5.265 -0.3466  0.5220 -0.1905
31962SOL    HW196464   2.259   0.608   5.281 -1.4355  0.2422  2.3092
31962SOL    HW296465   2.160   0.494   5.273 -0.3261 -0.5866 -2.1418
31963SOL     OW96466   7.193   6.625   1.498  0.9037  0.1276  0.7677
31963SOL    HW196467   7.195   6.529   1.506  1.2123 -0.0006 -0.6679
31963SOL    HW296468   7.278   6.648   1.461  0.3182  0.8271 -0.1648
31964SOL     OW96469   3.396   2.476   0.700 -1.0381 -0.2889 -0.2367
31964SOL    HW196470   3.450   2.556   0.704  0.7154 -1.4648  1.8794
31964SOL    HW296471   3.422   2.435   0.617 -1.3266  0.8812 -0.9368
31965SOL     OW96472   8.766   4.493   1.730  0.1637  0.4398  0.1196
31965SOL    HW196473   8.816   4.503   1.649 -0.5795  0.7573 -0.3081
31965SOL    HW296474   8.732   4.581   1.748  0.1162  0.3177  0.6425
31966SOL     OW96475   6.480   1.829   3.708 -0.1372 -0.1417  0.3524
31966SOL    HW196476   6.527   1.872   3.636 -1.5463 -0.2265 -0.6632
31966SOL    HW296477   6.535   1.845   3.785  0.1593  2.1934 -0.2469
31967SOL     OW96478   6.989   6.568   7.438 -0.3730 -0.1854 -0.4130
31967SOL    HW196479   7.054   6.619   7.388  0.3811 -1.0961 -0.3971
31967SOL    HW296480   7.027   6.561   7.526 -1.7557  1.5182  0.3633
31968SOL     OW96481   5.735   0.010   5.938 -0.0964  0.1690 -0.3965
31968SOL    HW196482   5.675   0.061   5.883  1.0664  2.0392 -0.0466
31968SOL    HW296483   5.820   0.019   5.894  0.7998  1.4510  1.4415
31969SOL     OW96484   6.155   1.592   4.578  0.0957  0.0335  0.0454
31969SOL    HW196485   6.244   1.614   4.605  0.9288 -2.3526 -0.5148
31969SOL    HW296486   6.116   1.551   4.655 -0.8091  1.7317  0.5235
31970SOL     OW96487   6.781   5.427   9.561 -0.0716  0.4853  0.2688
31970SOL    HW196488   6.834   5.370   9.617 -1.5750 -1.0763  0.1665
31970SOL    HW296489   6.845   5.470   9.504  1.3167  0.6336  1.8436
31971SOL     OW96490   5.193   6.541   4.505  0.2119 -0.1339  0.1953
31971SOL    HW196491   5.266   6.491   4.541  0.6262  0.4368  0.1577
31971SOL    HW296492   5.233   6.604   4.445 -0.1594  1.1088  1.1927
31972SOL     OW96493   8.742   3.878   4.836  0.1918  0.1098 -0.1919
31972SOL    HW196494   8.819   3.821   4.838 -0.8626 -1.3680  0.2615
31972SOL    HW296495   8.737   3.908   4.746  0.7469 -0.5489 -0.4523
31973SOL     OW96496   7.708   7.898   4.558  0.1225 -0.0499  0.0548
31973SOL    HW196497   7.781   7.839   4.572  1.0783  0.8419 -0.9169
31973SOL    HW296498   7.741   7.984   4.585 -1.0096  0.1617  0.8306
31974SOL     OW96499   7.098   1.551   1.561  0.3057  0.3214  0.5151
31974SOL    HW196500   7.032   1.573   1.495  1.6694 -0.0807 -1.0445
31974SOL    HW296501   7.166   1.505   1.512  1.0079 -0.6867  2.3667
31975SOL     OW96502   6.064   2.872   0.329  0.4295 -0.1177 -0.3868
31975SOL    HW196503   6.087   2.937   0.263 -0.3838 -1.7160 -2.3616
31975SOL    HW296504   5.975   2.846   0.307  0.0245 -0.4844  1.5721
31976SOL     OW96505   3.724   5.908   1.608  0.5852 -0.3931  0.2919
31976SOL    HW196506   3.805   5.933   1.564  1.2859  1.2089  2.3162
31976SOL    HW296507   3.736   5.937   1.698 -1.7145 -1.3575  0.9804
31977SOL     OW96508   5.626   8.181   3.515  0.0585 -0.3963 -0.1044
31977SOL    HW196509   5.701   8.134   3.551 -0.1007 -0.9469 -0.4814
31977SOL    HW296510   5.662   8.264   3.485  0.3692 -0.3308  0.4319
31978SOL     OW96511   2.786   0.477   9.831 -0.2952  0.1403  0.1856
31978SOL    HW196512   2.876   0.510   9.836  0.4958 -1.9190  0.1522
31978SOL    HW296513   2.754   0.505   9.746  0.4874  0.4549 -0.0072
31979SOL     OW96514   2.667   6.335   9.617  0.4897  0.7052  0.0034
31979SOL    HW196515   2.707   6.259   9.573 -1.2122 -0.5645  0.5498
31979SOL    HW296516   2.641   6.392   9.545  2.8326  1.4005 -0.3836
31980SOL     OW96517   2.652   9.245   7.199  0.0394 -0.4773 -0.2929
31980SOL    HW196518   2.648   9.340   7.193  0.5961 -0.4537 -0.3050
31980SOL    HW296519   2.567   9.215   7.165  0.0323 -0.0034 -0.6978
31981SOL     OW96520   2.261   3.784   2.252  0.0156 -0.9939 -0.4578
31981SOL    HW196521   2.227   3.837   2.324 -1.5166 -2.0995 -0.3180
31981SOL    HW296522   2.294   3.848   2.189  1.7411 -0.0176  1.3428
31982SOL     OW96523   7.014   6.963   6.443 -0.4151 -0.2749 -0.2909
31982SOL    HW196524   6.923   6.990   6.461 -0.3908 -0.1434 -0.3608
31982SOL    HW296525   7.035   7.006   6.360 -0.6873 -1.2516 -0.8738
31983SOL     OW96526   0.622   7.863   9.976  0.0135 -0.0489 -0.4979
31983SOL    HW196527   0.538   7.819   9.981  1.2995 -2.6806  0.0876
31983SOL    HW296528   0.681   7.797   9.938  1.9035  1.5181 -0.4351
31984SOL     OW96529   6.976   4.186   3.278 -0.4394  0.2078  0.4331
31984SOL    HW196530   7.018   4.269   3.300  0.8372 -0.9550  2.7038
31984SOL    HW296531   7.043   4.120   3.293 -2.0193 -1.4305  0.6786
31985SOL     OW96532   1.700   1.508   3.698  0.1572  0.4931 -0.3169
31985SOL    HW196533   1.787   1.527   3.734 -1.3315  3.2171  2.2676
31985SOL    HW296534   1.663   1.443   3.757  0.7824 -1.6022 -2.1251
31986SOL     OW96535   7.426   6.319   9.344  0.5714  0.7452 -0.5041
31986SOL    HW196536   7.367   6.386   9.311  0.2465  0.2846 -0.8661
31986SOL    HW296537   7.492   6.309   9.276  0.4259  0.4529 -0.6014
31987SOL     OW96538   5.763   1.572   8.994 -0.3971  0.2070  0.1151
31987SOL    HW196539   5.786   1.554   9.086 -1.0011  0.9242  0.4135
31987SOL    HW296540   5.670   1.550   8.989 -0.1828 -0.6130 -0.5435
31988SOL     OW96541   5.449   8.292   0.310 -0.3780 -0.3391  0.2475
31988SOL    HW196542   5.443   8.238   0.389 -2.0975 -3.9963 -2.0948
31988SOL    HW296543   5.543   8.300   0.293 -0.0339 -1.8615  1.2404
31989SOL     OW96544   4.575   8.021   1.896  0.1995  0.4861 -0.4999
31989SOL    HW196545   4.591   7.927   1.890  1.0836  0.4231  1.6765
31989SOL    HW296546   4.649   8.061   1.851  0.8738  0.1162  0.2518
31990SOL     OW96547   1.981   5.373   8.964  0.0064 -0.5231  0.2867
31990SOL    HW196548   2.045   5.417   8.908  0.0884 -0.7981  0.1615
31990SOL    HW296549   1.922   5.443   8.993 -0.4584 -0.4915 -0.7126
31991SOL     OW96550   9.076   9.224   4.522 -0.6549 -0.0420  0.2649
31991SOL    HW196551   9.139   9.260   4.586  0.7211  0.6638 -1.4100
31991SOL    HW296552   8.990   9.244   4.560  0.0948  2.0198  1.0382
31992SOL     OW96553   6.335   6.856   4.152 -0.1437 -0.3310  0.1100
31992SOL    HW196554   6.415   6.887   4.195  0.5012  0.3448 -1.4750
31992SOL    HW296555   6.292   6.936   4.122 -0.7898 -0.7493 -0.0925
31993SOL     OW96556   3.520   1.687   6.977 -0.1356 -0.2407  0.9131
31993SOL    HW196557   3.525   1.737   7.058 -1.0031 -0.7835  1.3128
31993SOL    HW296558   3.610   1.656   6.964  0.0993  0.1857  1.4483
31994SOL     OW96559   6.753   4.897   9.311  0.7152 -0.1754 -0.3198
31994SOL    HW196560   6.723   4.926   9.225 -0.3633  0.4866  0.2615
31994SOL    HW296561   6.712   4.812   9.324 -0.3065  0.3731  0.1377
31995SOL     OW96562   4.384   0.609   2.569  0.2721 -0.2680 -0.1570
31995SOL    HW196563   4.333   0.606   2.650  0.2767 -0.7565 -0.1698
31995SOL    HW296564   4.336   0.668   2.512  0.0157 -0.2925  0.0352
31996SOL     OW96565   1.188   0.555   9.287  0.0922  0.2235 -0.4088
31996SOL    HW196566   1.180   0.552   9.382  0.2402  0.1885 -0.3984
31996SOL    HW296567   1.276   0.523   9.269  0.0757  0.2611 -0.5561
31997SOL     OW96568   7.614   9.789   7.484 -0.0083  0.1842 -0.0311
31997SOL    HW196569   7.590   9.834   7.403  0.2725 -1.2208 -0.9472
31997SOL    HW296570   7.628   9.859   7.547 -1.8540  1.2530 -0.7252
31998SOL     OW96571   5.204   2.108   2.146  1.1147  0.2198 -0.0918
31998SOL    HW196572   5.206   2.121   2.052  2.0483  0.6979 -0.0164
31998SOL    HW296573   5.271   2.167   2.180 -0.5367  1.5351  1.0612
31999SOL     OW96574   2.933   2.034   2.212  0.3549  0.4937  0.0745
31999SOL    HW196575   2.885   1.954   2.233  1.0028  0.2249  0.5708
31999SOL    HW296576   2.953   2.026   2.119 -0.5080  0.5868 -0.1247
32000SOL     OW96577   7.096   3.121   4.012  0.1941 -0.1708 -0.0989
32000SOL    HW196578   7.006   3.151   4.002  0.8423  1.3346 -2.0283
32000SOL    HW296579   7.095   3.031   3.982 -0.2433  0.6192 -2.6738
32001SOL     OW96580   2.586   1.438   4.945 -0.3329 -0.3970 -0.2858
32001SOL    HW196581   2.555   1.359   4.900 -0.8751  0.7227 -1.9857
32001SOL    HW296582   2.657   1.470   4.890 -0.5310  0.6245  0.0256
32002SOL     OW96583   0.346   2.196   4.230  0.0267  0.4312 -0.0651
32002SOL    HW196584   0.342   2.291   4.237 -0.2496  0.4837 -0.8670
32002SOL    HW296585   0.262   2.170   4.193 -0.0487 -0.1634  0.4965
32003SOL     OW96586   6.781   4.718   6.856 -0.6487  0.3602 -0.2095
32003SOL    HW196587   6.874   4.743   6.857 -0.6689  0.4594 -0.7514
32003SOL    HW296588   6.756   4.717   6.949  0.3342 -1.3015  0.0842
32004SOL     OW96589   7.373   6.216   0.105  0.3662 -0.3950 -0.0416
32004SOL    HW196590   7.406   6.227   0.194  1.3397 -2.2968 -0.1274
32004SOL    HW296591   7.281   6.193   0.117  0.3645 -0.1551  0.4426
32005SOL     OW96592   2.158   1.932   1.358  0.3792  0.0834 -0.0388
32005SOL    HW196593   2.077   1.886   1.339 -0.4296  1.0748  0.8415
32005SOL    HW296594   2.220   1.863   1.381  0.0515 -0.7519 -1.5725
32006SOL     OW96595   1.241   1.740   3.555  0.1439  0.1981 -0.2400
32006SOL    HW196596   1.320   1.784   3.524 -0.7787  0.0687 -3.0779
32006SOL    HW296597   1.180   1.811   3.575  0.0614  0.2853 -0.7775
32007SOL     OW96598   4.710   5.123   6.312  0.0945  0.9519 -0.6351
32007SOL    HW196599   4.752   5.161   6.235  0.9668 -0.2276 -0.7838
32007SOL    HW296600   4.779   5.118   6.377  0.3389 -1.2774 -0.9709
32008SOL     OW96601   7.342   1.059   3.031  0.0194  0.2270 -0.1366
32008SOL    HW196602   7.259   1.067   2.984 -0.8429  0.0842  1.3186
32008SOL    HW296603   7.384   1.144   3.020 -0.4735  0.4177 -0.6060
32009SOL     OW96604   8.912   1.810   8.450  0.0972 -0.1357  0.2672
32009SOL    HW196605   8.960   1.878   8.496  2.4174 -0.8090 -0.9747
32009SOL    HW296606   8.826   1.849   8.432  0.6975  1.7417  1.2022
32010SOL     OW96607   5.147   2.931   0.537 -0.0345 -0.8105  0.1230
32010SOL    HW196608   5.208   2.870   0.496  0.5103 -1.3317  1.6209
32010SOL    HW296609   5.071   2.877   0.561 -0.0291 -0.6714  0.4551
32011SOL     OW96610   0.273   9.282   9.354  0.3257  0.3825  0.2198
32011SOL    HW196611   0.305   9.193   9.342  2.7369  1.4769 -3.2722
32011SOL    HW296612   0.210   9.294   9.283  1.1088  1.7858 -0.2891
32012SOL     OW96613   7.199   8.278   4.516  0.1116  0.0227 -0.2825
32012SOL    HW196614   7.183   8.202   4.572  1.6411 -1.1696 -1.3725
32012SOL    HW296615   7.238   8.343   4.574  0.0514 -0.5229  0.3811
32013SOL     OW96616   1.478   1.197   9.006  0.4432 -0.4950  0.5983
32013SOL    HW196617   1.504   1.271   9.061  0.8603  0.5908 -0.9847
32013SOL    HW296618   1.561   1.158   8.978  0.4184  1.0938 -1.9852
32014SOL     OW96619   9.826   3.722   8.949 -0.2100 -0.4666 -0.2494
32014SOL    HW196620   9.892   3.781   8.911 -1.8601  0.1609 -2.3501
32014SOL    HW296621   9.787   3.772   9.021 -0.1265  0.1755 -0.6427
32015SOL     OW96622   5.582   6.345   9.071 -0.3682 -0.2874  0.8866
32015SOL    HW196623   5.497   6.325   9.112 -0.9595 -1.1507 -0.6911
32015SOL    HW296624   5.560   6.375   8.983  0.9022  1.1670  1.0259
32016SOL     OW96625   8.822   1.075   2.207  0.1123 -0.2042  0.0114
32016SOL    HW196626   8.846   1.086   2.115 -0.7072  2.1190  0.0039
32016SOL    HW296627   8.730   1.048   2.205 -0.9373  2.8954  0.0470
32017SOL     OW96628   4.154   1.450   9.325 -0.2074 -0.0975 -0.2171
32017SOL    HW196629   4.073   1.418   9.284  0.3320 -1.2678 -0.4118
32017SOL    HW296630   4.183   1.521   9.268 -1.0179  0.2414 -0.2247
32018SOL     OW96631   7.978   0.593   7.267 -0.7660  0.4290  0.5443
32018SOL    HW196632   7.905   0.592   7.328 -0.8000  0.5242  0.5059
32018SOL    HW296633   7.962   0.520   7.208  1.0669 -1.9340  2.7504
32019SOL     OW96634   9.040   1.214   9.766 -0.2731 -0.0503  0.0161
32019SOL    HW196635   8.958   1.204   9.718 -0.7398  0.4686  0.6730
32019SOL    HW296636   9.036   1.303   9.801  1.2474  0.5104 -1.1629
32020SOL     OW96637   6.442   8.317   0.987  0.3728  0.1245 -0.4512
32020SOL    HW196638   6.519   8.339   1.040  1.3950  0.4474 -1.9799
32020SOL    HW296639   6.368   8.325   1.047  1.3370  1.7279  0.5982
32021SOL     OW96640   7.788   0.585   6.717  0.4904  0.5019 -0.0824
32021SOL    HW196641   7.848   0.656   6.695  0.3132  0.4690 -0.6749
32021SOL    HW296642   7.719   0.590   6.651 -0.4256  0.8441  0.8703
32022SOL     OW96643   2.430   4.852   4.701 -0.7025 -0.1713 -0.0775
32022SOL    HW196644   2.453   4.761   4.718  1.6624  0.5276  0.8580
32022SOL    HW296645   2.403   4.886   4.786 -0.3771  0.3104 -0.1665
32023SOL     OW96646   9.304   8.035   6.309  0.3809 -0.4035  0.7284
32023SOL    HW196647   9.337   8.063   6.395 -0.2028  1.3753  0.4182
32023SOL    HW296648   9.223   8.085   6.298  0.1135 -1.1060 -0.5820
32024SOL     OW96649   0.854   7.516   6.922 -0.3204  0.5976 -0.0767
32024SOL    HW196650   0.902   7.519   6.839 -0.9471 -0.0450 -0.4730
32024SOL    HW296651   0.809   7.600   6.927  1.6727  1.6892  0.8292
32025SOL     OW96652   5.713   7.098   2.622 -0.1189  0.4440  0.1004
32025SOL    HW196653   5.777   7.151   2.669 -0.0733  0.1309  0.3954
32025SOL    HW296654   5.741   7.008   2.638 -1.1441  0.2594  0.9989
32026SOL     OW96655   7.051   2.752   9.643 -0.0958  0.2405  0.4695
32026SOL    HW196656   7.082   2.714   9.561 -0.7118  1.2675 -0.2650
32026SOL    HW296657   6.961   2.778   9.624 -1.3114 -2.1454  2.3680
32027SOL     OW96658   8.355   9.474   9.941 -0.3195  0.3189 -0.8026
32027SOL    HW196659   8.316   9.461  10.027 -1.1456 -0.6556 -1.3102
32027SOL    HW296660   8.382   9.387   9.912  2.4916  0.9389 -0.3983
32028SOL     OW96661   9.316   8.056   7.061  0.2627 -0.2425 -0.7999
32028SOL    HW196662   9.305   8.146   7.028 -0.2318 -0.4679 -1.2548
32028SOL    HW296663   9.387   8.063   7.126 -0.8585  0.7769  0.3672
32029SOL     OW96664   9.897   5.941   7.699 -0.1616 -0.0993  0.5649
32029SOL    HW196665   9.944   6.018   7.667  0.8702 -0.3560  1.4139
32029SOL    HW296666   9.836   5.976   7.764  0.3227  0.0136  0.9680
32030SOL     OW96667   2.065   9.705   0.039  0.3317  0.2166  0.5943
32030SOL    HW196668   2.103   9.761   0.108  0.0179  2.0879 -0.6857
32030SOL    HW296669   1.977   9.686   0.070  0.8166 -0.5462  1.5689
32031SOL     OW96670   6.057   0.044   0.876 -0.1580 -0.1627 -0.1316
32031SOL    HW196671   5.967   0.025   0.849  0.0729 -0.7659 -0.4917
32031SOL    HW296672   6.054   0.135   0.906 -1.2894 -0.7523  1.6914
32032SOL     OW96673   8.143   9.610   4.771  0.1978  0.1134 -0.8337
32032SOL    HW196674   8.171   9.578   4.856  0.2726 -1.6062 -1.4604
32032SOL    HW296675   8.219   9.656   4.735  0.3123  0.4356 -0.1823
32033SOL     OW96676   6.128   9.484   6.182  0.4407 -0.7707  0.3058
32033SOL    HW196677   6.129   9.473   6.087 -1.2446  0.8128  0.0415
32033SOL    HW296678   6.219   9.498   6.206  0.8459 -0.7431 -1.1538
32034SOL     OW96679   9.690   6.966   3.788  0.0595  0.2019 -0.6434
32034SOL    HW196680   9.644   7.049   3.777 -0.5828 -0.1039 -0.3585
32034SOL    HW296681   9.626   6.900   3.761 -0.6223 -0.4139  2.1115
32035SOL     OW96682   1.990   4.202   4.333 -0.5415 -0.1900  0.5908
32035SOL    HW196683   2.019   4.146   4.261  1.7391 -0.8107  1.8905
32035SOL    HW296684   1.948   4.276   4.291 -0.6430 -1.2762 -1.3043
32036SOL     OW96685   4.674   4.728   6.718  0.6930  0.3667  0.5600
32036SOL    HW196686   4.579   4.715   6.716  0.5544  1.3674 -1.2279
32036SOL    HW296687   4.702   4.687   6.800 -1.3128  0.3223  1.2738
32037SOL     OW96688   6.505   1.327   9.939  0.1546 -0.1474 -0.2527
32037SOL    HW196689   6.540   1.256   9.884  1.2748 -0.4873  0.8559
32037SOL    HW296690   6.486   1.285  10.023  2.2184  1.0812  0.9112
32038SOL     OW96691   4.207   5.824   0.744  0.6703  0.1237  0.0431
32038SOL    HW196692   4.285   5.862   0.784  1.1488 -1.1982  0.4228
32038SOL    HW296693   4.240   5.750   0.693 -0.4135 -0.9882  0.8978
32039SOL     OW96694   0.828   6.104   2.834  0.4858 -0.2582 -0.9213
32039SOL    HW196695   0.905   6.128   2.885 -0.9603  1.2142  0.6757
32039SOL    HW296696   0.829   6.166   2.760 -1.4426  2.9450  1.4506
32040SOL     OW96697   9.645   7.158   4.423 -0.0368 -0.0008  0.4589
32040SOL    HW196698   9.648   7.194   4.512 -0.3516  2.1020 -0.3368
32040SOL    HW296699   9.735   7.166   4.391  0.2691 -1.5601  0.8494
32041SOL     OW96700   7.240   7.076   1.268  0.4215 -0.0975  0.4693
32041SOL    HW196701   7.182   7.151   1.281  0.9585  0.4679 -0.3669
32041SOL    HW296702   7.304   7.105   1.203  1.1495 -0.9936  0.7630
32042SOL     OW96703   0.830   0.576   2.290  0.3623  0.0819  0.4143
32042SOL    HW196704   0.783   0.524   2.225  0.1437 -1.8355  2.0062
32042SOL    HW296705   0.923   0.559   2.273  0.4774  1.7798 -1.0495
32043SOL     OW96706   0.930   8.289   1.819  0.0127 -0.0756 -0.5065
32043SOL    HW196707   0.905   8.362   1.763 -0.8539 -0.2608 -0.3629
32043SOL    HW296708   0.999   8.244   1.769  0.1200  0.4684 -0.8673
32044SOL     OW96709   5.062   2.141   4.523  0.8128 -0.0630 -0.0266
32044SOL    HW196710   4.973   2.138   4.486  1.4639 -0.3236 -1.6631
32044SOL    HW296711   5.093   2.228   4.502  1.2515 -0.2660 -0.2272
32045SOL     OW96712   5.289   9.456   2.725 -0.0957  0.3348  0.0618
32045SOL    HW196713   5.244   9.465   2.809 -0.7947 -1.2268 -0.1095
32045SOL    HW296714   5.226   9.412   2.668  0.9045 -0.0077 -0.8143
32046SOL     OW96715   5.128   0.792   8.689 -0.0006  0.4312  0.3062
32046SOL    HW196716   5.095   0.756   8.607  1.2551  0.4309 -0.2194
32046SOL    HW296717   5.167   0.876   8.665  0.0893  0.5852  0.9624
32047SOL     OW96718   3.622   9.790   0.753  0.4158  0.3614  0.2919
32047SOL    HW196719   3.647   9.757   0.667  0.6514  0.5290  0.2971
32047SOL    HW296720   3.608   9.883   0.740 -0.5306  0.2187  0.2142
32048SOL     OW96721   6.080   8.305   7.503  0.1085  0.3689 -0.2662
32048SOL    HW196722   5.998   8.308   7.455 -0.4506  0.0608  0.6533
32048SOL    HW296723   6.117   8.219   7.483  1.1245  1.1519 -2.1080
32049SOL     OW96724   8.644   0.540   1.500  0.5924 -0.1857  0.4570
32049SOL    HW196725   8.584   0.578   1.564  1.5406  0.0002  1.2531
32049SOL    HW296726   8.721   0.596   1.502 -0.0390  0.9413 -2.2130
32050SOL     OW96727   0.676   4.738   0.519 -0.2250 -0.8624  0.5698
32050SOL    HW196728   0.650   4.670   0.581  2.3448 -1.9022  0.6163
32050SOL    HW296729   0.682   4.817   0.573 -0.7814 -1.1460  1.0595
32051SOL     OW96730   8.592   1.292   0.850 -0.6300 -0.2251 -0.3157
32051SOL    HW196731   8.573   1.379   0.815 -2.5053 -0.0899  0.8926
32051SOL    HW296732   8.536   1.285   0.927 -0.1467 -2.3271 -0.1053
32052SOL     OW96733   8.673   4.003   3.155  0.0547 -0.0082  0.8873
32052SOL    HW196734   8.580   3.995   3.175 -0.0404 -1.1728  0.0978
32052SOL    HW296735   8.718   3.971   3.233 -0.2733 -2.3497  0.1680
32053SOL     OW96736   3.358   3.073   0.764 -0.5262 -0.1086 -0.0623
32053SOL    HW196737   3.399   2.997   0.804 -1.2970 -0.2053  0.5565
32053SOL    HW296738   3.395   3.148   0.811 -0.7747 -0.1743  0.2367
32054SOL     OW96739   5.748   4.161   9.898 -0.1903 -0.1016  0.7145
32054SOL    HW196740   5.833   4.135   9.865  0.0608 -0.1030  1.3547
32054SOL    HW296741   5.692   4.084   9.886 -0.7209  0.5819 -1.7685
32055SOL     OW96742   2.044   6.852   0.068  0.0935  0.3436 -0.4461
32055SOL    HW196743   2.093   6.910   0.010 -0.7691  0.9486 -0.6002
32055SOL    HW296744   1.987   6.802   0.010 -0.8625  1.0403 -0.1476
32056SOL     OW96745   6.160   0.778   7.162  0.0418 -0.0047  1.0728
32056SOL    HW196746   6.179   0.857   7.111  0.1635 -0.5781  0.2122
32056SOL    HW296747   6.244   0.757   7.204  0.5497 -0.7941 -0.2865
32057SOL     OW96748   2.619   0.538   9.596  0.1838 -0.4336  0.5125
32057SOL    HW196749   2.527   0.531   9.572  0.6221 -0.2644 -1.4543
32057SOL    HW296750   2.664   0.553   9.512  1.6643  2.9925  1.7119
32058SOL     OW96751   3.064   2.252   0.083  0.1013 -0.4534 -0.1565
32058SOL    HW196752   3.014   2.207   0.015 -1.3123  0.5617  0.1621
32058SOL    HW296753   3.011   2.245   0.162  0.2293  1.0066  0.1013
32059SOL     OW96754   5.880   4.860   6.850  0.3014  0.5506 -0.2136
32059SOL    HW196755   5.799   4.814   6.870  1.5145 -2.6707 -1.9264
32059SOL    HW296756   5.884   4.861   6.755  1.0876  3.0485 -0.2191
32060SOL     OW96757   6.097   7.246   6.717  0.1869  0.6102  0.1234
32060SOL    HW196758   6.045   7.300   6.658 -0.9413  0.5358  1.0189
32060SOL    HW296759   6.126   7.173   6.663 -0.3576  0.8298 -0.4801
32061SOL     OW96760   2.083   7.858   8.209 -0.2238 -0.1843 -0.2810
32061SOL    HW196761   2.148   7.790   8.195  1.1435  0.8355  0.8973
32061SOL    HW296762   2.119   7.936   8.168 -1.1290  0.1855 -0.4137
32062SOL     OW96763   0.813   3.252   4.645  0.3991  0.0239  0.0939
32062SOL    HW196764   0.719   3.240   4.629  0.9793 -1.9249 -2.2486
32062SOL    HW296765   0.826   3.346   4.636 -1.1511  0.2059 -0.6555
32063SOL     OW96766   4.231   7.525   3.958 -0.6468 -0.4026 -0.5945
32063SOL    HW196767   4.167   7.478   3.905 -2.2658  0.5378  0.4445
32063SOL    HW296768   4.302   7.462   3.972 -0.8957 -1.1814 -2.4990
32064SOL     OW96769   5.918   6.540   3.634  0.2125 -0.1131 -0.5533
32064SOL    HW196770   5.835   6.585   3.649  0.5246  0.2570  0.0780
32064SOL    HW296771   5.925   6.476   3.705  0.8689  0.4439 -0.1076
32065SOL     OW96772   7.426   0.838   2.564  0.2344  0.2731 -0.1399
32065SOL    HW196773   7.509   0.830   2.517 -0.3118 -1.9214 -0.8527
32065SOL    HW296774   7.452   0.858   2.654  1.5341 -0.0219 -0.4262
32066SOL     OW96775   3.218   6.233   7.011 -0.0024  0.1928  0.3330
32066SOL    HW196776   3.155   6.254   6.943 -0.3085  1.7746  1.0678
32066SOL    HW296777   3.298   6.210   6.963 -0.6858 -0.3718 -0.5703
32067SOL     OW96778   5.714   7.759   0.824  0.4290 -0.1091  0.4189
32067SOL    HW196779   5.660   7.828   0.788  1.6462  1.2115  1.0180
32067SOL    HW296780   5.683   7.747   0.914 -1.9107 -2.6716 -0.5840
32068SOL     OW96781   6.952   1.980   0.478  0.1193 -0.2698 -0.2660
32068SOL    HW196782   6.985   2.040   0.411  0.4473 -2.0385 -1.7538
32068SOL    HW296783   7.030   1.937   0.512  0.0333  1.0140  1.7683
32069SOL     OW96784   6.034   3.247   7.469  1.0063 -0.2155  0.7324
32069SOL    HW196785   5.939   3.238   7.465  1.1972 -3.4621  0.7974
32069SOL    HW296786   6.048   3.333   7.509 -1.8884 -0.0195  1.5749
32070SOL     OW96787   0.251   3.117   2.794  0.3580 -0.2399  0.0222
32070SOL    HW196788   0.299   3.200   2.793  2.0809 -1.1849 -1.8492
32070SOL    HW296789   0.199   3.118   2.713 -1.8075  0.1488  1.3314
32071SOL     OW96790   9.471   1.197   2.179 -0.6146  0.3227  0.4593
32071SOL    HW196791   9.563   1.196   2.155 -0.8240 -0.7183 -0.3829
32071SOL    HW296792   9.434   1.271   2.131 -0.1922  0.8304  0.9163
32072SOL     OW96793   9.358   3.896   3.424  0.0753 -0.1146 -0.4230
32072SOL    HW196794   9.445   3.861   3.445  0.4219  1.2913  0.6057
32072SOL    HW296795   9.361   3.911   3.329  1.1005  0.2949 -0.3390
32073SOL     OW96796   9.475   7.506   7.838 -0.3387  0.1559 -0.1036
32073SOL    HW196797   9.542   7.461   7.890 -0.4798 -0.1738 -0.2039
32073SOL    HW296798   9.521   7.536   7.760 -0.2897 -0.0032 -0.1362
32074SOL     OW96799   0.048   2.890   1.956  0.2271 -0.2735 -0.0372
32074SOL    HW196800   0.014   2.939   1.882 -1.2343 -1.3645 -0.1305
32074SOL    HW296801   0.058   2.800   1.923 -1.6298 -1.0690  1.3640
32075SOL     OW96802   3.034   0.831   4.739  0.7307  0.2599 -0.2036
32075SOL    HW196803   3.128   0.825   4.727  0.6199 -3.3236 -0.1961
32075SOL    HW296804   3.014   0.767   4.807 -1.6804  1.1869  0.0570
32076SOL     OW96805   0.392   1.922   8.097 -0.2450 -0.1785 -0.2337
32076SOL    HW196806   0.334   1.897   8.025  0.0868  1.7260 -1.2119
32076SOL    HW296807   0.335   1.923   8.174 -1.8109  2.4284 -1.2933
32077SOL     OW96808   7.023   3.936   6.847  0.0633  0.1099  0.1290
32077SOL    HW196809   6.938   3.894   6.858 -0.3836  0.7435 -0.7717
32077SOL    HW296810   7.018   3.977   6.761  0.6795  1.5108  0.7296
32078SOL     OW96811   6.658   6.420   9.502  0.1554  0.2976 -0.3928
32078SOL    HW196812   6.592   6.445   9.566  0.1869 -1.0589  0.2211
32078SOL    HW296813   6.655   6.324   9.501  1.1697  0.2497 -1.3607
32079SOL     OW96814   0.347   6.979   1.373 -0.4181  0.2909  0.0849
32079SOL    HW196815   0.348   6.889   1.339 -1.1383  0.3356 -0.0862
32079SOL    HW296816   0.391   6.973   1.457 -0.6214 -0.2672  0.1627
32080SOL     OW96817   2.109   8.339   6.574 -0.3376  0.0796  0.2982
32080SOL    HW196818   2.204   8.351   6.572 -0.4318  0.7379 -1.0609
32080SOL    HW296819   2.080   8.391   6.649  0.5935 -2.1624  2.3552
32081SOL     OW96820   4.802   7.527   6.523 -0.4905  0.0715 -0.6189
32081SOL    HW196821   4.824   7.436   6.541  0.6059  0.5409  0.5942
32081SOL    HW296822   4.707   7.529   6.521 -0.6029 -0.7775  1.3131
32082SOL     OW96823   9.683   2.139   1.546  0.6455  0.5924  0.1635
32082SOL    HW196824   9.696   2.123   1.452  1.4943 -1.1326  0.5294
32082SOL    HW296825   9.592   2.115   1.562  0.7953 -0.1188 -0.0333
32083SOL     OW96826   7.391   7.191   1.002 -0.4862 -0.2494  0.3124
32083SOL    HW196827   7.342   7.222   0.926 -0.0043 -0.0677  0.0756
32083SOL    HW296828   7.469   7.151   0.966  0.2514  0.7513  0.7539
32084SOL     OW96829   0.610   9.419   7.536  0.1113 -0.2780 -0.3132
32084SOL    HW196830   0.529   9.402   7.583  0.9180 -1.8727  0.6094
32084SOL    HW296831   0.636   9.333   7.501  1.2195  0.2496 -0.8540
32085SOL     OW96832   2.095   6.867   0.496  0.3309 -0.0130 -0.0716
32085SOL    HW196833   2.104   6.932   0.565  3.0734 -0.2550 -0.0960
32085SOL    HW296834   2.076   6.918   0.417  1.7611  0.7320  0.0365
32086SOL     OW96835   9.136   4.630   6.931 -0.4896 -0.0133  0.3140
32086SOL    HW196836   9.148   4.674   6.847 -1.9270  1.7637  0.9773
32086SOL    HW296837   9.223   4.596   6.952  0.0770  0.1726 -1.5103
32087SOL     OW96838   3.027   2.068   3.743 -0.4553  0.3779 -0.3237
32087SOL    HW196839   3.118   2.048   3.765 -0.2872  1.2368 -0.2241
32087SOL    HW296840   2.987   2.095   3.826 -0.8553 -0.1418 -0.3339
32088SOL     OW96841   0.768   7.417   3.564  0.0494  0.9046 -0.5394
32088SOL    HW196842   0.752   7.387   3.475  0.2569  1.4568 -0.7627
32088SOL    HW296843   0.855   7.384   3.585  0.3438  1.4818 -0.8425
32089SOL     OW96844   5.614   7.785   4.646  0.1780 -0.1837  0.3911
32089SOL    HW196845   5.546   7.725   4.676  1.2628 -1.4938  0.3128
32089SOL    HW296846   5.675   7.790   4.720  0.3023  0.5369  0.2451
32090SOL     OW96847   9.253   8.154   2.502  0.2123 -0.7503  0.4578
32090SOL    HW196848   9.174   8.111   2.533 -0.2458 -0.4790 -0.3081
32090SOL    HW296849   9.299   8.088   2.452 -0.9373 -0.1503 -1.4930
32091SOL     OW96850   1.230   6.304   4.179 -0.6944 -0.2027 -0.0507
32091SOL    HW196851   1.287   6.263   4.115  0.8971 -0.8839  1.7051
32091SOL    HW296852   1.254   6.397   4.178 -1.3070 -0.0436 -1.0261
32092SOL     OW96853   5.345   6.516   2.182  0.5516 -0.1848 -0.4212
32092SOL    HW196854   5.308   6.578   2.120  1.0516 -0.7832 -1.3515
32092SOL    HW296855   5.282   6.511   2.254 -0.8089 -0.6433 -1.6125
32093SOL     OW96856   2.749   7.260   6.482 -0.5075  0.2347 -0.1071
32093SOL    HW196857   2.719   7.351   6.481 -0.3876  0.2830 -1.4348
32093SOL    HW296858   2.702   7.219   6.555 -0.1652  1.4806  0.8408
32094SOL     OW96859   3.445   2.258   7.053  0.8204  0.1575 -0.7368
32094SOL    HW196860   3.413   2.204   7.126 -0.0236  0.8429 -0.5778
32094SOL    HW296861   3.521   2.304   7.089  2.3543 -1.8706 -1.2700
32095SOL     OW96862   9.180   6.054   4.196 -0.4109  0.6455 -0.3829
32095SOL    HW196863   9.164   6.117   4.126  0.8089  0.3491 -0.9619
32095SOL    HW296864   9.268   6.076   4.228 -0.5018  0.0660  0.2951
32096SOL     OW96865   7.871   8.639   2.071 -0.1621 -0.3230  0.1142
32096SOL    HW196866   7.834   8.705   2.130  0.2629 -0.4562  0.5333
32096SOL    HW296867   7.811   8.565   2.076  0.2450 -0.6155  0.9471
32097SOL     OW96868   7.920   8.744   5.440 -0.3431 -0.6377  1.0710
32097SOL    HW196869   7.943   8.778   5.354 -1.1708 -2.1468  0.1962
32097SOL    HW296870   7.824   8.743   5.441 -0.3489 -1.6912  1.5475
32098SOL     OW96871   5.745   0.630   0.197 -0.6423 -0.0896 -0.3312
32098SOL    HW196872   5.716   0.627   0.106  0.9759  0.5414 -0.9096
32098SOL    HW296873   5.702   0.706   0.235 -0.8874 -0.0315 -0.7298
32099SOL     OW96874   2.712   0.763   7.620 -0.0999 -0.5512  0.1751
32099SOL    HW196875   2.624   0.728   7.611  0.2759 -1.7009  0.7292
32099SOL    HW296876   2.745   0.723   7.701  1.6225 -1.7584 -1.0409
32100SOL     OW96877   3.881   6.423   3.017 -0.1931 -0.1094  0.0678
32100SOL    HW196878   3.803   6.448   2.968 -0.6294 -0.1524  0.7452
32100SOL    HW296879   3.932   6.372   2.954  0.4876  1.9798 -1.1953
32101SOL     OW96880   4.296   9.866   9.399  0.3069  0.5782 -0.1650
32101SOL    HW196881   4.338   9.803   9.459 -0.1269  0.6529  0.2177
32101SOL    HW296882   4.368   9.922   9.370  0.5124  0.5851  0.3402
32102SOL     OW96883   2.993   1.462   3.263  0.2991 -0.2492 -0.2889
32102SOL    HW196884   2.954   1.464   3.350  0.3556 -2.0751 -0.1762
32102SOL    HW296885   2.946   1.528   3.213  0.8957  1.5029  1.3528
32103SOL     OW96886   8.446   9.238   8.309  0.2990 -0.3649 -0.4280
32103SOL    HW196887   8.467   9.233   8.215  2.1692  2.1193 -0.2547
32103SOL    HW296888   8.514   9.296   8.345 -0.7913 -0.6831  2.3452
32104SOL     OW96889   7.767   2.548   4.701  0.0385 -0.5481  0.2301
32104SOL    HW196890   7.773   2.531   4.794 -0.0364  1.1485  0.5843
32104SOL    HW296891   7.709   2.624   4.694  1.7094  0.7248 -0.9862
32105SOL     OW96892   5.941   5.777   9.187 -0.4429  0.1801  0.0444
32105SOL    HW196893   5.947   5.841   9.116 -1.3040 -0.9770 -1.1257
32105SOL    HW296894   6.030   5.744   9.198 -0.5122 -0.6396 -1.5133
32106SOL     OW96895   2.324   6.380   9.837 -0.0137 -0.6646 -0.1999
32106SOL    HW196896   2.391   6.313   9.833  0.9821  0.0670  2.2221
32106SOL    HW296897   2.255   6.342   9.893 -1.2997 -1.1005 -2.0016
32107SOL     OW96898   4.256   9.474   0.587  0.1727  0.3317 -0.3267
32107SOL    HW196899   4.313   9.421   0.531 -0.2499  0.8814 -1.3157
32107SOL    HW296900   4.167   9.447   0.563 -0.0059  0.2015  0.4683
32108SOL     OW96901   6.061   3.731   9.623  0.2606  0.2563 -0.3354
32108SOL    HW196902   5.987   3.710   9.567  0.4665 -2.2879  0.1974
32108SOL    HW296903   6.131   3.672   9.594  1.6590  1.6538  0.0441
32109SOL     OW96904   4.967   8.256   1.922 -0.4547  0.0178  0.1324
32109SOL    HW196905   4.883   8.259   1.876  0.6851 -0.1217 -2.1007
32109SOL    HW296906   5.001   8.168   1.904  0.3849  0.2352  0.6224
32110SOL     OW96907   8.581   9.119   5.468  0.1823  0.3081 -0.3257
32110SOL    HW196908   8.651   9.061   5.438  1.6678  1.9205 -0.1310
32110SOL    HW296909   8.592   9.199   5.417  0.2736  1.6371  1.6647
32111SOL     OW96910   8.599   2.278   0.594  0.0029  0.1680 -0.7599
32111SOL    HW196911   8.574   2.325   0.514  0.9061 -1.2664 -1.9461
32111SOL    HW296912   8.614   2.348   0.658 -0.4149  1.3930 -1.9282
32112SOL     OW96913   7.299   8.755   0.778 -0.0873  0.3928 -0.6692
32112SOL    HW196914   7.291   8.745   0.873  0.7527  1.2101 -0.4959
32112SOL    HW296915   7.222   8.712   0.743 -1.3484  1.6065  0.4850
32113SOL     OW96916   6.721   5.186   8.784 -0.3365 -0.0253 -0.4065
32113SOL    HW196917   6.626   5.198   8.789 -0.4243 -1.1479  1.2681
32113SOL    HW296918   6.755   5.274   8.770 -1.5408  0.6111  0.4829
32114SOL     OW96919   5.868   1.780   3.355  0.7409  0.3556 -0.2970
32114SOL    HW196920   5.814   1.794   3.433  1.1117 -0.0672  0.0397
32114SOL    HW296921   5.831   1.701   3.314  1.0382  0.1237 -0.1202
32115SOL     OW96922   0.866   1.141   3.670 -0.3162  0.1341  0.0632
32115SOL    HW196923   0.921   1.097   3.606  1.6225  1.2185  0.8648
32115SOL    HW296924   0.868   1.084   3.747 -2.3773 -1.0087 -0.6607
32116SOL     OW96925   6.246   1.662   5.021 -0.6763  0.0905 -0.2829
32116SOL    HW196926   6.192   1.593   5.059 -0.0273  0.5970  1.7010
32116SOL    HW296927   6.297   1.618   4.953  0.5157 -1.7002  1.6236
32117SOL     OW96928   4.616   6.366   7.584  0.2537  0.4077  0.5741
32117SOL    HW196929   4.692   6.413   7.618  0.8919 -1.2629  1.5601
32117SOL    HW296930   4.541   6.408   7.626  0.8081  0.5474  1.4502
32118SOL     OW96931   3.144   2.846   8.351 -0.1133  0.3754  0.6496
32118SOL    HW196932   3.086   2.890   8.289  2.1973  2.1037 -0.4377
32118SOL    HW296933   3.143   2.902   8.428  0.1904  0.4841  0.5756
32119SOL     OW96934   1.336   1.376   1.194  0.7109 -0.0218  0.0303
32119SOL    HW196935   1.241   1.387   1.200  0.4357 -2.0483  0.1636
32119SOL    HW296936   1.361   1.418   1.112 -0.3510  0.3079 -0.1300
32120SOL     OW96937   4.176   4.445   4.889 -0.2566  0.3219  0.1138
32120SOL    HW196938   4.254   4.454   4.834 -0.9513  0.8501 -0.8219
32120SOL    HW296939   4.119   4.386   4.840 -0.8335  0.6933  0.3256
32121SOL     OW96940   0.737   0.291   4.533 -0.1495  0.4224  0.1719
32121SOL    HW196941   0.766   0.299   4.443 -1.2068 -1.0089 -0.3317
32121SOL    HW296942   0.718   0.198   4.545  0.4886  0.4713  2.0521
32122SOL     OW96943   3.181   4.789   5.368  0.1650  0.1475  0.6267
32122SOL    HW196944   3.150   4.749   5.449 -0.1136 -1.9886 -0.4637
32122SOL    HW296945   3.110   4.776   5.305  1.1479 -0.0596 -0.4869
32123SOL     OW96946   3.411   1.682   4.991  0.2910 -0.0224  0.6164
32123SOL    HW196947   3.360   1.601   4.993 -0.7170  0.6043  0.5706
32123SOL    HW296948   3.496   1.655   4.957  0.0664 -1.1147  0.8792
32124SOL     OW96949   3.913   8.863   5.597  0.3997 -0.4061  0.1807
32124SOL    HW196950   3.937   8.883   5.507  0.0127 -2.2859 -0.3808
32124SOL    HW296951   3.869   8.943   5.628 -1.0390 -0.3102 -1.8848
32125SOL     OW96952   1.859   1.533   1.257 -0.2708  0.2627  0.3860
32125SOL    HW196953   1.830   1.464   1.317  0.5059  0.1673  0.6599
32125SOL    HW296954   1.799   1.527   1.183 -2.0304  1.1714  1.6639
32126SOL     OW96955   6.228   8.075   5.565  0.2325 -0.0793  0.4103
32126SOL    HW196956   6.159   8.060   5.500  0.3123  0.5581  0.1659
32126SOL    HW296957   6.181   8.082   5.648 -0.1610  1.6350  0.0794
32127SOL     OW96958   6.015   8.518   8.642 -0.3615  0.2088 -0.3607
32127SOL    HW196959   5.952   8.491   8.708 -0.3079 -0.2331 -0.4904
32127SOL    HW296960   6.034   8.439   8.592  0.1747  0.3688 -0.4241
32128SOL     OW96961   4.499   8.031   3.829  0.0319  0.1436  0.1309
32128SOL    HW196962   4.593   8.046   3.834 -0.1418  1.0347  1.2854
32128SOL    HW296963   4.472   8.017   3.920 -1.0304  0.5183 -0.1083
32129SOL     OW96964   0.563   7.178   0.787 -0.1355  0.4793  0.3359
32129SOL    HW196965   0.486   7.141   0.829 -1.0511  1.7581 -0.1468
32129SOL    HW296966   0.631   7.112   0.799 -0.8837 -0.0431  2.0837
32130SOL     OW96967   7.116   7.662   7.780  0.0589  0.2504 -0.0738
32130SOL    HW196968   7.063   7.649   7.701 -0.3198  0.1281  0.2012
32130SOL    HW296969   7.065   7.623   7.851 -0.3748  1.7803  0.5093
32131SOL     OW96970   4.244   4.531   0.071 -0.4036 -0.6982  0.1260
32131SOL    HW196971   4.228   4.602   0.132 -0.3682 -0.4507 -0.1515
32131SOL    HW296972   4.186   4.460   0.100  0.1610 -0.8508  0.8950
32132SOL     OW96973   5.686   4.055   7.365  0.1797  0.0618 -0.1977
32132SOL    HW196974   5.625   3.984   7.346 -0.9417 -0.0777  3.2853
32132SOL    HW296975   5.629   4.130   7.385  1.2328  0.6981  0.4785
32133SOL     OW96976   6.867   1.945   8.084  0.4791  0.2486  0.6813
32133SOL    HW196977   6.892   2.026   8.128 -1.2799  2.4477 -2.0710
32133SOL    HW296978   6.950   1.899   8.071  2.1787  3.4482 -0.9875
32134SOL     OW96979   7.217   2.704   7.704 -0.6267  0.1691 -0.4486
32134SOL    HW196980   7.218   2.795   7.734 -0.6888  0.1423 -0.3657
32134SOL    HW296981   7.294   2.697   7.647 -0.7202  0.3190 -0.5922
32135SOL     OW96982   7.949   3.353   5.614 -0.3225 -0.2075  0.0330
32135SOL    HW196983   7.932   3.259   5.620  0.5999 -0.4936 -1.3082
32135SOL    HW296984   7.891   3.384   5.544 -1.9146  0.6017  1.6355
32136SOL     OW96985   5.910   8.731   2.036  0.2597 -0.2849  0.2670
32136SOL    HW196986   5.826   8.701   2.071  0.3511  0.4160  1.1413
32136SOL    HW296987   5.887   8.797   1.970  0.1049  1.1969  1.7272
32137SOL     OW96988   8.382   0.172   1.797  0.2276  0.2117 -0.6097
32137SOL    HW196989   8.309   0.215   1.843 -1.1164  0.3770 -2.7621
32137SOL    HW296990   8.357   0.174   1.705  2.5913 -0.5347 -1.3393
32138SOL     OW96991   0.211   7.149   2.454 -0.4863  0.2826 -0.0062
32138SOL    HW196992   0.230   7.162   2.546  0.6012 -0.9473 -0.0276
32138SOL    HW296993   0.162   7.067   2.450 -1.2274  0.7223 -0.4746
32139SOL     OW96994   3.823   4.872   9.295  0.7871  0.1701 -0.3002
32139SOL    HW196995   3.823   4.792   9.242  0.7955  0.3957 -0.6426
32139SOL    HW296996   3.768   4.851   9.371  1.0749 -0.2787 -0.2113
32140SOL     OW96997   5.855   8.997   4.503 -0.5089  0.8737 -0.1249
32140SOL    HW196998   5.851   9.049   4.583 -1.8181  1.3548 -0.4844
32140SOL    HW296999   5.847   8.906   4.533  2.2819  0.7595  0.5519
32141SOL     OW97000   6.956   4.964   5.524  0.1640 -0.6179 -0.3759
32141SOL    HW197001   7.025   4.902   5.500 -1.5949 -1.7727 -2.9723
32141SOL    HW297002   6.984   5.047   5.486  1.3745 -0.3739  0.9881
32142SOL     OW97003   1.396   5.083   4.616  0.0484  0.2010  0.4452
32142SOL    HW197004   1.457   5.022   4.576  1.6164  0.9251  1.5944
32142SOL    HW297005   1.387   5.052   4.706 -2.3297 -0.6216 -0.0195
32143SOL     OW97006   4.172   8.885   2.745  0.2379 -0.1923 -0.3355
32143SOL    HW197007   4.125   8.877   2.662 -0.6689  1.2182 -0.0039
32143SOL    HW297008   4.105   8.869   2.811  0.6627 -0.0439  0.1320
32144SOL     OW97009   9.630   1.566   0.142  0.3571 -0.2065 -0.4147
32144SOL    HW197010   9.602   1.482   0.104  0.3239  0.0454 -0.9504
32144SOL    HW297011   9.576   1.575   0.220 -0.5175 -0.1068 -1.0164
32145SOL     OW97012   0.711   7.597   3.217  0.3580 -0.2561  0.1427
32145SOL    HW197013   0.727   7.505   3.198 -2.3006 -0.8493  0.4928
32145SOL    HW297014   0.742   7.643   3.138  0.1906 -1.5902 -0.7365
32146SOL     OW97015   2.903   4.210   5.609 -0.1280  0.5607  0.6548
32146SOL    HW197016   2.941   4.249   5.688  2.3622  0.6247 -0.4580
32146SOL    HW297017   2.963   4.140   5.586 -2.2506 -1.2104  0.2339
32147SOL     OW97018   2.800   4.806   5.405  0.2439  0.5579 -0.0299
32147SOL    HW197019   2.711   4.843   5.397  0.1642  0.3175 -0.2859
32147SOL    HW297020   2.799   4.756   5.486 -0.3754 -0.8377 -0.8561
32148SOL     OW97021   9.679   5.465   9.661  0.0661  0.2385 -0.8497
32148SOL    HW197022   9.754   5.414   9.690  0.8804  1.4614 -0.7396
32148SOL    HW297023   9.633   5.489   9.742 -0.4605 -0.5011 -0.9164
32149SOL     OW97024   1.921   1.195   6.707 -0.4535 -0.0178  0.1102
32149SOL    HW197025   1.982   1.148   6.651 -0.3735  1.3367 -0.9879
32149SOL    HW297026   1.974   1.262   6.750 -1.1144  1.1096 -0.7821
32150SOL     OW97027   0.842   7.175   1.353  0.0376 -0.0090 -0.7860
32150SOL    HW197028   0.822   7.106   1.416  1.1320  0.5512  0.2037
32150SOL    HW297029   0.937   7.170   1.342  0.0338  0.8449 -1.2897
32151SOL     OW97030   0.811   2.558   5.801 -0.9538 -0.2562  0.7980
32151SOL    HW197031   0.731   2.543   5.751 -0.0989  1.1229 -1.1122
32151SOL    HW297032   0.874   2.590   5.737  1.3456 -1.8104  2.1245
32152SOL     OW97033   8.459   4.462   1.035 -0.1489  0.1110 -0.4087
32152SOL    HW197034   8.494   4.549   1.013 -2.4925  1.2275  0.0499
32152SOL    HW297035   8.452   4.462   1.130 -0.4197 -0.4892 -0.4277
32153SOL     OW97036   5.195   6.173  10.004 -0.2464 -0.2264 -0.2396
32153SOL    HW197037   5.168   6.242   9.943 -1.1648  0.4904  0.9368
32153SOL    HW297038   5.195   6.093   9.952 -1.5722  0.2672 -1.0345
32154SOL     OW97039   3.658   7.032   3.871  0.4788  0.5372  0.7402
32154SOL    HW197040   3.563   7.042   3.865  0.4670  0.7316  1.2284
32154SOL    HW297041   3.684   6.994   3.786  0.0540  1.1447  0.3300
32155SOL     OW97042   7.510   8.031   5.661  0.1639  0.5848 -0.2307
32155SOL    HW197043   7.465   7.953   5.694 -0.9142  1.2846 -0.0156
32155SOL    HW297044   7.567   7.998   5.591  0.7993 -0.5921  0.8183
32156SOL     OW97045   1.821   6.174   7.992 -0.8688 -0.8024  0.0669
32156SOL    HW197046   1.845   6.240   8.057 -1.2594 -1.3720  0.8034
32156SOL    HW297047   1.816   6.223   7.910  0.3697 -0.2115  0.3198
32157SOL     OW97048   2.845   1.789   2.306  0.4510 -0.3899  0.1125
32157SOL    HW197049   2.941   1.784   2.314  0.5214  0.3750 -0.1558
32157SOL    HW297050   2.818   1.700   2.286  1.1779 -0.4875 -0.4780
32158SOL     OW97051   8.629   0.202   0.327 -0.0521 -0.3496 -0.1053
32158SOL    HW197052   8.627   0.263   0.253 -1.0437  1.6350  1.4175
32158SOL    HW297053   8.575   0.128   0.298 -0.6660  0.5065 -1.2800
32159SOL     OW97054   9.229   1.346   8.219  0.7638 -0.1259  0.0718
32159SOL    HW197055   9.314   1.387   8.233  0.1091  1.3310  0.0005
32159SOL    HW297056   9.230   1.316   8.128  1.5215 -0.9666  0.3428
32160SOL     OW97057   5.894   3.114   2.035 -0.0654  0.3151  0.4312
32160SOL    HW197058   5.878   3.035   1.983 -0.1164  0.0522  0.8439
32160SOL    HW297059   5.807   3.146   2.057 -0.0721  1.3107 -0.9633
32161SOL     OW97060   3.837   2.231   0.577 -0.0150  0.6435  0.8661
32161SOL    HW197061   3.863   2.318   0.550  0.9940  1.0325  2.9449
32161SOL    HW297062   3.849   2.177   0.499  0.2767  2.1505 -0.1717
32162SOL     OW97063   3.946   0.295   4.334  0.3533 -0.3043  0.0727
32162SOL    HW197064   3.949   0.326   4.424  1.1750 -0.0609 -0.0377
32162SOL    HW297065   3.946   0.375   4.281  1.3527 -0.4589 -0.1792
32163SOL     OW97066   7.128   4.805   4.827 -0.8246 -0.9107 -0.1522
32163SOL    HW197067   7.093   4.716   4.834  0.1637 -1.2568  0.7193
32163SOL    HW297068   7.209   4.795   4.777 -1.1304 -0.3659 -0.7729
32164SOL     OW97069   9.797   6.008   6.289 -0.4284  0.0433 -0.0729
32164SOL    HW197070   9.756   6.043   6.210 -0.2649 -0.6025 -0.4573
32164SOL    HW297071   9.850   6.080   6.323 -1.1605  0.5949 -0.0763
32165SOL     OW97072   2.477   5.105   2.773 -0.4106  0.0506 -0.4719
32165SOL    HW197073   2.457   5.011   2.770 -3.1109  0.5499 -1.3726
32165SOL    HW297074   2.472   5.127   2.866  1.1784 -0.8136 -0.1445
32166SOL     OW97075   9.781   8.875   6.840  0.3016  0.3291  0.6765
32166SOL    HW197076   9.735   8.798   6.874  1.5057 -0.2416  1.0598
32166SOL    HW297077   9.774   8.940   6.910 -0.6808  0.5695  0.3697
32167SOL     OW97078   3.897   0.406   8.376  0.2791  0.4522  0.1535
32167SOL    HW197079   3.952   0.390   8.300 -1.6724 -0.3128 -1.1884
32167SOL    HW297080   3.952   0.457   8.435  1.3009  2.8103 -2.5690
32168SOL     OW97081   9.808   8.372   6.937  0.2832  0.0635 -0.4644
32168SOL    HW197082   9.879   8.432   6.956 -0.3428  0.5158  0.5150
32168SOL    HW297083   9.758   8.414   6.867 -0.8727  1.3322  1.0541
32169SOL     OW97084   3.000   7.825   5.460  0.6673  0.2852  0.2702
32169SOL    HW197085   2.980   7.734   5.483 -0.3606  0.3088 -0.4848
32169SOL    HW297086   2.924   7.875   5.490  0.8548  0.7815 -0.0627
32170SOL     OW97087   5.513   0.244   6.105 -0.0708 -0.1086 -0.9050
32170SOL    HW197088   5.520   0.150   6.088 -0.3800  0.0221 -1.8433
32170SOL    HW297089   5.533   0.254   6.198 -0.3610 -1.1379 -0.7271
32171SOL     OW97090   0.246   8.125   8.750 -0.3232  0.2607 -0.2337
32171SOL    HW197091   0.286   8.039   8.764 -0.4683  0.2973  0.4899
32171SOL    HW297092   0.165   8.106   8.703  0.8532  0.2572 -2.3418
32172SOL     OW97093   9.699   7.895   5.653  0.5272  0.5466 -0.0253
32172SOL    HW197094   9.681   7.856   5.568 -0.3870  1.6500 -0.3589
32172SOL    HW297095   9.763   7.965   5.635  0.6459  0.5164  0.2618
32173SOL     OW97096   6.363   3.088   5.596  0.3836  0.0675  0.6545
32173SOL    HW197097   6.399   3.077   5.684  0.3750 -0.9234  0.5507
32173SOL    HW297098   6.358   2.999   5.561 -0.6600  0.3340  0.0658
32174SOL     OW97099   6.544   9.300   1.123 -0.1285  0.1775  0.2827
32174SOL    HW197100   6.629   9.325   1.159 -0.5558  1.7267  0.2883
32174SOL    HW297101   6.564   9.261   1.038  0.6388 -0.1486  0.6129
32175SOL     OW97102   5.401   9.195   9.867 -0.8028  0.1577 -0.2748
32175SOL    HW197103   5.345   9.228   9.796 -1.1594  0.5275  0.1714
32175SOL    HW297104   5.348   9.127   9.909 -0.6935  0.1135 -0.2105
32176SOL     OW97105   1.614   7.312   9.790 -0.0781 -0.2362  0.3485
32176SOL    HW197106   1.676   7.259   9.739 -0.3628  0.7665 -1.1027
32176SOL    HW297107   1.546   7.337   9.727 -0.1429  1.5358  1.0617
32177SOL     OW97108   8.788   7.529   9.275  0.5435  0.1953  0.0186
32177SOL    HW197109   8.784   7.576   9.191 -3.4538 -0.6054 -0.4577
32177SOL    HW297110   8.747   7.589   9.337  1.2833 -0.1673  0.8689
32178SOL     OW97111   8.947   4.084   4.717  0.0585  0.2280  0.1148
32178SOL    HW197112   8.982   4.003   4.753 -0.1964 -0.1839 -0.5379
32178SOL    HW297113   8.948   4.070   4.622  0.7885  1.3058 -0.0640
32179SOL     OW97114   2.038   0.866   1.167 -0.2679  0.1298  0.6631
32179SOL    HW197115   2.120   0.830   1.200  0.2918  1.4062  0.7041
32179SOL    HW297116   1.983   0.875   1.244  0.6724  2.1432  1.1533
32180SOL     OW97117   7.122   5.101   1.941 -0.1499  0.2837 -0.4568
32180SOL    HW197118   7.168   5.105   2.025  0.3568  1.0397 -0.7656
32180SOL    HW297119   7.151   5.018   1.902 -0.4255 -0.0976  0.1212
32181SOL     OW97120   8.872   4.044   8.291 -0.1420  0.3374  0.5712
32181SOL    HW197121   8.860   4.046   8.196  0.0511 -0.2591  0.5337
32181SOL    HW297122   8.952   3.993   8.305 -0.4134  0.0438  1.0775
32182SOL     OW97123   5.434   5.722   3.880  0.0872 -0.2492  0.3846
32182SOL    HW197124   5.439   5.718   3.784 -1.1168  0.5781  0.2549
32182SOL    HW297125   5.506   5.780   3.905 -0.6068  0.9144 -0.1939
32183SOL     OW97126   8.009   9.252   5.658 -0.5380  0.0562 -0.1707
32183SOL    HW197127   8.069   9.267   5.731 -1.0379  4.4781 -0.3787
32183SOL    HW297128   7.934   9.207   5.697  0.7568 -1.0874  1.1355
32184SOL     OW97129   3.995   5.824   3.090 -0.3843  0.0583 -0.3544
32184SOL    HW197130   4.030   5.737   3.111  1.5606  0.9054  0.0714
32184SOL    HW297131   4.012   5.876   3.168  0.0237  1.2667 -1.2299
32185SOL     OW97132   0.520   4.200   4.673  0.5018  0.1129 -0.7635
32185SOL    HW197133   0.579   4.142   4.721 -0.7660 -0.7801 -0.2330
32185SOL    HW297134   0.497   4.268   4.737  1.0787  0.5597 -1.0247
32186SOL     OW97135   8.802   2.214   3.679  0.1741  0.2179 -0.2450
32186SOL    HW197136   8.897   2.202   3.674  0.2232  0.1531  0.7399
32186SOL    HW297137   8.790   2.289   3.736 -0.3445  0.9092 -1.2385
32187SOL     OW97138   1.422   0.843   0.714  0.0800  0.3879  0.1317
32187SOL    HW197139   1.454   0.794   0.790  1.3301  0.5896 -0.2550
32187SOL    HW297140   1.461   0.930   0.722 -0.1080  0.5401 -0.5145
32188SOL     OW97141   9.184   6.834   5.130  0.3693 -0.2878 -0.2419
32188SOL    HW197142   9.223   6.879   5.055  1.7277 -0.9998  0.0104
32188SOL    HW297143   9.205   6.891   5.205 -0.4141  0.0886 -0.2972
32189SOL     OW97144   2.917   4.053   1.692  0.0739  0.1913  0.0746
32189SOL    HW197145   2.822   4.061   1.695 -0.0676 -1.3314  2.7700
32189SOL    HW297146   2.933   3.959   1.699  1.7776  0.4864  0.5504
32190SOL     OW97147   2.746   6.652   9.479  0.5644 -0.0515  0.1716
32190SOL    HW197148   2.682   6.582   9.488 -2.0198  1.9378 -1.3529
32190SOL    HW297149   2.786   6.638   9.393  0.3977  0.0522  0.0762
32191SOL     OW97150   9.062   9.640   7.953 -0.0017 -0.3910  0.0741
32191SOL    HW197151   9.124   9.577   7.916  0.0306  0.4689 -1.4105
32191SOL    HW297152   9.115   9.714   7.980 -0.0896 -0.7969  1.4266
32192SOL     OW97153   5.158   7.350   8.615 -0.5497  0.0263  0.3170
32192SOL    HW197154   5.114   7.309   8.690 -2.6409  0.8156 -0.3872
32192SOL    HW297155   5.108   7.319   8.539  1.5444 -0.8026 -0.8069
32193SOL     OW97156   5.011   2.431   2.962 -0.4839  0.1326  0.6113
32193SOL    HW197157   5.066   2.422   2.884 -1.2180  1.7161 -0.1268
32193SOL    HW297158   5.064   2.392   3.032  2.6727  3.4717  0.4121
32194SOL     OW97159   2.906   4.957   7.186  0.1556  0.3154  0.0253
32194SOL    HW197160   2.994   4.993   7.200  0.5581 -0.6166 -0.0131
32194SOL    HW297161   2.911   4.914   7.101  0.1975 -1.2451  0.7780
32195SOL     OW97162   9.954   4.010   4.940 -0.1645  0.3901 -0.0657
32195SOL    HW197163   9.968   4.056   5.023 -1.0100  0.0472  0.2862
32195SOL    HW297164   9.911   3.928   4.965  0.9934 -0.4449 -0.7137
32196SOL     OW97165   8.112   1.823   6.138  0.1214  0.7078 -0.0518
32196SOL    HW197166   8.048   1.843   6.070  0.6929  0.6465 -0.6174
32196SOL    HW297167   8.173   1.762   6.097  0.5932  0.8252  0.4541
32197SOL     OW97168   5.974   8.851   9.575 -0.2019  0.4567  0.3453
32197SOL    HW197169   6.014   8.927   9.533  1.1255  0.3081  1.2557
32197SOL    HW297170   6.022   8.841   9.657 -0.1569 -1.4956  0.1451
32198SOL     OW97171   8.054   3.901   3.442 -0.1953 -0.1085 -0.7633
32198SOL    HW197172   8.109   3.826   3.464  1.2067  0.3158 -2.5118
32198SOL    HW297173   7.997   3.870   3.371 -0.2441  0.2166 -0.8709
32199SOL     OW97174   2.320   8.930   3.969 -0.2075  0.4380  0.4193
32199SOL    HW197175   2.384   8.996   3.943 -0.3923  0.1870 -0.7421
32199SOL    HW297176   2.260   8.976   4.028 -0.5291  1.4137 -0.6311
32200SOL     OW97177   1.886   6.945   8.045 -0.5011  0.1038  0.7190
32200SOL    HW197178   1.805   6.991   8.067 -1.2435 -1.6942  2.0159
32200SOL    HW297179   1.858   6.874   7.986  0.6568  1.3965 -1.5354
32201SOL     OW97180   0.828   0.668   4.948 -0.3837  0.8377  0.0653
32201SOL    HW197181   0.768   0.595   4.936  0.7118  0.0231 -0.5584
32201SOL    HW297182   0.823   0.718   4.867 -0.4200  0.9378  0.1276
32202SOL     OW97183   8.872   7.234   3.712  0.1195 -0.0177  0.0346
32202SOL    HW197184   8.817   7.185   3.651 -0.9991  0.2131  0.8406
32202SOL    HW297185   8.876   7.322   3.675 -0.3910  0.0702  0.1863
32203SOL     OW97186   6.311   2.950   7.232 -0.6208  0.3286 -0.1381
32203SOL    HW197187   6.376   2.900   7.183  1.2584  1.3563  1.1369
32203SOL    HW297188   6.320   2.919   7.322  0.1684  2.3951  0.5798
32204SOL     OW97189   1.150   2.607   8.932 -0.1030  0.0814  0.4619
32204SOL    HW197190   1.166   2.684   8.877 -0.6480  0.1840  0.4376
32204SOL    HW297191   1.209   2.540   8.898 -2.1295 -0.6541 -1.9121
32205SOL     OW97192   7.542   9.785   6.427  0.0918 -0.5790  0.0626
32205SOL    HW197193   7.512   9.695   6.440  2.8876 -1.5066  0.6007
32205SOL    HW297194   7.594   9.805   6.505  1.6228  0.5602 -1.1919
32206SOL     OW97195   8.671   8.109   2.268 -0.2043  0.3814 -0.3768
32206SOL    HW197196   8.636   8.192   2.299  0.3825  0.3388  0.4297
32206SOL    HW297197   8.694   8.060   2.347 -1.1417 -0.8342 -0.8117
32207SOL     OW97198   6.236   5.588   6.154  0.1708 -0.4442 -0.3503
32207SOL    HW197199   6.181   5.528   6.204  0.4361 -1.2023 -0.9419
32207SOL    HW297200   6.322   5.581   6.196  0.3014 -0.7944 -0.6721
32208SOL     OW97201   0.495   3.753   7.399 -0.5460 -0.2078 -0.2394
32208SOL    HW197202   0.588   3.752   7.377 -0.7011  1.6550 -1.1171
32208SOL    HW297203   0.466   3.663   7.383  1.9469 -2.1614  4.2034
32209SOL     OW97204   7.698   2.171   3.190  0.3021  0.4053 -1.0389
32209SOL    HW197205   7.632   2.205   3.129  0.2263  0.6493 -0.8231
32209SOL    HW297206   7.749   2.248   3.215 -0.0498  0.4136 -0.3292
32210SOL     OW97207   0.318   4.741   0.170  0.8931 -0.0855 -0.2865
32210SOL    HW197208   0.395   4.797   0.180  2.0951 -1.5021 -1.2979
32210SOL    HW297209   0.246   4.802   0.152  1.9830  1.1848 -0.4441
32211SOL     OW97210   3.078   6.673   8.591  0.9385 -0.3357  0.7697
32211SOL    HW197211   3.027   6.740   8.545 -0.2120 -2.0842 -0.6674
32211SOL    HW297212   3.025   6.650   8.667  0.4509 -0.8005  0.3083
32212SOL     OW97213   4.391   1.210   8.492  0.0329  0.0354  0.4823
32212SOL    HW197214   4.356   1.283   8.441 -0.0803 -0.1230  0.3303
32212SOL    HW297215   4.329   1.199   8.564 -0.3328 -0.3603  0.1132
32213SOL     OW97216   0.754   8.073   7.220 -0.3209 -0.5657 -0.0317
32213SOL    HW197217   0.727   8.135   7.152 -0.8609 -0.8127 -0.0520
32213SOL    HW297218   0.846   8.092   7.236 -0.1629 -0.5609 -0.9043
32214SOL     OW97219   9.573   0.369   4.135  0.4857 -0.7817 -0.2537
32214SOL    HW197220   9.583   0.420   4.055  1.4860 -1.0519 -0.3253
32214SOL    HW297221   9.647   0.395   4.189 -0.8111  0.2457  1.0827
32215SOL     OW97222   7.111   3.210   5.873  0.7606  0.2936  0.3132
32215SOL    HW197223   7.080   3.186   5.960  0.7753 -1.3589 -0.1077
32215SOL    HW297224   7.036   3.196   5.816  1.4566 -1.1415 -0.3013
32216SOL     OW97225   4.856   1.734   2.680 -0.2307  0.2377  0.0706
32216SOL    HW197226   4.836   1.817   2.637 -3.9193 -0.2576  0.4600
32216SOL    HW297227   4.791   1.673   2.645  2.4800 -2.6674 -0.3945
32217SOL     OW97228   2.631   7.802   4.472  0.0190 -0.2991 -0.6092
32217SOL    HW197229   2.570   7.855   4.523 -0.3697  0.2415 -1.5914
32217SOL    HW297230   2.712   7.853   4.471  0.4505 -0.9346  0.5492
32218SOL     OW97231   7.879   1.280   7.337  0.2667  0.7480 -0.2855
32218SOL    HW197232   7.965   1.308   7.305  0.5328  0.5862  0.2708
32218SOL    HW297233   7.852   1.350   7.397  0.0096  0.7981 -0.4584
32219SOL     OW97234   1.324   4.649   9.045 -0.2650 -0.3471  0.1440
32219SOL    HW197235   1.385   4.714   9.011  1.7751 -2.2534 -0.0559
32219SOL    HW297236   1.357   4.566   9.012 -2.1191 -1.6143  1.3074
32220SOL     OW97237   4.804   7.838   6.649  0.2619 -0.6157 -0.0857
32220SOL    HW197238   4.745   7.827   6.574 -0.1132 -1.5588  0.3304
32220SOL    HW297239   4.880   7.784   6.628  0.1627 -0.8690  0.2016
32221SOL     OW97240   1.660   7.600   8.756 -0.0468 -0.7440  0.2680
32221SOL    HW197241   1.755   7.597   8.767  0.3031 -2.1375 -2.3321
32221SOL    HW297242   1.625   7.545   8.826  1.1917 -1.5592  0.2680
32222SOL     OW97243   7.378   3.200   4.755  0.0096 -0.0536  0.1782
32222SOL    HW197244   7.356   3.243   4.838 -0.2372  0.0606  0.0559
32222SOL    HW297245   7.344   3.259   4.688 -0.6330 -0.5973  0.0128
32223SOL     OW97246   0.621   7.309   1.325  0.0680  0.3518  0.8775
32223SOL    HW197247   0.705   7.263   1.330  0.9067  1.7295  0.3747
32223SOL    HW297248   0.632   7.384   1.384 -0.7760  0.5850  0.7456
32224SOL     OW97249   4.023   3.376   3.122  0.1763 -0.5108 -0.3777
32224SOL    HW197250   4.059   3.341   3.040  0.7749  2.4312 -1.4777
32224SOL    HW297251   3.949   3.430   3.095  1.4036  1.9007  0.7192
32225SOL     OW97252   9.680   3.802   1.333 -0.1235 -0.4927  0.0535
32225SOL    HW197253   9.588   3.801   1.361  0.2117 -1.6463  1.2477
32225SOL    HW297254   9.676   3.810   1.238 -1.4336  0.3078  0.1530
32226SOL     OW97255   8.351   8.617   5.652 -0.1972  0.2374 -0.4971
32226SOL    HW197256   8.260   8.593   5.636 -0.4798  0.8400  0.1395
32226SOL    HW297257   8.346   8.704   5.693  0.5958 -0.2665  0.7310
32227SOL     OW97258   8.594   6.115   4.893 -0.4116 -0.5535 -0.4239
32227SOL    HW197259   8.606   6.072   4.977  0.0021  0.3422 -0.0094
32227SOL    HW297260   8.506   6.154   4.898 -0.2735 -0.2541 -0.2844
32228SOL     OW97261   9.634   1.432   4.163 -0.2224  0.1051  0.5310
32228SOL    HW197262   9.641   1.487   4.241  1.0832  1.6518 -0.6245
32228SOL    HW297263   9.718   1.440   4.120 -0.8639 -0.8448 -0.9697
32229SOL     OW97264   1.244   0.227   1.784 -0.0071 -0.3750 -0.2938
32229SOL    HW197265   1.302   0.186   1.720 -2.2269 -2.1227 -1.3276
32229SOL    HW297266   1.228   0.157   1.849 -0.1330  0.4194  0.5515
32230SOL     OW97267   7.690   9.058   1.132  0.4945 -0.2761  0.4812
32230SOL    HW197268   7.641   8.975   1.129 -0.8623  0.4579  1.2481
32230SOL    HW297269   7.720   9.065   1.222 -0.9866  0.9136  0.9178
32231SOL     OW97270   0.479   1.552   1.796  0.2104 -0.2122 -0.0960
32231SOL    HW197271   0.471   1.534   1.702  1.0179  1.7983 -0.5932
32231SOL    HW297272   0.566   1.590   1.805  0.3115 -0.7900  1.5624
32232SOL     OW97273   8.146   6.336   7.031  0.3333  0.0134 -0.3936
32232SOL    HW197274   8.094   6.378   6.962 -0.6005  0.3940  0.5166
32232SOL    HW297275   8.121   6.383   7.111  1.7865 -0.0739  0.1301
32233SOL     OW97276   9.598   4.694   9.439  0.1762  0.2558  0.1154
32233SOL    HW197277   9.586   4.767   9.378  1.1015  1.8354  1.7215
32233SOL    HW297278   9.516   4.690   9.488  0.4703  0.8872  0.6779
32234SOL     OW97279   3.395   3.325   1.464 -0.1098  0.3203  0.0348
32234SOL    HW197280   3.355   3.372   1.537 -1.7089  2.0033 -1.7798
32234SOL    HW297281   3.425   3.394   1.405  1.1964 -0.9760 -0.8813
32235SOL     OW97282   5.633   6.444   0.216 -0.0989 -0.6284  0.5620
32235SOL    HW197283   5.666   6.418   0.303 -1.3874  0.3567  1.3907
32235SOL    HW297284   5.681   6.389   0.155  2.4663  0.1381  1.7407
32236SOL     OW97285   7.044   7.630   3.861  0.3654  0.3281  0.0298
32236SOL    HW197286   6.984   7.575   3.912 -0.3060  0.2288 -0.8442
32236SOL    HW297287   7.056   7.708   3.915 -0.3030  0.2148  0.3607
32237SOL     OW97288   9.430   3.062   5.998  0.2697 -0.2251  0.3524
32237SOL    HW197289   9.411   3.018   6.080 -0.3981 -0.7613 -0.0781
32237SOL    HW297290   9.498   3.126   6.020 -0.7198  0.4565  1.5717
32238SOL     OW97291   2.538   8.686   3.318  0.1539  0.7447 -0.6025
32238SOL    HW197292   2.454   8.716   3.282 -0.1297  1.2498  0.4452
32238SOL    HW297293   2.530   8.701   3.412  1.7056  1.5359 -0.5647
32239SOL     OW97294   2.366   7.438   2.856 -0.0061 -0.4267 -0.1989
32239SOL    HW197295   2.364   7.452   2.950  0.9583 -0.8279 -0.1028
32239SOL    HW297296   2.355   7.526   2.818  2.8728  0.2741  0.3484
32240SOL     OW97297   4.759   5.176   3.882  0.4329  0.0788 -0.4389
32240SOL    HW197298   4.667   5.198   3.864  0.4885 -0.0241 -0.8706
32240SOL    HW297299   4.764   5.081   3.869  0.8581  0.2435 -1.6369
32241SOL     OW97300   7.511   0.513   6.268  0.7841 -0.6084  0.1111
32241SOL    HW197301   7.535   0.578   6.203 -0.1625 -0.2857  0.0670
32241SOL    HW297302   7.536   0.429   6.229 -0.3014 -0.4709 -0.9267
32242SOL     OW97303   3.245   7.076   4.902  0.1940 -0.0355 -0.6374
32242SOL    HW197304   3.167   7.111   4.946 -0.1635  1.3116 -2.2508
32242SOL    HW297305   3.308   7.062   4.973 -1.5754 -1.4720  0.7513
32243SOL     OW97306   0.764   8.096   5.747 -0.1858  0.3224 -0.1915
32243SOL    HW197307   0.838   8.113   5.688  0.0682  1.4039  0.4013
32243SOL    HW297308   0.805   8.087   5.834 -0.3546 -2.9445 -0.3199
32244SOL     OW97309   4.568   7.305   6.531 -0.6525 -0.0358 -0.1291
32244SOL    HW197310   4.563   7.247   6.455  1.1550  1.2049 -1.2704
32244SOL    HW297311   4.659   7.299   6.560 -1.3480 -0.6820  2.1686
32245SOL     OW97312   1.768   6.844   5.233  0.2022 -0.6759 -0.6869
32245SOL    HW197313   1.695   6.793   5.200 -0.7834  0.6685 -0.6910
32245SOL    HW297314   1.730   6.929   5.255  2.0142  0.5929 -2.0998
32246SOL     OW97315   6.942   4.845   1.297 -0.1076  0.2308 -0.1185
32246SOL    HW197316   6.892   4.806   1.226 -1.3967  1.3626  0.1089
32246SOL    HW297317   6.876   4.890   1.350  1.0577  1.0440  0.6908
32247SOL     OW97318   6.034   3.242   1.842 -0.2588  0.2887  0.0713
32247SOL    HW197319   6.121   3.256   1.881 -0.1482 -0.9744  0.3123
32247SOL    HW297320   5.976   3.229   1.917 -0.6856  1.2415 -0.0870
32248SOL     OW97321   7.382   2.670   4.773 -0.6449 -0.0826 -0.1629
32248SOL    HW197322   7.424   2.597   4.728  2.3447  0.0685  2.0759
32248SOL    HW297323   7.420   2.748   4.732 -0.2541  0.0905  0.5048
32249SOL     OW97324   2.910   1.357   1.162  0.4130 -0.5208 -0.1662
32249SOL    HW197325   2.832   1.302   1.168  0.0047  0.0034 -0.5503
32249SOL    HW297326   2.982   1.295   1.150  0.1545 -1.0513  0.9118
32250SOL     OW97327   5.620   6.484   5.033 -0.0058  0.1031  0.2001
32250SOL    HW197328   5.683   6.451   4.968  0.4336  0.7281  0.3017
32250SOL    HW297329   5.648   6.446   5.116 -1.4834 -1.9757 -0.1671
32251SOL     OW97330   6.044   2.391   4.448  0.3609  0.5546 -0.5101
32251SOL    HW197331   6.078   2.365   4.533 -0.3740  2.0722  0.2860
32251SOL    HW297332   6.034   2.486   4.454  0.0755  0.6721 -2.2146
32252SOL     OW97333   0.927   7.800   7.771  0.2016  0.2341  0.0883
32252SOL    HW197334   0.843   7.760   7.748 -0.0538  0.9986 -0.3474
32252SOL    HW297335   0.975   7.730   7.815 -0.9497 -0.0047  1.0388
32253SOL     OW97336   6.738   6.105   0.634 -0.3422 -0.2296  0.2851
32253SOL    HW197337   6.668   6.108   0.570 -0.3657  0.3076  0.3334
32253SOL    HW297338   6.695   6.084   0.717 -0.2558 -1.3817  0.0570
32254SOL     OW97339   9.459   2.579   2.500 -0.1399 -0.0666 -0.5340
32254SOL    HW197340   9.369   2.568   2.470 -0.9690  2.6763  0.5878
32254SOL    HW297341   9.507   2.606   2.422 -0.0759 -2.2112 -1.2862
32255SOL     OW97342   8.063   5.809   6.809  0.4107  0.0140  0.3238
32255SOL    HW197343   8.149   5.822   6.769  0.1860 -0.8491 -0.4491
32255SOL    HW297344   8.015   5.889   6.786  1.0153  0.5478  0.8403
32256SOL     OW97345   0.898   9.329   4.688 -0.1446 -0.4693  0.0148
32256SOL    HW197346   0.982   9.319   4.733 -0.1616 -0.2334  0.0989
32256SOL    HW297347   0.898   9.260   4.622  0.1334 -0.4457 -0.0100
32257SOL     OW97348   3.939   3.078   2.812 -0.3295  0.7637 -0.5985
32257SOL    HW197349   3.930   3.061   2.718 -1.2504  0.1153 -0.4057
32257SOL    HW297350   3.857   3.046   2.850 -0.4309  2.0298  0.2921
32258SOL     OW97351   0.186   2.079   6.521  0.6735 -0.3309 -0.0817
32258SOL    HW197352   0.148   2.067   6.434 -0.7495 -3.2253  0.7984
32258SOL    HW297353   0.275   2.111   6.504  1.1382 -2.5839 -2.7646
32259SOL     OW97354   1.129   2.723   8.656 -0.0694  0.1983 -0.6740
32259SOL    HW197355   1.205   2.774   8.685 -0.5094  0.5551 -0.1541
32259SOL    HW297356   1.061   2.788   8.640 -0.4269 -0.1698 -0.6556
32260SOL     OW97357   6.903   4.297   9.847  0.0119  0.4668 -0.3612
32260SOL    HW197358   6.963   4.350   9.899 -1.6100  2.0503  0.0095
32260SOL    HW297359   6.904   4.211   9.889  2.4225  0.2231 -0.7490
32261SOL     OW97360   8.747   4.088   0.609 -0.4812 -0.0908 -0.4923
32261SOL    HW197361   8.825   4.137   0.637 -0.6253  0.5496 -1.1616
32261SOL    HW297362   8.777   3.998   0.599 -0.4229 -0.3656  1.6575
32262SOL     OW97363   8.802   0.738   1.128  0.4074 -0.4051 -0.3409
32262SOL    HW197364   8.794   0.833   1.121 -2.3680 -0.5234  0.0760
32262SOL    HW297365   8.839   0.711   1.044 -0.3683  0.9207 -1.1470
32263SOL     OW97366   9.745   0.822   1.519 -0.3304  0.2032 -0.8361
32263SOL    HW197367   9.693   0.743   1.533 -0.5505  0.3177 -1.0083
32263SOL    HW297368   9.742   0.836   1.424  0.0127  0.2097 -0.8482
32264SOL     OW97369   6.330   9.734   3.305  0.0781  0.1818 -0.1362
32264SOL    HW197370   6.381   9.731   3.386  1.1895 -0.2829 -0.8342
32264SOL    HW297371   6.256   9.675   3.322  1.4858 -1.7132 -0.2063
32265SOL     OW97372   2.692   4.028   0.357 -0.3307  0.0872  0.0409
32265SOL    HW197373   2.696   4.092   0.428  2.2919  0.9657 -0.7565
32265SOL    HW297374   2.676   3.944   0.400  0.0257  0.7593  1.5350
32266SOL     OW97375   1.630   1.536   9.431  0.5902 -0.3238 -0.3923
32266SOL    HW197376   1.599   1.532   9.341  0.6074 -0.5666 -0.3887
32266SOL    HW297377   1.550   1.539   9.484  0.5778  0.8269 -0.4539
32267SOL     OW97378   4.010   3.058   0.884  0.4865 -0.8945 -0.3354
32267SOL    HW197379   4.016   3.110   0.964 -2.5369  1.5912 -1.5134
32267SOL    HW297380   4.080   3.092   0.828  0.6680 -0.4854  0.1286
32268SOL     OW97381   6.894   1.963   3.098  0.5560  0.2577 -0.1803
32268SOL    HW197382   6.879   2.006   3.183  0.1932 -2.5129  1.2720
32268SOL    HW297383   6.809   1.964   3.055  0.0151 -0.9035  0.8170
32269SOL     OW97384   3.267   5.397   5.272 -0.0325 -0.4938 -0.2707
32269SOL    HW197385   3.260   5.463   5.341  1.1619 -0.2432 -0.3763
32269SOL    HW297386   3.319   5.327   5.310  1.4395  0.0549 -1.1902
32270SOL     OW97387   5.172   9.021   2.857 -0.3575 -0.1567 -0.3341
32270SOL    HW197388   5.127   9.091   2.903  0.2236 -0.3628  0.5655
32270SOL    HW297389   5.254   9.060   2.827 -0.2028 -0.3456 -0.1595
32271SOL     OW97390   9.783   0.534   6.698  0.4498 -0.0109 -0.1306
32271SOL    HW197391   9.784   0.629   6.705  0.0949  0.0667 -1.0550
32271SOL    HW297392   9.868   0.506   6.732  0.1276  0.5517  1.1901
32272SOL     OW97393   9.458   6.690   4.647 -0.1294  0.8476  0.5942
32272SOL    HW197394   9.438   6.773   4.692  2.5311  0.4539  2.7192
32272SOL    HW297395   9.479   6.716   4.558 -2.2408  2.0636  0.3835
32273SOL     OW97396   8.122   2.820   3.907 -0.3005 -0.0440  0.3247
32273SOL    HW197397   8.033   2.814   3.941 -0.8985 -0.2787 -1.2250
32273SOL    HW297398   8.134   2.912   3.887  0.0356  0.0854  1.0617
32274SOL     OW97399   9.860   4.713   6.849  0.0131 -0.3404 -0.3392
32274SOL    HW197400   9.886   4.665   6.771  0.7316 -3.1904  1.5165
32274SOL    HW297401   9.766   4.697   6.858 -0.2984  0.8851 -1.1271
32275SOL     OW97402   3.079   7.851   0.922 -0.3950 -0.3516  0.1539
32275SOL    HW197403   3.004   7.835   0.979 -0.0759  0.5602  0.8710
32275SOL    HW297404   3.043   7.899   0.848 -0.7649 -1.2746 -0.2776
32276SOL     OW97405   3.869   5.249   5.639 -0.0190 -0.2185  0.0291
32276SOL    HW197406   3.880   5.157   5.663 -2.7331  0.2280  3.9206
32276SOL    HW297407   3.814   5.247   5.560 -0.0699 -1.9415  0.0795
32277SOL     OW97408   1.458   3.362   5.401 -0.2417  0.3517  0.3772
32277SOL    HW197409   1.439   3.453   5.375  0.4615  1.0465  2.0964
32277SOL    HW297410   1.540   3.368   5.450  1.3405 -1.6659 -1.8298
32278SOL     OW97411   0.404   3.625   3.210  0.2759  0.6340 -0.2260
32278SOL    HW197412   0.343   3.697   3.192 -1.9650 -0.8361  0.9929
32278SOL    HW297413   0.351   3.559   3.255  3.2032  0.0073  2.6950
32279SOL     OW97414   9.394   9.808   2.430 -0.0992  0.0981  0.5476
32279SOL    HW197415   9.440   9.823   2.348 -1.8717 -0.2792 -0.5780
32279SOL    HW297416   9.414   9.885   2.483 -0.7144  1.4652 -1.1246
32280SOL     OW97417   7.451   2.929   0.134  0.2286 -0.3298  0.0207
32280SOL    HW197418   7.440   2.888   0.048 -1.6931  0.9082 -0.3868
32280SOL    HW297419   7.486   2.859   0.189 -0.8628 -1.8896 -1.1717
32281SOL     OW97420   0.997   5.594   8.019  0.5084 -0.2260 -0.1602
32281SOL    HW197421   1.059   5.611   8.089 -0.8515 -0.3007  1.1048
32281SOL    HW297422   0.918   5.642   8.044 -0.5246 -1.4814 -0.8602
32282SOL     OW97423   9.669   2.226   6.693  0.2276 -0.1336  0.2713
32282SOL    HW197424   9.663   2.172   6.615  2.9140 -0.6711  0.3282
32282SOL    HW297425   9.761   2.254   6.696 -0.7394  3.5240  0.8795
32283SOL     OW97426   3.543   9.663   9.163 -0.2798  0.4772  0.6299
32283SOL    HW197427   3.493   9.717   9.224  0.2637  0.8071  0.7917
32283SOL    HW297428   3.631   9.660   9.200 -0.0792  0.2282  0.1457
32284SOL     OW97429   5.625   1.171   9.851  0.3530 -0.2605 -0.3775
32284SOL    HW197430   5.650   1.085   9.816  4.5573 -0.0024  1.3041
32284SOL    HW297431   5.699   1.228   9.828 -0.8935  2.1478  1.1841
32285SOL     OW97432   8.029   3.794   1.958 -0.5294 -0.1939 -0.0261
32285SOL    HW197433   7.969   3.720   1.955  1.4919 -1.9742  0.8052
32285SOL    HW297434   8.073   3.786   2.042  1.6392  0.3159 -1.0268
32286SOL     OW97435   3.055   2.931   2.406 -0.1568 -0.0657 -0.0945
32286SOL    HW197436   3.102   3.003   2.364 -1.1799  0.8617  0.2981
32286SOL    HW297437   3.059   2.951   2.500 -1.8063  0.3690 -0.0815
32287SOL     OW97438   2.094   4.847   6.900  0.3757  0.3710  0.2469
32287SOL    HW197439   2.129   4.935   6.913  0.9736 -0.0114  1.3972
32287SOL    HW297440   2.076   4.815   6.988  0.1095 -0.6331 -0.1541
32288SOL     OW97441   1.674   5.636   3.386 -0.3095 -0.2725 -0.4151
32288SOL    HW197442   1.727   5.715   3.385  0.5241 -0.8182 -0.9192
32288SOL    HW297443   1.643   5.628   3.476  0.2021  0.2287 -0.1912
32289SOL     OW97444   1.270   4.850   4.878  0.8015 -0.1515 -0.0435
32289SOL    HW197445   1.344   4.910   4.884 -1.5053  2.9967 -0.5137
32289SOL    HW297446   1.280   4.809   4.792  1.4250  1.0651 -0.5752
32290SOL     OW97447   6.018   5.619   0.444  0.4496 -0.1174 -0.3567
32290SOL    HW197448   5.992   5.560   0.515 -1.2167 -1.0027 -1.6162
32290SOL    HW297449   6.014   5.565   0.365  1.3132  1.0717 -1.2590
32291SOL     OW97450   4.041   1.380   9.693 -0.4595  0.3945 -0.1937
32291SOL    HW197451   4.114   1.436   9.667  2.6215 -2.4563  1.4848
32291SOL    HW297452   4.013   1.337   9.613  0.8457  0.3546 -0.6510
32292SOL     OW97453   9.254   3.240   8.462 -0.2129  0.0936 -0.3602
32292SOL    HW197454   9.200   3.230   8.541 -0.9850  1.3176 -0.7094
32292SOL    HW297455   9.198   3.288   8.401  1.1719  1.1492 -0.8353
32293SOL     OW97456   9.432   3.163   9.122 -0.2853 -0.0916  0.3165
32293SOL    HW197457   9.418   3.090   9.062  3.6113 -0.1796 -0.7552
32293SOL    HW297458   9.436   3.240   9.066  0.7584  0.1946  0.7569
32294SOL     OW97459   3.189   0.903   3.821 -0.4621 -0.3581  0.0938
32294SOL    HW197460   3.167   0.894   3.914 -1.4815  1.3215  0.0495
32294SOL    HW297461   3.109   0.881   3.775 -0.7605  1.3182 -0.2552
32295SOL     OW97462   2.831   5.401   6.560 -0.1192 -0.1483  0.0361
32295SOL    HW197463   2.786   5.350   6.492 -0.5775  3.7576 -2.9850
32295SOL    HW297464   2.760   5.431   6.617 -0.9041  1.9264 -1.8351
32296SOL     OW97465   5.604   6.636   2.152  0.2636  0.3959 -0.4631
32296SOL    HW197466   5.566   6.699   2.091 -0.9488 -0.6425 -0.8255
32296SOL    HW297467   5.542   6.563   2.154  1.9142 -1.0881 -0.5393
32297SOL     OW97468   1.042   8.611   8.804 -0.3176  0.1681  0.0071
32297SOL    HW197469   1.002   8.540   8.854 -1.3420  0.6613 -0.0924
32297SOL    HW297470   1.043   8.580   8.714 -1.0035  0.3651 -0.0775
32298SOL     OW97471   0.501   4.757   4.569  0.1052 -0.1276  0.5568
32298SOL    HW197472   0.515   4.785   4.479 -3.3739 -1.3117 -0.4993
32298SOL    HW297473   0.518   4.836   4.621 -1.1972  1.6240 -1.4916
32299SOL     OW97474   0.430   0.896   1.531  0.3313  0.3672 -0.3999
32299SOL    HW197475   0.520   0.921   1.549  0.4401  0.5426 -1.1559
32299SOL    HW297476   0.429   0.874   1.438 -0.4256  0.4409 -0.4184
32300SOL     OW97477   6.709   4.717   8.842  0.0551  0.0998  0.0599
32300SOL    HW197478   6.780   4.709   8.778  0.6149 -0.6008  0.7557
32300SOL    HW297479   6.656   4.638   8.827 -1.3695  1.2524 -1.3623
32301SOL     OW97480   4.924   5.307   9.483  0.3305 -0.0037  0.4003
32301SOL    HW197481   4.896   5.333   9.396  2.3355  1.2231  0.0482
32301SOL    HW297482   4.878   5.366   9.542 -1.5492 -1.2707  0.2982
32302SOL     OW97483   8.612   9.599   9.254 -0.4836 -0.5923 -0.0764
32302SOL    HW197484   8.686   9.645   9.294  0.1727 -3.1837  1.9793
32302SOL    HW297485   8.538   9.619   9.311 -0.2428 -1.7891  0.6974
32303SOL     OW97486   7.284   9.299   8.416 -0.5546  0.3997  0.4761
32303SOL    HW197487   7.215   9.303   8.483 -0.0909  1.2161  0.9095
32303SOL    HW297488   7.303   9.205   8.408 -1.4096  0.2011  0.6647
32304SOL     OW97489   9.760   2.539   1.683 -0.2856  0.7425  0.2110
32304SOL    HW197490   9.680   2.500   1.720 -0.8156  2.5014  1.0118
32304SOL    HW297491   9.828   2.518   1.748 -0.0166 -0.8709 -0.5345
32305SOL     OW97492   8.691   1.638   7.866 -0.3034  0.1537  0.3069
32305SOL    HW197493   8.784   1.658   7.876 -0.0342 -1.0270  0.3377
32305SOL    HW297494   8.687   1.585   7.787 -1.0154  0.5643  0.0631
32306SOL     OW97495   8.237   3.036   7.859  0.3901  0.0373 -0.2092
32306SOL    HW197496   8.207   3.043   7.949  0.9533 -0.8685  0.0604
32306SOL    HW297497   8.326   3.002   7.865  0.4275 -0.0727 -1.1040
32307SOL     OW97498   9.953   5.659   6.825 -0.0861  0.1010 -0.0948
32307SOL    HW197499  10.040   5.674   6.790 -0.0315  0.0068  0.0003
32307SOL    HW297500   9.935   5.567   6.807  0.3921 -0.2469  1.1106
32308SOL     OW97501   9.443   2.220   7.545 -0.2942  0.2354 -0.1970
32308SOL    HW197502   9.407   2.145   7.497  0.2303  0.1260 -0.4309
32308SOL    HW297503   9.368   2.276   7.563 -0.5314  0.1930 -1.0080
32309SOL     OW97504   5.748   1.959   9.664 -0.0289  0.2323  0.1993
32309SOL    HW197505   5.789   2.020   9.603  1.4191 -0.3609  0.5394
32309SOL    HW297506   5.821   1.918   9.710 -1.0352 -0.3758  1.3286
32310SOL     OW97507   0.423   2.417   7.624 -0.5837 -0.1635  0.3172
32310SOL    HW197508   0.417   2.416   7.529  0.6785  1.5748  0.1619
32310SOL    HW297509   0.517   2.422   7.642 -0.7953 -0.5699  1.6640
32311SOL     OW97510   4.082   6.762   7.524  0.4082 -0.1088  0.3867
32311SOL    HW197511   4.165   6.795   7.558  1.6196 -2.1318 -0.3826
32311SOL    HW297512   4.020   6.834   7.535  2.3993  1.6801  0.4545
32312SOL     OW97513   4.766   8.610   8.345  0.1550 -0.1086  0.0390
32312SOL    HW197514   4.803   8.527   8.376 -0.8862 -1.0621 -1.1046
32312SOL    HW297515   4.687   8.583   8.297  0.1708  1.5004 -0.9493
32313SOL     OW97516   1.206   5.073   8.137 -0.1957  0.2133  0.4984
32313SOL    HW197517   1.301   5.069   8.148 -0.1285 -0.4351 -0.2564
32313SOL    HW297518   1.191   5.155   8.089  0.0649 -0.1153 -0.1547
32314SOL     OW97519   5.811   5.945   2.108 -0.4507  0.1894  0.3774
32314SOL    HW197520   5.780   5.942   2.017  0.0468 -2.7309  0.1886
32314SOL    HW297521   5.751   6.004   2.153 -1.2221  1.0402 -1.6527
32315SOL     OW97522   5.261   4.462   8.762 -0.0609 -0.1624  0.3322
32315SOL    HW197523   5.313   4.534   8.796 -0.7196  0.3021  0.3726
32315SOL    HW297524   5.183   4.504   8.725 -0.3708 -0.8384  0.2014
32316SOL     OW97525   0.877   8.920   4.194  0.0653 -0.3703  0.3568
32316SOL    HW197526   0.950   8.962   4.149  0.2406  0.5946  1.4913
32316SOL    HW297527   0.905   8.830   4.206  0.0291 -0.6446 -1.3890
32317SOL     OW97528   1.793   5.380   3.255  0.0551 -0.3869 -0.1864
32317SOL    HW197529   1.829   5.306   3.304  1.1548 -0.9680 -1.7709
32317SOL    HW297530   1.774   5.446   3.321  4.0440 -0.0182  0.8914
32318SOL     OW97531   6.897   9.936   4.483 -0.2993 -0.2316 -0.7476
32318SOL    HW197532   6.815   9.902   4.517  0.9703 -1.6178  1.1551
32318SOL    HW297533   6.890  10.031   4.492 -1.2152 -0.4065  0.6117
32319SOL     OW97534   2.625   6.407   2.539 -0.5491  0.6446  0.0003
32319SOL    HW197535   2.585   6.391   2.625 -0.3407  0.9521  0.1562
32319SOL    HW297536   2.558   6.379   2.477 -1.1659  1.4793  0.2583
32320SOL     OW97537   9.803   3.446   4.559 -0.0234  0.0800 -0.1249
32320SOL    HW197538   9.857   3.402   4.494 -0.9493  1.1576 -1.6897
32320SOL    HW297539   9.722   3.395   4.563  0.3544 -0.4838  0.8726
32321SOL     OW97540   9.421   7.432   5.603  0.0662  0.4618  0.5451
32321SOL    HW197541   9.347   7.384   5.568  0.3137 -0.5139  1.2986
32321SOL    HW297542   9.496   7.401   5.552  0.2657 -0.1807  1.2044
32322SOL     OW97543   3.799   8.990   6.301 -0.1894 -0.1689  0.0272
32322SOL    HW197544   3.852   9.013   6.378  0.6904  0.0434 -0.6293
32322SOL    HW297545   3.774   9.075   6.264  0.7819 -0.2655 -0.8608
32323SOL     OW97546   5.881   4.750   7.940  0.1228 -0.5207  0.1272
32323SOL    HW197547   5.830   4.678   7.903  0.5702 -1.2510  0.9124
32323SOL    HW297548   5.875   4.737   8.035  0.6306  0.1838  0.2592
32324SOL     OW97549   0.561   3.427   9.092  0.3396 -0.0806 -0.7159
32324SOL    HW197550   0.566   3.331   9.093  1.6108 -0.0178 -0.2156
32324SOL    HW297551   0.496   3.446   9.024 -2.6362 -1.3649  1.5395
32325SOL     OW97552   1.435   5.606   4.909 -0.2665  0.3821  0.5645
32325SOL    HW197553   1.444   5.623   5.003 -0.8108  0.5846  0.5855
32325SOL    HW297554   1.471   5.684   4.867  0.8774 -0.1194  0.5766
32326SOL     OW97555   7.802   7.429   4.479  1.1700 -0.2212 -0.6960
32326SOL    HW197556   7.872   7.482   4.441  0.0444  1.9950  0.1377
32326SOL    HW297557   7.759   7.389   4.403  2.5320 -0.6053 -1.2946
32327SOL     OW97558   9.360   2.413   3.888 -0.3666  0.8048  0.4377
32327SOL    HW197559   9.374   2.425   3.982  2.5588  1.0189  0.0536
32327SOL    HW297560   9.444   2.435   3.848 -1.6387  1.1161 -2.2953
32328SOL     OW97561   4.629   5.941   9.098  0.1255  0.0682 -0.1204
32328SOL    HW197562   4.545   5.896   9.107  0.2769 -0.1046  0.4270
32328SOL    HW297563   4.637   5.957   9.004  0.8151 -2.5315 -0.5993
32329SOL     OW97564   4.744   2.196   3.378  0.0365 -0.3005  0.2467
32329SOL    HW197565   4.797   2.269   3.408  0.3205 -1.6654  3.4412
32329SOL    HW297566   4.790   2.163   3.300  0.2149  2.4240 -0.9061
32330SOL     OW97567   1.304   5.943   8.177 -0.1592  0.6898  0.3898
32330SOL    HW197568   1.370   6.013   8.174  0.1638  0.3530 -0.8590
32330SOL    HW297569   1.252   5.963   8.255  0.8465  1.4792  0.8884
32331SOL     OW97570   4.224   3.235   8.947 -0.3624 -0.0646  0.6589
32331SOL    HW197571   4.179   3.318   8.964 -0.6806 -0.5711  2.4354
32331SOL    HW297572   4.268   3.214   9.029 -0.0794 -1.5533  0.1558
32332SOL     OW97573   5.895   9.312   2.391  0.3004 -0.4160  0.0964
32332SOL    HW197574   5.855   9.263   2.319 -0.2016  1.2660 -0.8249
32332SOL    HW297575   5.963   9.365   2.349  0.2190  0.3600  0.9146
32333SOL     OW97576   3.365   2.699   2.629  0.5855 -0.4492  0.1924
32333SOL    HW197577   3.348   2.708   2.723 -0.8034  1.1972 -0.1598
32333SOL    HW297578   3.323   2.617   2.605  0.0348 -0.3764  0.8467
32334SOL     OW97579   7.320   7.453   1.132 -0.0578  0.2131  0.3967
32334SOL    HW197580   7.325   7.368   1.090 -0.4273  1.0163 -1.3491
32334SOL    HW297581   7.410   7.472   1.159  0.3510  0.0114 -0.7684
32335SOL     OW97582   4.112   9.727   6.537  0.2192  0.1245  0.1630
32335SOL    HW197583   4.145   9.661   6.477  0.6524 -0.2219  0.7796
32335SOL    HW297584   4.025   9.749   6.503  0.6581  0.3009 -0.8719
32336SOL     OW97585   8.762   5.634   3.086 -0.5033 -0.2884  0.0119
32336SOL    HW197586   8.745   5.587   3.168 -0.3476 -1.3066 -0.5171
32336SOL    HW297587   8.854   5.661   3.093  0.4831 -2.9697 -1.0045
32337SOL     OW97588   2.807   7.742   0.319 -0.0091 -0.0097 -1.0594
32337SOL    HW197589   2.837   7.758   0.229  0.3693  0.0544 -0.9224
32337SOL    HW297590   2.885   7.756   0.373 -0.5465  1.3274 -0.5813
32338SOL     OW97591   0.632   2.136   8.931 -0.2393 -0.9005  0.2509
32338SOL    HW197592   0.697   2.193   8.891  0.3176 -1.9819 -0.4461
32338SOL    HW297593   0.574   2.111   8.859 -1.3277 -0.1017  0.8288
32339SOL     OW97594   7.529   2.524   0.875  0.5176  0.0463  0.3346
32339SOL    HW197595   7.540   2.454   0.810  1.0118  1.1506 -0.8030
32339SOL    HW297596   7.459   2.579   0.839  0.7891  0.6646  0.7479
32340SOL     OW97597   7.549   3.433   8.208  0.6238 -0.3400  0.3064
32340SOL    HW197598   7.616   3.439   8.140  1.3526 -2.8541  0.7054
32340SOL    HW297599   7.468   3.459   8.165  1.4687  0.6128 -0.7870
32341SOL     OW97600   8.083   2.211   2.158  0.6588 -0.1049 -0.7016
32341SOL    HW197601   8.159   2.262   2.131  0.7737  1.3758  2.0905
32341SOL    HW297602   8.062   2.243   2.246 -3.3247 -0.3167 -1.4001
32342SOL     OW97603   8.456   2.633   0.771  0.4743  0.0445 -0.2391
32342SOL    HW197604   8.521   2.701   0.787 -0.1182  0.9334 -1.4590
32342SOL    HW297605   8.503   2.551   0.783  1.3827  0.6641  0.5436
32343SOL     OW97606   7.629   9.592   1.398 -0.2723  0.7656 -0.5840
32343SOL    HW197607   7.650   9.638   1.316  1.1506  0.2037 -0.5726
32343SOL    HW297608   7.668   9.506   1.387 -0.5465  0.4945  0.4740
32344SOL     OW97609   5.841   4.188   0.676 -0.3226 -0.2887 -0.0992
32344SOL    HW197610   5.924   4.185   0.629  0.3929  1.9426  0.8727
32344SOL    HW297611   5.803   4.274   0.654 -1.5197 -0.5385  0.8327
32345SOL     OW97612   3.306   9.793   5.200 -0.1401  0.1971 -0.0525
32345SOL    HW197613   3.363   9.729   5.158 -1.0603 -0.2651 -0.6472
32345SOL    HW297614   3.309   9.770   5.293 -1.2378 -1.4038 -0.3587
32346SOL     OW97615   3.165   8.023   3.351  0.5610 -0.2579 -0.2082
32346SOL    HW197616   3.148   8.097   3.410  3.6264  1.0607 -0.7822
32346SOL    HW297617   3.093   8.025   3.288  0.4989  2.2053 -0.1406
32347SOL     OW97618   5.447   0.882   1.928 -0.5814  0.2136  0.1144
32347SOL    HW197619   5.509   0.951   1.952 -0.5111 -0.0763  0.7807
32347SOL    HW297620   5.361   0.922   1.939 -0.5919 -0.2675  2.0347
32348SOL     OW97621   2.490   1.621   9.722 -0.3458  0.5524 -0.7009
32348SOL    HW197622   2.526   1.659   9.802  0.3752 -0.3290 -0.5885
32348SOL    HW297623   2.485   1.694   9.660 -1.2646  1.3213  0.2547
32349SOL     OW97624   7.735   7.721   4.036  0.3288 -0.2819  0.2195
32349SOL    HW197625   7.711   7.809   4.065 -1.2425 -0.6845  0.2375
32349SOL    HW297626   7.652   7.675   4.027  0.9734 -1.2052 -1.6190
32350SOL     OW97627   6.834   6.764   3.601 -0.3650 -0.3357 -0.2830
32350SOL    HW197628   6.787   6.831   3.651 -0.4578 -0.8428  0.3138
32350SOL    HW297629   6.775   6.689   3.599  0.4665 -1.0385  0.6058
32351SOL     OW97630   2.256   5.772   6.717 -0.3657  0.0509 -0.5984
32351SOL    HW197631   2.213   5.833   6.657 -2.4283  0.1796  0.8770
32351SOL    HW297632   2.332   5.740   6.669 -0.7834  1.6652 -2.4653
32352SOL     OW97633   4.910   2.592   7.074  0.0997 -0.4023  0.1261
32352SOL    HW197634   4.976   2.533   7.036 -0.9400 -0.8803 -1.0011
32352SOL    HW297635   4.929   2.591   7.168 -0.4768 -3.3916  0.3117
32353SOL     OW97636   4.518   0.666   4.746  0.4326 -0.4765  0.0696
32353SOL    HW197637   4.530   0.575   4.773 -0.1514 -0.6103 -0.1139
32353SOL    HW297638   4.495   0.711   4.827 -0.1808 -0.6657  0.0061
32354SOL     OW97639   5.519   3.849   0.963 -0.4501 -0.1620  0.8600
32354SOL    HW197640   5.454   3.870   1.030  0.4130  3.0220  0.8483
32354SOL    HW297641   5.472   3.860   0.880 -0.8788 -1.7541  0.8609
32355SOL     OW97642   7.763   8.520   2.366 -0.2236 -0.1697  0.2542
32355SOL    HW197643   7.801   8.551   2.449  0.5794  0.4445 -0.3344
32355SOL    HW297644   7.838   8.490   2.315 -0.4545  1.3777 -1.0703
32356SOL     OW97645   8.660   6.718   5.170 -0.4266  1.1899  0.3713
32356SOL    HW197646   8.661   6.647   5.106 -0.0204  0.4489  1.1846
32356SOL    HW297647   8.576   6.710   5.214  0.0199  0.5790  1.1405
32357SOL     OW97648   6.139   1.612   8.870  0.0615 -0.0417  0.7258
32357SOL    HW197649   6.231   1.592   8.850 -0.2413 -1.1779  0.4021
32357SOL    HW297650   6.095   1.613   8.785 -0.2729  0.3127  0.8979
32358SOL     OW97651   3.452   1.939   4.339 -0.4004  0.1649  0.0904
32358SOL    HW197652   3.417   1.861   4.383 -1.7667  0.1784 -0.9290
32358SOL    HW297653   3.497   1.987   4.409  0.0732 -1.2856  0.8327
32359SOL     OW97654   8.492   6.713   3.942  0.3863  0.1007  0.1289
32359SOL    HW197655   8.552   6.652   3.899  0.9900 -0.0073  1.0961
32359SOL    HW297656   8.533   6.799   3.931  0.7714  0.0167  0.8594
32360SOL     OW97657   2.972   5.661   0.857 -0.1598  0.4424  0.0479
32360SOL    HW197658   2.936   5.602   0.791  0.3553 -1.1873  1.1792
32360SOL    HW297659   2.943   5.748   0.829 -0.7274 -0.2932 -1.7976
32361SOL     OW97660   0.961   7.394   1.777 -0.1693  0.3229  0.2911
32361SOL    HW197661   0.950   7.474   1.828  1.0276  1.1862 -0.7487
32361SOL    HW297662   0.949   7.421   1.686 -5.5570 -1.7332  0.0152
32362SOL     OW97663   5.762   6.721   9.978 -0.0207  0.4531 -0.2166
32362SOL    HW197664   5.678   6.767   9.973 -0.5556 -0.4816 -0.1261
32362SOL    HW297665   5.766   6.670   9.897  0.8108  1.0739 -0.5674
32363SOL     OW97666   0.227   9.943   1.054 -1.0616 -0.2274  0.0029
32363SOL    HW197667   0.161   9.956   1.122 -0.6255 -0.8243  0.5489
32363SOL    HW297668   0.187   9.880   0.994 -0.3258 -2.0143  1.2960
32364SOL     OW97669   4.261   0.011   3.045 -0.2958  0.6399 -0.0270
32364SOL    HW197670   4.306  -0.071   3.024  1.2286  0.5819  2.9695
32364SOL    HW297671   4.324   0.079   3.024 -0.2454  0.8023  0.6235
32365SOL     OW97672   1.716   7.621   1.708  0.4504  0.0523 -0.1540
32365SOL    HW197673   1.797   7.570   1.704  0.4211  0.0250 -0.4212
32365SOL    HW297674   1.743   7.707   1.740  1.0047  0.8793 -2.6311
32366SOL     OW97675   2.576   3.633   5.994 -0.3552  0.5261 -0.6797
32366SOL    HW197676   2.590   3.539   6.010 -1.5120  0.2429 -1.2145
32366SOL    HW297677   2.480   3.643   5.992 -0.2493  1.7299 -0.5978
32367SOL     OW97678   5.301   9.679   5.364  0.8300 -0.1058 -0.2203
32367SOL    HW197679   5.322   9.586   5.361  1.5409  0.0113  0.4350
32367SOL    HW297680   5.255   9.690   5.448  1.7680  0.3038  0.2575
32368SOL     OW97681   0.112   8.163   5.284 -0.3914  0.1753 -0.0252
32368SOL    HW197682   0.099   8.071   5.262  1.0413  0.2368 -1.3499
32368SOL    HW297683   0.165   8.197   5.212 -0.4032  1.8979  0.7310
32369SOL     OW97684   7.417   9.386   6.548 -0.5210  0.3643  0.3722
32369SOL    HW197685   7.433   9.448   6.620  1.3661  0.0707  0.2652
32369SOL    HW297686   7.333   9.346   6.570 -1.1748  2.0246  1.1183
32370SOL     OW97687   1.789   1.304   5.254 -0.4364  0.1581 -0.1038
32370SOL    HW197688   1.832   1.390   5.253  0.3459 -0.2372 -0.8563
32370SOL    HW297689   1.703   1.320   5.215 -0.6117  0.7499  0.4927
32371SOL     OW97690   2.980   0.502   6.864  0.3649 -0.4768  0.1089
32371SOL    HW197691   3.000   0.471   6.776  1.8472 -0.6246  0.4598
32371SOL    HW297692   3.001   0.427   6.921  2.1486  0.4679  0.7984
32372SOL     OW97693   9.764   2.610   2.774 -0.5288 -0.0397  0.6704
32372SOL    HW197694   9.700   2.673   2.743 -1.5819 -1.7142 -0.7884
32372SOL    HW297695   9.849   2.646   2.748 -1.0909  0.7954 -0.0402
32373SOL     OW97696   3.579   6.786   2.716 -0.6120 -0.3006  0.3379
32373SOL    HW197697   3.541   6.701   2.696  0.0340 -0.5025 -0.0597
32373SOL    HW297698   3.579   6.790   2.812 -1.4430 -0.3758  0.3418
32374SOL     OW97699   9.255   2.956   0.396 -0.0892 -0.1667  0.1977
32374SOL    HW197700   9.281   3.048   0.402 -1.0280  0.0759  0.7504
32374SOL    HW297701   9.320   2.916   0.338  0.0441  0.9494 -0.4412
32375SOL     OW97702   2.000   7.103   5.784  0.0474 -0.5098 -0.0359
32375SOL    HW197703   1.914   7.076   5.750  0.0229 -2.2505  1.2806
32375SOL    HW297704   2.006   7.196   5.762 -1.7963 -0.5610 -0.9405
32376SOL     OW97705   4.933   2.278   5.300 -0.2987 -0.1694  0.5197
32376SOL    HW197706   5.019   2.315   5.319 -1.5205  2.7074  1.0651
32376SOL    HW297707   4.898   2.255   5.386 -0.2664 -0.8830  0.3441
32377SOL     OW97708   7.588   9.520   7.188  0.0692  0.7478 -0.6609
32377SOL    HW197709   7.657   9.536   7.253 -1.3164 -0.1768  1.1523
32377SOL    HW297710   7.635   9.497   7.108  1.9027 -0.7946  0.7542
32378SOL     OW97711   9.879   9.827   8.936 -0.4738  0.0786 -0.6656
32378SOL    HW197712   9.806   9.785   8.889  0.0603  0.5081 -1.9470
32378SOL    HW297713   9.838   9.867   9.013 -1.2446 -1.3777 -0.2933
32379SOL     OW97714   6.871   5.822   5.850 -0.0600  0.0789  0.4052
32379SOL    HW197715   6.789   5.828   5.898 -0.7004 -2.4048 -0.2115
32379SOL    HW297716   6.922   5.756   5.897  0.3515 -0.5256 -0.8338
32380SOL     OW97717   0.706   9.027   6.956  0.0662 -0.1897 -0.1140
32380SOL    HW197718   0.637   9.069   6.904  0.3304  0.3320 -0.0482
32380SOL    HW297719   0.688   8.933   6.948 -1.5538 -0.0416  1.1069
32381SOL     OW97720   1.098   8.427   9.339  0.3390 -0.1231  0.0897
32381SOL    HW197721   1.029   8.368   9.308  0.5312 -0.4665  0.3135
32381SOL    HW297722   1.167   8.420   9.273 -0.3512  1.1724 -0.7958
32382SOL     OW97723   4.462   8.707   7.320 -0.3180  0.1040  0.2238
32382SOL    HW197724   4.387   8.649   7.311 -0.8036  0.5540  1.2161
32382SOL    HW297725   4.538   8.648   7.319 -0.8415 -0.6841  2.1096
32383SOL     OW97726   5.238   3.147   2.142  0.7845  0.1443 -0.1574
32383SOL    HW197727   5.263   3.220   2.085  1.1367  0.9079  0.9553
32383SOL    HW297728   5.184   3.091   2.085  0.7869  1.0810 -1.1319
32384SOL     OW97729   9.796   7.442   0.986 -0.6572 -0.3793 -0.2768
32384SOL    HW197730   9.866   7.503   0.960 -0.3943 -0.2100  0.8000
32384SOL    HW297731   9.732   7.497   1.031 -0.7629 -0.7878  0.0689
32385SOL     OW97732   7.457   4.075   8.484 -0.2945 -0.4114 -0.4188
32385SOL    HW197733   7.544   4.093   8.519 -0.1680 -0.2724 -0.7975
32385SOL    HW297734   7.397   4.100   8.554 -0.0822  0.5716 -0.5740
32386SOL     OW97735   3.011   4.248   2.985  0.4652 -0.6313  0.2113
32386SOL    HW197736   3.050   4.332   3.009  0.1430 -0.1355 -0.9598
32386SOL    HW297737   3.026   4.240   2.891 -1.1091 -1.0351 -0.0234
32387SOL     OW97738   7.898   9.400   1.534  0.0974 -0.3312  0.2027
32387SOL    HW197739   7.946   9.347   1.471 -0.1630 -1.7278  1.1396
32387SOL    HW297740   7.858   9.337   1.594  1.1207  0.9396  2.3445
32388SOL     OW97741   0.536   8.144   1.443  0.0896 -0.4111 -0.1578
32388SOL    HW197742   0.629   8.167   1.434  0.0354 -0.3302 -0.5438
32388SOL    HW297743   0.491   8.202   1.382 -0.4060  0.7258  1.2495
32389SOL     OW97744   6.069   2.171   1.558 -0.2514  0.1357 -0.7406
32389SOL    HW197745   6.154   2.139   1.527 -0.4886 -2.1070  0.6972
32389SOL    HW297746   6.091   2.230   1.630  0.1243 -1.4546  0.4996
32390SOL     OW97747   5.099   4.619   5.961 -0.5602 -0.6004 -0.2275
32390SOL    HW197748   5.056   4.587   5.882 -2.7453 -0.6378  0.9077
32390SOL    HW297749   5.079   4.713   5.963  1.3033 -0.1373 -0.7615
32391SOL     OW97750   9.459   0.171   8.516 -0.1003 -0.4069 -0.6773
32391SOL    HW197751   9.536   0.226   8.534  0.6881 -1.5676 -0.3443
32391SOL    HW297752   9.385   0.231   8.517  0.9677  1.0611 -2.7748
32392SOL     OW97753   9.786   3.137   9.721  0.4940  0.2944  0.3636
32392SOL    HW197754   9.816   3.227   9.715 -0.6032  0.7470  1.3083
32392SOL    HW297755   9.755   3.115   9.633  0.8048  0.8184  0.1230
32393SOL     OW97756   2.652   5.449   2.949 -0.0775  0.3827  0.2832
32393SOL    HW197757   2.638   5.422   3.040 -0.5471 -1.5185 -0.3064
32393SOL    HW297758   2.709   5.381   2.913 -2.3801 -0.6365 -1.6530
32394SOL     OW97759   7.779   7.635   1.266 -0.1049 -0.0592 -0.0248
32394SOL    HW197760   7.759   7.651   1.359  3.1261 -2.1241  1.2258
32394SOL    HW297761   7.855   7.691   1.248 -0.0001 -0.5224 -1.0678
32395SOL     OW97762   1.637   8.893   0.561 -0.1497  0.0104  0.3738
32395SOL    HW197763   1.705   8.868   0.500  1.3842  2.5345  0.9103
32395SOL    HW297764   1.599   8.810   0.590 -0.0320 -1.3217 -2.8844
32396SOL     OW97765   4.110   7.228   3.340 -0.2294  0.1967  0.0144
32396SOL    HW197766   4.106   7.259   3.431 -2.2432 -2.5696  1.0100
32396SOL    HW297767   4.029   7.258   3.301  0.2374  0.6327 -0.6440
32397SOL     OW97768   9.742   5.362   5.718 -0.0571 -0.3811 -0.0752
32397SOL    HW197769   9.746   5.280   5.668 -0.2338  0.2356 -1.1152
32397SOL    HW297770   9.774   5.429   5.658 -3.7679  1.0280 -0.7279
32398SOL     OW97771   0.396   7.310   6.902  0.4026  0.0431  0.0162
32398SOL    HW197772   0.479   7.306   6.949  0.0871  0.7027  0.6654
32398SOL    HW297773   0.364   7.220   6.901  0.7427 -0.0878  0.4732
32399SOL     OW97774   7.869   4.312   2.638 -0.3365 -0.1460  0.2562
32399SOL    HW197775   7.909   4.397   2.654 -2.8891  1.3154 -0.6654
32399SOL    HW297776   7.815   4.325   2.560  0.6815 -3.1671 -1.1294
32400SOL     OW97777   6.334   5.270   1.918 -0.6399  0.0672  0.5343
32400SOL    HW197778   6.389   5.347   1.927  0.7714 -1.0283  1.7236
32400SOL    HW297779   6.336   5.250   1.824  1.8635 -0.5233  0.6521
32401SOL     OW97780   3.013   4.765   8.506  0.4179 -0.0055  0.7349
32401SOL    HW197781   3.008   4.861   8.499 -0.0801  0.0051  1.2144
32401SOL    HW297782   3.037   4.736   8.418  1.5600  0.6270  0.8154
32402SOL     OW97783   3.856   9.403   5.158 -0.4527  0.2966  0.0456
32402SOL    HW197784   3.902   9.452   5.225  0.4030 -1.0914  0.5152
32402SOL    HW297785   3.921   9.388   5.090  0.1134 -2.3383  1.0535
32403SOL     OW97786   9.572   5.580   6.010 -0.2176  0.2255 -0.5149
32403SOL    HW197787   9.549   5.562   6.101  0.3101  1.5174 -0.0958
32403SOL    HW297788   9.585   5.494   5.971  0.3218 -0.3453  0.8500
32404SOL     OW97789   2.168   7.838   4.696  0.2561 -0.4051 -0.0378
32404SOL    HW197790   2.088   7.888   4.710  1.5007  1.1699  1.8943
32404SOL    HW297791   2.180   7.838   4.601 -2.1924 -1.0417 -0.4146
32405SOL     OW97792   2.817   0.128   7.020 -0.4545 -0.0878 -0.3529
32405SOL    HW197793   2.781   0.141   6.932  2.1262 -1.2731 -1.7127
32405SOL    HW297794   2.885   0.194   7.029 -2.0724  1.4286  1.7166
32406SOL     OW97795   4.250   3.710   2.593  0.0913  0.5513  0.4247
32406SOL    HW197796   4.254   3.615   2.581  0.1366  0.5929  0.0842
32406SOL    HW297797   4.171   3.737   2.547  1.3654  0.9746 -1.6772
32407SOL     OW97798   8.745   2.828   7.021  0.3074  0.2805  0.2464
32407SOL    HW197799   8.769   2.846   6.930 -0.6482 -0.8499 -0.2571
32407SOL    HW297800   8.766   2.736   7.033 -3.0195 -0.6603 -0.0653
32408SOL     OW97801   2.337   5.202   5.562  0.0250 -0.6305  0.7644
32408SOL    HW197802   2.408   5.259   5.534 -0.0962  0.0519  1.7898
32408SOL    HW297803   2.299   5.246   5.639 -2.5650 -0.1089 -0.6730
32409SOL     OW97804   1.584   9.567   7.106  0.1379 -0.2549 -0.1796
32409SOL    HW197805   1.571   9.662   7.108 -2.4429 -0.5505 -0.1752
32409SOL    HW297806   1.609   9.548   7.015  2.1411  0.5205  0.1481
32410SOL     OW97807   3.767   5.496   6.094  0.0471  0.2257  0.7620
32410SOL    HW197808   3.799   5.533   6.176  2.2495  2.7120 -1.0586
32410SOL    HW297809   3.723   5.569   6.051  0.1954 -0.6064 -0.8606
32411SOL     OW97810   2.662   6.495   7.802  0.2366 -0.5657  0.3796
32411SOL    HW197811   2.635   6.406   7.826  1.3884 -0.3086  2.9424
32411SOL    HW297812   2.750   6.504   7.839 -0.3367  2.0306  1.3321
32412SOL     OW97813   1.936   5.363   8.303 -0.1776 -0.6452  0.1960
32412SOL    HW197814   1.982   5.432   8.254 -0.0296  0.1668  1.4297
32412SOL    HW297815   1.973   5.281   8.270  1.7295 -0.0441  0.6923
32413SOL     OW97816   6.908   2.763   2.294 -0.9092  0.2556 -0.2710
32413SOL    HW197817   6.861   2.776   2.211  1.2462  0.8044 -1.4724
32413SOL    HW297818   6.973   2.696   2.274  1.1625  1.9947  0.2758
32414SOL     OW97819   9.164   3.752   6.450  0.5269 -0.3228 -0.2674
32414SOL    HW197820   9.147   3.675   6.504  0.1676 -0.3394 -0.3966
32414SOL    HW297821   9.135   3.726   6.362 -0.2906  0.2003 -0.1680
32415SOL     OW97822   8.089   5.326   3.618  0.0557 -0.1599 -0.7836
32415SOL    HW197823   8.069   5.280   3.699  0.5847 -0.7449 -0.9728
32415SOL    HW297824   8.026   5.398   3.615  0.6030  0.4078  0.5838
32416SOL     OW97825   2.479   3.359   5.113 -0.3270 -0.1068  0.1255
32416SOL    HW197826   2.401   3.358   5.057  0.1633  0.6608 -0.5970
32416SOL    HW297827   2.456   3.419   5.184 -1.0404 -1.2658  0.9149
32417SOL     OW97828   6.164   6.843   5.667  0.2046  0.6905  0.0391
32417SOL    HW197829   6.121   6.759   5.651  0.2208  0.4983  0.9687
32417SOL    HW297830   6.236   6.823   5.726 -0.4192  1.5079  1.1120
32418SOL     OW97831   7.524   5.682   5.181 -0.5189  0.1042 -0.2775
32418SOL    HW197832   7.575   5.681   5.262 -0.6035  1.6290 -0.1737
32418SOL    HW297833   7.515   5.590   5.157  0.3204 -0.3177  0.9311
32419SOL     OW97834   5.969   0.814   6.193 -0.2200  0.2253 -0.0143
32419SOL    HW197835   6.042   0.783   6.246 -0.2716  2.2128  1.3157
32419SOL    HW297836   6.003   0.817   6.103  0.5373 -1.1646  0.2069
32420SOL     OW97837   6.241   2.606   9.493 -0.1640 -0.1517  0.8621
32420SOL    HW197838   6.262   2.611   9.399 -0.8029  1.0607  0.7668
32420SOL    HW297839   6.306   2.546   9.528  1.3717  0.9297 -0.0082
32421SOL     OW97840   6.043   1.846   5.339  0.0017  0.1052  0.0832
32421SOL    HW197841   6.003   1.789   5.274  1.8504  0.3775 -1.3898
32421SOL    HW297842   6.012   1.934   5.316 -1.3732 -0.0600  1.2019
32422SOL     OW97843   1.440   0.944   9.156  0.3322 -0.2873 -0.3932
32422SOL    HW197844   1.454   1.038   9.165  0.3472 -0.3983  0.9184
32422SOL    HW297845   1.527   0.905   9.166  0.3904 -0.4267 -1.3491
32423SOL     OW97846   0.085   6.588   6.510  0.1686 -0.5968 -0.1771
32423SOL    HW197847   0.155   6.654   6.510 -2.0635  1.9843  1.7908
32423SOL    HW297848   0.018   6.624   6.452 -0.4289 -2.0424 -0.4298
32424SOL     OW97849   6.813   0.643   4.913 -0.1003  0.7265 -0.1289
32424SOL    HW197850   6.720   0.665   4.906 -0.4206 -0.9274 -2.1547
32424SOL    HW297851   6.817   0.583   4.987 -0.7816  0.2741 -0.4449
32425SOL     OW97852   3.147   6.985   5.559 -0.0267  0.3723  0.6603
32425SOL    HW197853   3.239   7.008   5.547  0.1242 -0.6797 -0.3116
32425SOL    HW297854   3.139   6.964   5.652  0.4519  1.5097  0.9840
32426SOL     OW97855   5.884   3.348   2.707 -0.3652  0.1583 -0.3903
32426SOL    HW197856   5.851   3.315   2.791 -2.1389  0.0051 -1.1085
32426SOL    HW297857   5.920   3.271   2.663  0.5284  0.2297  0.1884
32427SOL     OW97858   7.327   2.061   8.922 -0.0342 -0.5188  0.6636
32427SOL    HW197859   7.345   1.972   8.951 -1.1093 -0.5703  1.1881
32427SOL    HW297860   7.405   2.111   8.949  1.1154 -1.4997 -0.6897
32428SOL     OW97861   3.190   0.694   8.868  0.6357  0.1186 -0.3114
32428SOL    HW197862   3.281   0.718   8.884  0.5433  0.8958 -0.8644
32428SOL    HW297863   3.180   0.608   8.907  1.9224 -0.5023 -1.2862
32429SOL     OW97864   2.901   0.773   1.209  0.5240  0.7093 -0.4079
32429SOL    HW197865   2.872   0.696   1.160  1.3256 -0.0729  0.3017
32429SOL    HW297866   2.820   0.812   1.244  0.1337  0.0094 -0.5210
32430SOL     OW97867   7.904   3.092   4.059  0.2606  0.5582  0.3242
32430SOL    HW197868   7.875   3.172   4.102  1.2536  0.5964  0.9676
32430SOL    HW297869   7.834   3.029   4.074  0.8969  0.3074  2.8025
32431SOL     OW97870   4.476   0.372   7.030 -0.1415 -0.1220 -0.6729
32431SOL    HW197871   4.507   0.452   6.988 -0.6237  0.1511 -0.5292
32431SOL    HW297872   4.524   0.301   6.988  0.2406  0.2406 -0.8498
32432SOL     OW97873   5.912   2.030   8.608  0.1259  0.1712 -0.0399
32432SOL    HW197874   5.869   2.088   8.545 -0.2890  0.8452  0.8378
32432SOL    HW297875   5.863   1.948   8.603 -1.3510  0.9454  0.9925
32433SOL     OW97876   5.589   0.952   5.496 -0.1835  0.3285  0.4268
32433SOL    HW197877   5.603   0.870   5.450  1.1017  0.8967 -0.2289
32433SOL    HW297878   5.541   1.007   5.433  1.1669  0.9406 -0.1116
32434SOL     OW97879   0.605   2.221   4.090 -0.1006 -0.5577 -0.0630
32434SOL    HW197880   0.613   2.316   4.099  0.9181 -0.7518  1.6697
32434SOL    HW297881   0.527   2.199   4.141 -0.4702 -0.6466 -0.6547
32435SOL     OW97882   2.141   5.985   8.663 -0.3253  0.1149 -0.4825
32435SOL    HW197883   2.170   5.988   8.572  0.0845  2.0335 -0.3278
32435SOL    HW297884   2.063   6.040   8.666 -0.2542  0.1892  0.3486
32436SOL     OW97885   4.342   7.759   7.961  0.5470 -0.0851 -0.3795
32436SOL    HW197886   4.423   7.716   7.931  0.2420  0.3712 -1.9245
32436SOL    HW297887   4.326   7.827   7.897 -0.6421  0.3678  0.3719
32437SOL     OW97888   2.772   7.358   4.796  0.2263 -0.0363  0.5702
32437SOL    HW197889   2.676   7.366   4.794  0.2145 -0.1841 -0.7710
32437SOL    HW297890   2.794   7.319   4.712  1.4416 -0.4528  1.0617
32438SOL     OW97891   1.803   3.178   6.063  0.0127  0.0177  0.5565
32438SOL    HW197892   1.883   3.140   6.100  0.5294 -0.6260 -1.1408
32438SOL    HW297893   1.741   3.105   6.063 -0.0275  0.0517  0.2996
32439SOL     OW97894   8.511   1.062   4.026 -0.2337  0.3160  0.2504
32439SOL    HW197895   8.576   1.126   4.052 -0.9056  1.5316 -0.9450
32439SOL    HW297896   8.498   1.007   4.104  1.2756  0.8276  0.8823
32440SOL     OW97897   4.834   4.086   3.286 -0.4582 -0.1755 -0.2133
32440SOL    HW197898   4.794   4.173   3.280 -0.9310 -0.3793 -0.0014
32440SOL    HW297899   4.765   4.030   3.320 -0.7516 -1.0409 -2.1030
32441SOL     OW97900   5.224   5.252   2.765  0.1096 -0.0909 -0.2416
32441SOL    HW197901   5.213   5.328   2.708  3.5062 -0.8243 -2.1938
32441SOL    HW297902   5.267   5.286   2.843 -1.6914  0.4416  0.5713
32442SOL     OW97903   9.263   7.525   7.586  0.4908  0.3633  0.5997
32442SOL    HW197904   9.282   7.521   7.492  1.1350 -0.6304  0.7574
32442SOL    HW297905   9.256   7.618   7.605  0.5577  0.5851 -0.3909
32443SOL     OW97906   8.208   4.475   4.724  0.4309 -0.5072 -0.3314
32443SOL    HW197907   8.165   4.540   4.669 -1.4521 -0.8059  0.6713
32443SOL    HW297908   8.293   4.513   4.745 -0.1516  1.0960 -0.7320
32444SOL     OW97909   0.752   9.088   0.020 -0.1247  0.1785  0.2298
32444SOL    HW197910   0.795   9.041  -0.051  1.1994  0.0792  1.0616
32444SOL    HW297911   0.813   9.082   0.093 -1.9087 -0.6227  1.7183
32445SOL     OW97912   8.142   4.368   5.088  0.4918  0.1872  0.5344
32445SOL    HW197913   8.216   4.353   5.029 -0.3623 -0.1308 -0.5050
32445SOL    HW297914   8.154   4.457   5.121  3.5864 -1.2074  3.7497
32446SOL     OW97915   1.681   9.921   5.101 -0.1907  0.2695  0.6657
32446SOL    HW197916   1.673  10.013   5.075 -1.7136  0.5893  2.0978
32446SOL    HW297917   1.591   9.892   5.113  0.2909 -1.3005  0.6419
32447SOL     OW97918   3.958   0.902   7.608  0.5111 -0.5317  0.2343
32447SOL    HW197919   3.883   0.925   7.662 -0.1116 -2.4122  0.2271
32447SOL    HW297920   4.029   0.959   7.639 -1.2211  2.3704 -0.7508
32448SOL     OW97921   8.257   7.174   1.544 -0.5639 -0.3057  0.3804
32448SOL    HW197922   8.301   7.206   1.465 -1.5204  0.9888  0.3385
32448SOL    HW297923   8.288   7.084   1.554  0.7143 -0.0050 -0.6251
32449SOL     OW97924   9.081   7.582   3.761  0.2582  0.5691 -0.3858
32449SOL    HW197925   9.042   7.553   3.843  1.6800  0.0848  0.1499
32449SOL    HW297926   9.025   7.544   3.693 -0.4022  0.1968  0.3520
32450SOL     OW97927   1.723   5.129   4.739 -0.4922 -0.4760  0.6325
32450SOL    HW197928   1.662   5.159   4.671 -1.1695 -2.7007  0.1676
32450SOL    HW297929   1.806   5.170   4.716 -0.8894 -0.5656 -1.1137
32451SOL     OW97930   7.466   3.535   0.015 -0.4649 -0.1951 -0.7778
32451SOL    HW197931   7.461   3.627   0.041  0.3295  0.0331 -1.4177
32451SOL    HW297932   7.528   3.496   0.077 -1.4051 -0.5032  0.0084
32452SOL     OW97933   9.941   5.391   0.092  0.2107  0.2346 -0.0392
32452SOL    HW197934   9.850   5.361   0.103 -0.0581  1.3142  0.8787
32452SOL    HW297935   9.933   5.470   0.038  0.4600  0.9876  0.9862
32453SOL     OW97936   6.079   7.976   6.646  0.5368 -1.3302  0.4250
32453SOL    HW197937   6.131   8.053   6.621 -1.5429  0.3870  1.0726
32453SOL    HW297938   6.084   7.975   6.742 -1.0791 -0.7163  0.5530
32454SOL     OW97939   2.232   0.067   0.589  0.2877  0.4237 -0.1521
32454SOL    HW197940   2.172   0.016   0.644 -0.5850  0.9434 -0.5952
32454SOL    HW297941   2.316   0.023   0.598 -0.0540 -0.0539  0.8524
32455SOL     OW97942   2.956   7.448   2.803  0.1352 -0.3631 -0.1781
32455SOL    HW197943   3.014   7.393   2.854 -1.2630  0.2806  2.2626
32455SOL    HW297944   2.951   7.405   2.718  1.4880 -2.2601  0.6354
32456SOL     OW97945   8.421   3.530   3.716 -0.3896 -0.0913  0.0107
32456SOL    HW197946   8.511   3.562   3.701 -0.6381  1.7897  2.0685
32456SOL    HW297947   8.419   3.504   3.808 -1.3102 -2.6005 -0.6478
32457SOL     OW97948   6.493   4.726   7.876  0.1595 -0.3794 -0.5630
32457SOL    HW197949   6.452   4.650   7.918  0.7491 -0.2375  0.2983
32457SOL    HW297950   6.461   4.724   7.786  1.4279 -2.6161 -1.0380
32458SOL     OW97951   0.861   0.889   8.940 -0.1948  0.0804  0.0703
32458SOL    HW197952   0.773   0.896   8.903 -0.7409  0.8077  1.4554
32458SOL    HW297953   0.863   0.803   8.981 -0.8059  0.6289  1.3167
32459SOL     OW97954   2.246   7.871   0.451 -0.1200 -0.0689  0.0656
32459SOL    HW197955   2.309   7.916   0.507 -1.0986 -1.0736  2.0814
32459SOL    HW297956   2.222   7.936   0.385  2.4876  0.5402 -0.4066
32460SOL     OW97957   1.060   0.715   1.473  0.5381  0.1408 -0.2057
32460SOL    HW197958   1.079   0.641   1.415 -0.3586 -0.3911  0.1530
32460SOL    HW297959   1.009   0.775   1.420  2.2583  1.0848 -0.8572
32461SOL     OW97960   3.918   1.828   1.914 -0.3183 -0.4739  0.5145
32461SOL    HW197961   3.963   1.807   1.996 -0.9251 -1.1613  0.6887
32461SOL    HW297962   3.936   1.753   1.857 -0.2355 -0.1890  0.1646
32462SOL     OW97963   7.395   6.382   4.071  0.5201  0.0884 -0.2345
32462SOL    HW197964   7.468   6.405   4.013  0.3739  0.5318 -0.2504
32462SOL    HW297965   7.326   6.444   4.048  0.5661  0.4760  0.6183
32463SOL     OW97966   4.745   4.884   1.708  0.5063  0.0843 -0.3077
32463SOL    HW197967   4.678   4.881   1.640  1.4527  0.6062 -1.2934
32463SOL    HW297968   4.821   4.840   1.668  0.6435 -0.8349  0.9157
32464SOL     OW97969   7.034   0.233   8.888 -0.8665 -0.1750 -0.2967
32464SOL    HW197970   6.944   0.264   8.904  0.5170  3.6205  1.1947
32464SOL    HW297971   7.058   0.188   8.969 -0.8154  0.4044  0.0096
32465SOL     OW97972   0.672   9.154   9.367  0.0246  0.0030 -0.0802
32465SOL    HW197973   0.646   9.145   9.275  1.4345  1.9403 -0.7263
32465SOL    HW297974   0.766   9.134   9.368  0.1290  0.4684  0.8709
32466SOL     OW97975   1.926   3.463   2.315 -0.2008 -0.0308  0.2088
32466SOL    HW197976   1.852   3.482   2.258  0.9687 -0.1967 -1.4140
32466SOL    HW297977   1.958   3.549   2.343  0.7485  0.2032 -1.4538
32467SOL     OW97978   2.252   8.050   7.118  0.5338 -0.5063 -0.5299
32467SOL    HW197979   2.269   8.131   7.069 -0.4602  0.6092  0.8863
32467SOL    HW297980   2.180   8.008   7.071 -0.4040  0.5456 -0.0739
32468SOL     OW97981   2.674   6.088   5.679 -0.3917  0.0781 -0.6050
32468SOL    HW197982   2.605   6.113   5.741  0.0948  0.9929 -0.4195
32468SOL    HW297983   2.742   6.047   5.733 -0.9144 -1.1305 -0.8295
32469SOL     OW97984   1.929   0.870   7.246 -0.0898 -0.0468  0.0301
32469SOL    HW197985   2.003   0.844   7.301  0.0751  0.3166 -0.0182
32469SOL    HW297986   1.862   0.897   7.308 -0.6538 -1.5704  0.1253
32470SOL     OW97987   7.128   7.328   1.292 -0.2184  0.5002  0.1902
32470SOL    HW197988   7.182   7.380   1.232 -0.3930 -1.2262 -1.5696
32470SOL    HW297989   7.046   7.376   1.298 -0.0919  0.8534 -0.7386
32471SOL     OW97990   1.149   6.653   3.523 -0.1422 -0.6788  0.0003
32471SOL    HW197991   1.171   6.648   3.431 -0.0364  1.0356 -0.0870
32471SOL    HW297992   1.056   6.679   3.525  0.1878  0.5563  0.3456
32472SOL     OW97993   5.185   4.414   9.051  0.0841  0.2893  0.2787
32472SOL    HW197994   5.123   4.429   9.122 -0.4072  0.5974 -0.2097
32472SOL    HW297995   5.194   4.500   9.009  0.6700  0.1950  0.2095
32473SOL     OW97996   0.638   8.829   0.556  0.2624 -0.2458 -0.2571
32473SOL    HW197997   0.610   8.740   0.578  0.3236  0.1877  1.7652
32473SOL    HW297998   0.602   8.844   0.468  0.4153 -2.3032 -0.7297
32474SOL     OW97999   1.025   2.137   4.678  0.2302 -0.1592  0.0304
32474SOL    HW198000   1.011   2.192   4.601 -0.9054  0.2380  0.5048
32474SOL    HW298001   0.966   2.173   4.744 -0.1353 -1.6064  0.5272
32475SOL     OW98002   2.021   4.368   2.860  0.2784 -0.5366 -0.1298
32475SOL    HW198003   2.090   4.433   2.849  0.2112 -0.2647  0.9278
32475SOL    HW298004   1.955   4.393   2.796  1.4600 -1.2452 -1.6829
32476SOL     OW98005   3.686   4.974   4.418 -0.9103 -0.2524 -0.0933
32476SOL    HW198006   3.764   5.004   4.464 -0.7560 -1.5120  0.5041
32476SOL    HW298007   3.614   4.994   4.477 -0.9954  0.4457 -0.4244
32477SOL     OW98008   0.722   4.387   2.758  0.6209  0.1215  0.4238
32477SOL    HW198009   0.723   4.480   2.781  0.1636  0.4944 -0.9465
32477SOL    HW298010   0.697   4.386   2.666  1.0904 -1.3447  0.2901
32478SOL     OW98011   5.160   3.047   4.299 -0.1876 -0.2702 -0.2134
32478SOL    HW198012   5.140   3.005   4.383 -0.4663  1.4906  0.6510
32478SOL    HW298013   5.230   2.994   4.262  0.2739 -0.8386  1.3677
32479SOL     OW98014   2.092   6.556   0.464  0.2592  0.0231  0.2918
32479SOL    HW198015   2.138   6.621   0.517  0.0245  0.1232  0.3737
32479SOL    HW298016   2.089   6.594   0.376 -1.6437  1.0633  0.7419
32480SOL     OW98017   9.519   5.247   7.499  0.1260  0.0802  0.1551
32480SOL    HW198018   9.425   5.231   7.489 -0.2444  1.2905  1.3925
32480SOL    HW298019   9.552   5.169   7.543  0.1068 -1.2265 -1.9939
32481SOL     OW98020   0.360   5.030   2.161  0.1021  0.1718  0.2615
32481SOL    HW198021   0.390   4.964   2.223  0.3545  0.4443  0.4297
32481SOL    HW298022   0.325   4.980   2.087  2.4091 -0.1914 -0.6762
32482SOL     OW98023   3.534   5.142   6.147 -0.0485  0.1702 -0.2077
32482SOL    HW198024   3.459   5.093   6.115  0.8150 -0.8075 -0.8189
32482SOL    HW298025   3.504   5.232   6.154 -1.3726 -0.2678 -0.0725
32483SOL     OW98026   6.925   4.337   9.207 -0.0190  0.2403 -0.4918
32483SOL    HW198027   6.844   4.381   9.184 -0.5167 -1.7684 -3.0656
32483SOL    HW298028   6.988   4.365   9.140  1.1156  0.8583  0.7738
32484SOL     OW98029   3.913   4.379   6.928  0.1422  0.0171  0.1251
32484SOL    HW198030   3.992   4.431   6.913  0.2629 -0.3148 -0.4598
32484SOL    HW298031   3.935   4.293   6.892 -0.8690  0.2217 -1.0586
32485SOL     OW98032   2.195   2.427   2.808  0.0253 -0.1431 -0.0952
32485SOL    HW198033   2.201   2.413   2.903 -0.1838 -1.6098 -0.2680
32485SOL    HW298034   2.274   2.388   2.773 -0.4646 -0.6988 -0.6128
32486SOL     OW98035   7.051   9.122   9.057 -0.1693  0.4009 -0.2824
32486SOL    HW198036   7.031   9.108   9.150 -0.0326 -1.7337 -0.5230
32486SOL    HW298037   7.115   9.193   9.057 -0.7623  0.9804  1.1850
32487SOL     OW98038   2.666   9.410   6.673  0.6821 -0.6301  0.0801
32487SOL    HW198039   2.727   9.477   6.643 -0.1986 -0.1200 -0.6199
32487SOL    HW298040   2.619   9.382   6.594  2.1804 -3.3483  0.0178
32488SOL     OW98041   9.165   5.252   8.499  0.1730  0.5614  0.3765
32488SOL    HW198042   9.101   5.202   8.449  0.1586  0.8084  0.1446
32488SOL    HW298043   9.143   5.235   8.591  1.3499 -1.3985  0.3486
32489SOL     OW98044   5.978   3.418   9.740 -0.3256  0.2085  0.4924
32489SOL    HW198045   6.029   3.466   9.674 -0.3199  1.4213  1.3393
32489SOL    HW298046   5.984   3.327   9.714  1.2658  0.4646 -0.1171
32490SOL     OW98047   6.579   3.614   4.044  0.6745  0.0055 -0.1658
32490SOL    HW198048   6.531   3.688   4.078  1.3425  0.1992  0.3698
32490SOL    HW298049   6.561   3.543   4.105  2.1045  0.4309  0.7840
32491SOL     OW98050   4.369   0.956   0.952  0.6252  0.2101  0.2852
32491SOL    HW198051   4.376   0.878   0.896  0.7251 -0.3952  1.1262
32491SOL    HW298052   4.424   0.936   1.028  1.6570  1.6151 -0.0567
32492SOL     OW98053   5.146   5.837   0.491 -0.2564  0.2133  0.2646
32492SOL    HW198054   5.163   5.828   0.397  0.3693 -1.6398  0.5169
32492SOL    HW298055   5.225   5.878   0.526  0.1819 -0.5402  0.1875
32493SOL     OW98056   3.717   5.217   2.699  0.3731  0.2508 -0.3151
32493SOL    HW198057   3.672   5.141   2.663 -0.0020  0.0475  0.5609
32493SOL    HW298058   3.767   5.183   2.773  1.8134  0.5163 -1.1329
32494SOL     OW98059   2.269   6.973   3.817 -0.1505 -0.6668  0.0100
32494SOL    HW198060   2.184   6.948   3.783 -0.8371  0.2076  0.9941
32494SOL    HW298061   2.307   7.028   3.749 -0.1666 -1.4246 -0.6230
32495SOL     OW98062   5.431   8.280   8.512  0.0043 -0.0718 -0.1029
32495SOL    HW198063   5.446   8.367   8.474 -2.8517  1.7915  2.5989
32495SOL    HW298064   5.511   8.261   8.561  1.3564  0.1328 -2.0892
32496SOL     OW98065   2.640   4.780   6.076  0.0615  0.5928  0.0289
32496SOL    HW198066   2.692   4.720   6.023 -1.7686  0.3446 -1.6353
32496SOL    HW298067   2.616   4.851   6.015 -0.3452  1.4154  1.1242
32497SOL     OW98068   4.759   7.147   8.439 -0.3178  0.0379  0.0370
32497SOL    HW198069   4.780   7.059   8.470 -0.4836 -0.4417 -1.1401
32497SOL    HW298070   4.670   7.162   8.468 -0.2620 -0.1540  0.3154
32498SOL     OW98071   8.718   3.495   0.917 -0.0969 -0.3837  0.1198
32498SOL    HW198072   8.690   3.469   1.005  0.4987 -0.7622  0.1995
32498SOL    HW298073   8.725   3.413   0.868 -1.8569 -0.0756 -0.7309
32499SOL     OW98074   3.043   8.160   8.504 -0.2049  0.4234  0.2492
32499SOL    HW198075   3.071   8.069   8.513 -0.8097  0.1681 -0.3585
32499SOL    HW298076   3.119   8.211   8.532  0.9676 -0.2351 -1.5845
32500SOL     OW98077   4.564   0.921   5.666  0.7559  0.5008 -0.3109
32500SOL    HW198078   4.474   0.933   5.634  0.0004  1.2576  1.9132
32500SOL    HW298079   4.574   0.826   5.673 -0.0976  0.4277 -0.0058
32501SOL     OW98080   2.875   6.374   0.730 -0.0405  0.5989 -0.6910
32501SOL    HW198081   2.873   6.460   0.772  2.2037  0.8871 -1.0398
32501SOL    HW298082   2.868   6.393   0.636  0.2387  0.4047 -0.7546
32502SOL     OW98083   2.877   6.159   1.575 -0.4005  0.1416  0.5053
32502SOL    HW198084   2.841   6.247   1.583 -1.5116 -0.1846 -0.5033
32502SOL    HW298085   2.971   6.170   1.587 -0.4852  1.5034  0.0986
32503SOL     OW98086   1.881   4.672   3.016 -0.1677 -0.2360 -0.2078
32503SOL    HW198087   1.892   4.763   3.045 -1.0704 -0.4500  0.8455
32503SOL    HW298088   1.970   4.638   3.011  0.1392  0.5020  0.0636
32504SOL     OW98089   4.174   6.197   5.050  0.4455  0.2525  0.2282
32504SOL    HW198090   4.196   6.199   5.143  1.2028 -0.4644  0.0811
32504SOL    HW298091   4.092   6.147   5.046  0.5321  0.0868  0.4920
32505SOL     OW98092   2.564   1.717   5.356 -0.1496 -0.1006  0.8210
32505SOL    HW198093   2.560   1.636   5.305 -1.3486  0.4362  0.0090
32505SOL    HW298094   2.507   1.777   5.309 -0.7644  0.6351  2.4533
32506SOL     OW98095   5.788   9.519   1.361  0.2531  0.1479  0.1225
32506SOL    HW198096   5.765   9.433   1.326 -0.3102  0.2816  0.1408
32506SOL    HW298097   5.879   9.512   1.387 -0.3940 -1.1491  2.2490
32507SOL     OW98098   5.789   2.879   1.926 -0.0058 -0.1722 -0.4013
32507SOL    HW198099   5.709   2.916   1.963  1.0241  0.2767  1.5559
32507SOL    HW298100   5.824   2.824   1.996  0.6985 -1.4740 -1.7238
32508SOL     OW98101   9.418   4.864   3.565  0.9692  0.0764 -0.1879
32508SOL    HW198102   9.436   4.868   3.658  1.4126  2.1646 -0.3019
32508SOL    HW298103   9.503   4.852   3.524  0.5773 -2.9036 -0.3151
32509SOL     OW98104   0.103   9.386   0.995 -0.2608 -0.3436  0.5704
32509SOL    HW198105   0.177   9.378   0.935 -0.8339 -1.8103  0.0290
32509SOL    HW298106   0.054   9.462   0.964 -0.1632 -0.6685 -0.3871
32510SOL     OW98107   7.874   0.909   2.885  0.6615  0.5081 -0.1434
32510SOL    HW198108   7.873   0.822   2.924 -0.9836  0.5614  0.0232
32510SOL    HW298109   7.959   0.916   2.843  1.0738 -0.9271  0.3937
32511SOL     OW98110   5.526   9.538   9.248 -0.3448 -0.5641  0.2636
32511SOL    HW198111   5.469   9.466   9.276  0.2874 -0.7053  1.2102
32511SOL    HW298112   5.577   9.500   9.176  0.4431 -1.2965  1.1753
32512SOL     OW98113   7.272   1.290   4.975 -0.7792 -0.1108 -0.5814
32512SOL    HW198114   7.257   1.372   5.022 -0.9010 -1.4435  1.8586
32512SOL    HW298115   7.197   1.235   4.998 -0.7981 -0.8855 -2.3272
32513SOL     OW98116   1.719   0.489   2.371  0.6378  0.0958 -0.0494
32513SOL    HW198117   1.684   0.452   2.290 -0.5148  0.2486  0.3558
32513SOL    HW298118   1.763   0.570   2.343 -0.3967  0.5363 -0.4380
32514SOL     OW98119   4.522   1.528   6.705 -0.1331 -0.4626 -0.1386
32514SOL    HW198120   4.566   1.480   6.776 -1.0814 -2.4543 -0.8050
32514SOL    HW298121   4.576   1.509   6.627  1.3067  2.2821  0.0791
32515SOL     OW98122   9.786   5.890   3.504 -0.2006 -0.0979  0.4964
32515SOL    HW198123   9.874   5.852   3.507  0.4098  1.2850  1.0177
32515SOL    HW298124   9.787   5.948   3.428 -0.3361  0.6542  1.0594
32516SOL     OW98125   4.387   2.641   6.253 -0.0388  0.3662  0.4917
32516SOL    HW198126   4.409   2.589   6.330 -0.6612 -0.2831  0.2505
32516SOL    HW298127   4.313   2.594   6.214 -0.2827  1.1590 -0.0208
32517SOL     OW98128   1.644   4.826   5.245 -0.0440 -0.1342 -0.2406
32517SOL    HW198129   1.709   4.755   5.247  1.1695  0.8915 -1.1485
32517SOL    HW298130   1.564   4.786   5.277  1.3578 -1.1221  2.3684
32518SOL     OW98131   6.741   3.162   7.456 -0.2673 -0.0765 -0.2134
32518SOL    HW198132   6.645   3.166   7.453 -0.4458 -0.6417  2.3455
32518SOL    HW298133   6.765   3.096   7.392 -1.4694  0.8857 -1.7210
32519SOL     OW98134   9.337   1.114   7.448 -0.2496  0.6473 -0.6975
32519SOL    HW198135   9.301   1.030   7.474  0.5051  0.6038  0.2439
32519SOL    HW298136   9.432   1.099   7.440 -0.0805  1.4373 -0.3335
32520SOL     OW98137   2.043   3.872   8.785  0.0632  0.5202 -0.1114
32520SOL    HW198138   2.080   3.784   8.783  0.5386  0.6878  0.8425
32520SOL    HW298139   2.040   3.898   8.693 -1.0680 -0.8793 -0.5178
32521SOL     OW98140   6.140   3.092   0.893 -0.4455  0.2128  0.5899
32521SOL    HW198141   6.165   3.110   0.984  1.2328 -1.5242  0.5318
32521SOL    HW298142   6.117   3.178   0.858 -0.3354  1.0459  2.4229
32522SOL     OW98143   7.535   5.513   9.327  0.3036  0.5320 -0.2038
32522SOL    HW198144   7.552   5.500   9.234 -1.3131 -1.0577 -0.3450
32522SOL    HW298145   7.501   5.602   9.333 -0.2398  0.4151 -1.2680
32523SOL     OW98146   3.511   5.575   4.038 -0.2626  0.1387 -0.2872
32523SOL    HW198147   3.520   5.666   4.010  0.4438  0.5344  1.1397
32523SOL    HW298148   3.522   5.524   3.957  0.5860  1.2529 -0.9112
32524SOL     OW98149   3.643   0.956   1.840 -0.4961  0.3749 -0.0129
32524SOL    HW198150   3.550   0.963   1.860 -0.4524  0.3058  0.2180
32524SOL    HW298151   3.687   0.989   1.919 -0.3489  2.4746 -0.9063
32525SOL     OW98152   6.240   3.575   1.233  0.0279  0.2184 -0.1504
32525SOL    HW198153   6.309   3.521   1.270  1.7245  1.7231 -0.9708
32525SOL    HW298154   6.186   3.599   1.308  1.0429 -0.0688  0.6966
32526SOL     OW98155   2.063   9.642   6.009 -0.1073  0.1734  0.2935
32526SOL    HW198156   2.013   9.601   5.938  1.1250 -1.3173  0.2278
32526SOL    HW298157   2.133   9.579   6.028  0.3899  1.1639  1.9198
32527SOL     OW98158   5.538   9.326   7.499 -0.4513  0.2606 -0.2769
32527SOL    HW198159   5.586   9.408   7.509  0.2994 -0.3768  1.9857
32527SOL    HW298160   5.472   9.345   7.433  0.6386  2.2350 -0.8935
32528SOL     OW98161   1.374   0.941   6.518  0.0889  0.6208 -0.1327
32528SOL    HW198162   1.394   0.912   6.607 -0.5864  0.0605 -0.1561
32528SOL    HW298163   1.420   1.025   6.510 -0.9706  1.3884  1.2415
32529SOL     OW98164   6.893   6.503   1.972 -0.0071  0.1689  0.5464
32529SOL    HW198165   6.867   6.415   1.944  0.2473  0.2210  0.1445
32529SOL    HW298166   6.923   6.492   2.062  1.2131 -0.3780  0.0958
32530SOL     OW98167   2.620   2.426   4.355 -0.8103  0.2693 -0.3635
32530SOL    HW198168   2.632   2.347   4.302 -1.1141  0.5121 -0.8075
32530SOL    HW298169   2.670   2.410   4.435  0.6549  0.3751 -1.2253
32531SOL     OW98170   9.013   5.706   8.760 -0.5329 -0.1887 -0.2346
32531SOL    HW198171   8.984   5.782   8.811  1.6007  0.0337  0.7416
32531SOL    HW298172   9.067   5.743   8.690 -0.1454 -0.7411 -0.2354
32532SOL     OW98173   2.075   7.349   3.710 -0.1165  1.1556  0.1839
32532SOL    HW198174   2.037   7.278   3.658 -2.1226  0.6080  2.2125
32532SOL    HW298175   2.168   7.347   3.689  0.0040 -2.3523  0.3952
32533SOL     OW98176   6.070   3.567   8.861  0.1358 -0.0608 -0.0101
32533SOL    HW198177   6.124   3.633   8.905  2.1838 -3.3988  2.9864
32533SOL    HW298178   6.084   3.584   8.768 -0.2740  4.2129  0.5027
32534SOL     OW98179   4.646   6.404   8.870 -0.1070  0.5288  0.8997
32534SOL    HW198180   4.585   6.341   8.832  2.1987 -1.1019 -0.3362
32534SOL    HW298181   4.697   6.435   8.795  0.8507  1.5257  1.9432
32535SOL     OW98182   0.870   2.362   9.113 -0.0592 -0.0700 -0.0476
32535SOL    HW198183   0.965   2.360   9.123 -0.0814 -1.4238  0.0928
32535SOL    HW298184   0.850   2.453   9.092  1.4731 -0.1176 -2.0190
32536SOL     OW98185   6.585   1.622   5.481 -0.1030 -0.1042 -0.4061
32536SOL    HW198186   6.513   1.647   5.539  0.0441 -0.3541 -0.1135
32536SOL    HW298187   6.545   1.613   5.395 -0.5138 -0.6925 -0.1603
32537SOL     OW98188   1.962   3.010   4.332  0.1424  0.0845 -0.4664
32537SOL    HW198189   1.924   2.933   4.291  1.0547 -0.1448 -0.9277
32537SOL    HW298190   1.889   3.054   4.376 -0.3528 -1.1112 -0.0778
32538SOL     OW98191   0.297   9.517   2.032  0.0606 -0.0725  0.2095
32538SOL    HW198192   0.272   9.560   2.113 -0.2899 -0.8250  0.5130
32538SOL    HW298193   0.263   9.428   2.041 -0.9466  0.1412 -1.2125
32539SOL     OW98194   4.230   0.937   1.771 -0.3789 -0.3087 -0.1287
32539SOL    HW198195   4.227   0.989   1.852 -1.1563 -2.5601  1.4063
32539SOL    HW298196   4.320   0.946   1.741 -0.5864  2.2257 -0.2140
32540SOL     OW98197   8.958   2.017   1.862 -0.2219  0.4079 -0.3171
32540SOL    HW198198   8.863   2.007   1.877 -0.2798 -1.5112 -1.6271
32540SOL    HW298199   8.998   1.953   1.920  0.0995 -0.5660 -1.5863
32541SOL     OW98200   5.126   1.360   2.888  0.4565  0.1178 -0.8957
32541SOL    HW198201   5.104   1.321   2.973  0.2787  0.6545 -0.6980
32541SOL    HW298202   5.134   1.284   2.830  0.2515 -0.2321 -0.4811
32542SOL     OW98203   2.083   5.791   0.807  0.0531  0.7192  0.1911
32542SOL    HW198204   2.034   5.830   0.879 -1.0003  0.0986 -0.1694
32542SOL    HW298205   2.017   5.778   0.738  0.4629 -1.2265  0.1202
32543SOL     OW98206   5.583   8.786   1.345  0.1221 -0.2817  0.1757
32543SOL    HW198207   5.633   8.714   1.383  0.6947  0.2263  0.3843
32543SOL    HW298208   5.630   8.808   1.265 -0.9941 -1.2495 -0.7904
32544SOL     OW98209   4.689   7.865   0.422 -0.2210  0.1085  0.0301
32544SOL    HW198210   4.740   7.884   0.343 -1.4306  1.0940 -0.5619
32544SOL    HW298211   4.599   7.855   0.390 -0.5963 -0.3503  1.1845
32545SOL     OW98212   3.663   8.760   1.806  0.6582 -0.3230 -0.1673
32545SOL    HW198213   3.643   8.677   1.763  1.6399  0.0210 -1.3161
32545SOL    HW298214   3.579   8.788   1.843  0.1412 -1.4170 -0.4688
32546SOL     OW98215   5.959   3.126   3.547 -0.7398 -0.1507 -0.4403
32546SOL    HW198216   5.900   3.136   3.472 -0.7568  0.2568 -0.3768
32546SOL    HW298217   6.017   3.203   3.541 -0.7457 -0.1143 -0.0334
32547SOL     OW98218   6.628   3.762   7.591 -0.3585  0.1993 -0.0585
32547SOL    HW198219   6.558   3.702   7.618  1.8966 -2.2880  0.7478
32547SOL    HW298220   6.591   3.849   7.602 -3.2061 -0.9771  0.5774
32548SOL     OW98221   6.821   0.335   2.014  0.2235  0.2394 -0.1721
32548SOL    HW198222   6.793   0.258   2.063  0.8794  0.8594  1.2600
32548SOL    HW298223   6.739   0.379   1.989 -0.1388  0.3718  1.1762
32549SOL     OW98224   5.090   9.077   6.963 -0.6453 -0.4066  0.0167
32549SOL    HW198225   5.092   9.073   7.059  0.8371  1.2462  0.1117
32549SOL    HW298226   5.180   9.056   6.937 -0.0525  2.5572 -0.7415
32550SOL     OW98227   5.926   8.962   8.320 -0.2771  0.2268  0.3584
32550SOL    HW198228   6.015   8.994   8.331 -0.3721  0.0788  1.7551
32550SOL    HW298229   5.912   8.962   8.225  0.6563  1.7241  0.1801
32551SOL     OW98230   5.859   0.310   5.696 -0.5199 -0.2217  0.1846
32551SOL    HW198231   5.915   0.386   5.714 -1.8559  1.1724 -1.2218
32551SOL    HW298232   5.770   0.341   5.713 -1.1718 -1.1847 -1.2422
32552SOL     OW98233   0.058   6.738   7.820  0.6809  0.1405  0.0523
32552SOL    HW198234   0.090   6.804   7.880  0.0779 -0.2033  0.7691
32552SOL    HW298235  -0.028   6.713   7.854  1.1430 -1.4475  0.1719
32553SOL     OW98236   4.176   9.626   9.877  0.3260 -0.0073  0.1775
32553SOL    HW198237   4.236   9.592   9.943 -0.4781 -1.5411  0.1625
32553SOL    HW298238   4.216   9.602   9.793  0.1715 -0.1792  0.1519
32554SOL     OW98239   1.976   7.200   3.181 -0.3608 -0.2313 -0.6926
32554SOL    HW198240   1.952   7.203   3.088 -1.8263 -2.1910 -0.4368
32554SOL    HW298241   1.927   7.125   3.216 -3.6323  3.0360  2.6945
32555SOL     OW98242   8.476   6.074   7.614 -0.5318 -0.0375  0.3782
32555SOL    HW198243   8.419   6.093   7.540 -1.7069  0.1457  1.2994
32555SOL    HW298244   8.419   6.080   7.691  0.4022 -1.3550  1.2186
32556SOL     OW98245   7.327   8.839   3.445  0.4159 -0.3599  0.0125
32556SOL    HW198246   7.401   8.892   3.414 -0.1916  0.0487 -0.7711
32556SOL    HW298247   7.357   8.749   3.437  0.3815 -0.2647 -1.5636
32557NA      NA98248   0.786   0.018   7.787 -0.2670 -0.1512 -0.3884
32558NA      NA98249   4.772   5.150   9.037  0.5033 -0.3255  0.0845
32559NA      NA98250   4.152   4.247   7.662  0.0410 -0.0377  0.2153
32560NA      NA98251   6.839   7.692   3.682  0.2318 -0.6045  0.0672
32561NA      NA98252   4.415   4.977   6.580 -0.0418  0.1919  0.5379
32562NA      NA98253   5.878   6.646   7.267  0.2283  0.5288 -0.6440
32563NA      NA98254   6.423   0.199   8.003  0.1749  0.3905 -0.5294
32564NA      NA98255   5.090   2.488   7.746 -0.4515  0.1079 -0.4504
32565NA      NA98256   4.417   3.981   9.199  0.0857  0.4030  0.4742
32566NA      NA98257   1.159   6.490   9.319 -0.3019  0.3218  0.0996
32567NA      NA98258   4.818   0.558   2.732  0.4985 -1.0671  1.1510
32568NA      NA98259   6.535   6.785   6.951 -0.3695 -0.3412  0.0187
32569NA      NA98260   7.321   4.124   8.288 -0.2735 -0.2152  0.3564
32570NA      NA98261   3.562   5.067   1.173 -0.2443 -0.2837 -0.3808
32571NA      NA98262   2.924   0.634   7.303  0.0300  0.2124  0.1052
32572NA      NA98263   4.065   2.193   8.514 -0.0084 -0.0330 -0.1231
32573NA      NA98264   4.844   5.367   8.409  0.5123 -0.3576 -0.6311
32574NA      NA98265   5.518   3.993   6.690 -0.1053  0.4366 -0.1381
32575NA      NA98266   5.797   2.822   7.477  0.3261  0.3673  0.6475
   9.97852   9.97852   9.97852
